/*--------------------------------*- C++ -*----------------------------------*\
| =========                 |                                                 |
| \\      /  F ield         | OpenFOAM: The Open Source CFD Toolbox           |
|  \\    /   O peration     | Version:  2.4.0                                 |
|   \\  /    A nd           | Web:      www.OpenFOAM.org                      |
|    \\/     M anipulation  |                                                 |
\*---------------------------------------------------------------------------*/
FoamFile
{
    version     2.0;
    format      ascii;
    class       volScalarField;
    location    "0.0069";
    object      T;
}
// * * * * * * * * * * * * * * * * * * * * * * * * * * * * * * * * * * * * * //

dimensions      [0 0 0 1 0 0 0];

internalField   nonuniform List<scalar> 
4800
(
100.194
100.581
100.968
101.354
101.738
102.117
102.487
102.844
103.182
103.493
100.581
101.742
102.903
104.063
105.217
106.358
107.475
108.552
109.571
110.511
100.968
102.903
104.841
106.778
108.71
110.625
112.503
114.319
116.039
117.626
101.354
104.063
106.779
109.499
112.22
114.927
117.593
120.182
122.64
124.908
101.738
105.218
108.71
112.22
115.745
119.268
122.762
126.174
129.431
132.438
102.117
106.359
110.625
114.927
119.269
123.641
128.012
132.323
136.471
140.314
102.488
107.476
112.504
117.595
122.763
128.013
133.323
138.632
143.816
148.66
102.845
108.554
114.321
120.184
126.177
132.325
138.634
145.068
151.502
157.641
103.182
109.573
116.042
122.644
129.435
136.475
143.819
151.504
159.482
167.46
103.494
110.514
117.631
124.914
132.445
140.321
148.666
157.645
167.462
178.222
100.194
100.581
100.968
101.354
101.738
102.117
102.487
102.844
103.182
103.493
100.581
101.742
102.903
104.063
105.217
106.359
107.475
108.552
109.571
110.511
100.968
102.903
104.841
106.778
108.71
110.625
112.503
114.319
116.039
117.626
101.354
104.063
106.779
109.499
112.22
114.927
117.593
120.182
122.64
124.908
101.738
105.218
108.71
112.22
115.745
119.268
122.762
126.174
129.431
132.438
102.117
106.359
110.625
114.927
119.269
123.641
128.012
132.323
136.471
140.314
102.488
107.476
112.504
117.595
122.763
128.013
133.323
138.633
143.817
148.66
102.845
108.554
114.321
120.184
126.177
132.325
138.634
145.068
151.502
157.641
103.182
109.573
116.042
122.644
129.435
136.475
143.82
151.504
159.482
167.46
103.494
110.514
117.631
124.915
132.445
140.321
148.666
157.646
167.463
178.223
100.194
100.581
100.968
101.354
101.738
102.117
102.487
102.844
103.182
103.493
100.581
101.742
102.903
104.063
105.217
106.359
107.475
108.552
109.571
110.511
100.968
102.903
104.841
106.778
108.71
110.625
112.503
114.319
116.039
117.626
101.354
104.063
106.779
109.499
112.22
114.927
117.593
120.182
122.64
124.908
101.738
105.218
108.71
112.22
115.745
119.268
122.762
126.174
129.431
132.438
102.117
106.359
110.625
114.927
119.269
123.641
128.012
132.323
136.471
140.314
102.488
107.476
112.504
117.595
122.763
128.013
133.323
138.633
143.817
148.66
102.845
108.554
114.321
120.184
126.177
132.325
138.634
145.068
151.502
157.641
103.182
109.573
116.042
122.644
129.435
136.475
143.82
151.504
159.482
167.46
103.494
110.514
117.631
124.915
132.445
140.321
148.666
157.646
167.463
178.223
100.194
100.581
100.968
101.354
101.738
102.117
102.487
102.844
103.182
103.493
100.581
101.742
102.903
104.063
105.217
106.358
107.475
108.552
109.571
110.511
100.968
102.903
104.841
106.778
108.71
110.625
112.503
114.319
116.039
117.626
101.354
104.063
106.779
109.499
112.22
114.927
117.593
120.182
122.64
124.908
101.738
105.218
108.71
112.22
115.745
119.268
122.762
126.174
129.431
132.438
102.117
106.359
110.625
114.927
119.269
123.641
128.012
132.323
136.471
140.314
102.488
107.476
112.504
117.595
122.763
128.013
133.323
138.632
143.816
148.66
102.845
108.554
114.321
120.184
126.177
132.325
138.634
145.068
151.502
157.641
103.182
109.573
116.042
122.644
129.435
136.475
143.819
151.504
159.482
167.46
103.494
110.514
117.631
124.914
132.445
140.321
148.666
157.645
167.462
178.222
103.773
104.016
104.222
104.391
104.526
104.63
104.707
104.762
104.796
104.813
104.813
104.796
104.761
104.707
104.63
104.526
104.391
104.222
104.016
103.773
111.354
112.087
112.704
113.208
113.609
113.916
114.144
114.304
114.405
114.454
114.454
114.405
114.304
114.144
113.916
113.608
113.208
112.703
112.086
111.353
119.045
120.272
121.298
122.13
122.784
123.283
123.65
123.906
124.067
124.145
124.145
124.067
123.905
123.649
123.281
122.782
122.128
121.297
120.271
119.044
126.928
128.659
130.087
131.229
132.114
132.78
133.266
133.602
133.812
133.914
133.913
133.812
133.601
133.265
132.779
132.112
131.227
130.086
128.657
126.926
135.1
137.347
139.164
140.584
141.662
142.459
143.032
143.423
143.667
143.783
143.783
143.666
143.422
143.03
142.457
141.66
140.581
139.162
137.345
135.098
143.687
146.464
148.638
150.28
151.49
152.363
152.978
153.393
153.649
153.77
153.77
153.648
153.392
152.977
152.361
151.488
150.278
148.636
146.462
143.685
152.869
156.186
158.643
160.408
161.655
162.526
163.125
163.522
163.764
163.878
163.878
163.763
163.521
163.123
162.524
161.653
160.406
158.641
156.184
152.867
162.943
166.765
169.342
171.053
172.194
172.96
173.473
173.806
174.007
174.102
174.101
174.007
173.805
173.472
172.959
172.193
171.052
169.34
166.764
162.941
174.494
178.591
180.906
182.268
183.11
183.649
183.999
184.223
184.357
184.419
184.419
184.356
184.223
183.998
183.648
183.109
182.267
180.905
178.591
174.494
188.984
192.199
193.422
194.004
194.328
194.526
194.651
194.73
194.777
194.799
194.799
194.777
194.73
194.651
194.525
194.328
194.003
193.422
192.199
188.983
103.773
104.016
104.222
104.391
104.526
104.63
104.707
104.761
104.796
104.812
104.812
104.795
104.761
104.707
104.629
104.525
104.391
104.222
104.016
103.772
111.354
112.086
112.704
113.208
113.608
113.916
114.144
114.304
114.405
114.454
114.454
114.405
114.303
114.143
113.915
113.607
113.207
112.702
112.085
111.352
119.045
120.272
121.298
122.13
122.783
123.282
123.649
123.905
124.067
124.144
124.144
124.066
123.904
123.648
123.28
122.781
122.127
121.296
120.27
119.043
126.928
128.658
130.087
131.228
132.113
132.78
133.265
133.601
133.812
133.913
133.913
133.811
133.6
133.264
132.778
132.111
131.225
130.084
128.655
126.925
135.1
137.347
139.164
140.583
141.661
142.459
143.031
143.423
143.666
143.783
143.782
143.665
143.421
143.029
142.456
141.658
140.58
139.16
137.343
135.097
143.687
146.464
148.638
150.279
151.489
152.363
152.978
153.392
153.648
153.769
153.769
153.647
153.391
152.976
152.36
151.486
150.276
148.634
146.461
143.684
152.869
156.186
158.643
160.407
161.654
162.525
163.124
163.521
163.763
163.878
163.877
163.762
163.52
163.122
162.523
161.651
160.404
158.64
156.182
152.866
162.943
166.765
169.342
171.053
172.194
172.96
173.472
173.805
174.006
174.101
174.1
174.006
173.804
173.47
172.958
172.192
171.05
169.339
166.762
162.94
174.494
178.591
180.905
182.268
183.109
183.648
183.998
184.222
184.356
184.418
184.418
184.355
184.222
183.997
183.647
183.108
182.266
180.904
178.589
174.492
188.984
192.199
193.422
194.003
194.328
194.525
194.651
194.73
194.777
194.799
194.799
194.777
194.73
194.65
194.525
194.327
194.003
193.421
192.198
188.982
103.773
104.016
104.222
104.391
104.526
104.63
104.707
104.761
104.796
104.812
104.812
104.795
104.761
104.707
104.629
104.525
104.391
104.222
104.016
103.772
111.354
112.086
112.704
113.208
113.608
113.916
114.144
114.304
114.405
114.454
114.454
114.405
114.303
114.143
113.915
113.607
113.207
112.702
112.085
111.352
119.045
120.272
121.298
122.13
122.783
123.282
123.649
123.905
124.067
124.144
124.144
124.066
123.904
123.648
123.28
122.781
122.127
121.296
120.27
119.043
126.928
128.658
130.087
131.228
132.113
132.78
133.265
133.601
133.812
133.913
133.913
133.811
133.6
133.264
132.778
132.111
131.225
130.084
128.655
126.925
135.1
137.347
139.164
140.583
141.661
142.459
143.031
143.423
143.666
143.783
143.782
143.665
143.421
143.029
142.456
141.658
140.58
139.16
137.343
135.097
143.687
146.464
148.638
150.279
151.489
152.363
152.978
153.392
153.648
153.769
153.769
153.647
153.391
152.976
152.36
151.486
150.276
148.634
146.461
143.684
152.869
156.186
158.643
160.407
161.654
162.525
163.124
163.521
163.763
163.878
163.877
163.762
163.52
163.122
162.523
161.651
160.404
158.64
156.182
152.866
162.943
166.765
169.342
171.053
172.194
172.96
173.472
173.805
174.006
174.101
174.1
174.006
173.804
173.47
172.958
172.192
171.05
169.339
166.762
162.94
174.494
178.591
180.905
182.268
183.109
183.648
183.998
184.222
184.356
184.418
184.418
184.355
184.222
183.997
183.647
183.108
182.266
180.904
178.589
174.492
188.984
192.199
193.422
194.003
194.328
194.525
194.651
194.73
194.777
194.799
194.799
194.777
194.73
194.65
194.525
194.327
194.003
193.421
192.198
188.982
103.773
104.016
104.222
104.391
104.526
104.63
104.707
104.762
104.796
104.813
104.813
104.796
104.761
104.707
104.63
104.526
104.391
104.222
104.016
103.773
111.354
112.087
112.704
113.208
113.609
113.916
114.144
114.304
114.405
114.454
114.454
114.405
114.304
114.144
113.916
113.608
113.208
112.703
112.086
111.353
119.045
120.272
121.298
122.13
122.784
123.283
123.65
123.906
124.067
124.145
124.145
124.067
123.905
123.649
123.281
122.782
122.128
121.297
120.271
119.044
126.928
128.659
130.087
131.229
132.114
132.78
133.266
133.602
133.812
133.914
133.913
133.812
133.601
133.265
132.779
132.112
131.227
130.086
128.657
126.926
135.1
137.347
139.164
140.584
141.662
142.459
143.032
143.423
143.667
143.783
143.783
143.666
143.422
143.03
142.457
141.66
140.581
139.162
137.345
135.098
143.687
146.464
148.638
150.28
151.49
152.363
152.978
153.393
153.649
153.77
153.77
153.648
153.392
152.977
152.361
151.488
150.278
148.636
146.462
143.685
152.869
156.186
158.643
160.408
161.655
162.526
163.125
163.522
163.764
163.878
163.878
163.763
163.521
163.123
162.524
161.653
160.406
158.641
156.184
152.867
162.943
166.765
169.342
171.053
172.194
172.96
173.473
173.806
174.007
174.102
174.101
174.007
173.805
173.472
172.959
172.193
171.052
169.34
166.764
162.941
174.494
178.591
180.906
182.268
183.11
183.649
183.999
184.223
184.357
184.419
184.419
184.356
184.223
183.998
183.648
183.109
182.267
180.905
178.591
174.494
188.984
192.199
193.422
194.004
194.328
194.526
194.651
194.73
194.777
194.799
194.799
194.777
194.73
194.651
194.525
194.328
194.003
193.422
192.199
188.983
103.493
103.182
102.844
102.488
102.117
101.738
101.354
100.968
100.581
100.194
110.511
109.571
108.552
107.476
106.359
105.218
104.064
102.904
101.743
100.581
117.625
116.039
114.319
112.503
110.625
108.711
106.779
104.842
102.904
100.968
124.907
122.639
120.181
117.594
114.927
112.221
109.5
106.779
104.064
101.354
132.437
129.43
126.174
122.762
119.269
115.745
112.221
108.711
105.218
101.738
140.313
136.47
132.323
128.013
123.641
119.27
114.929
110.626
106.36
102.117
148.659
143.816
138.633
133.324
128.014
122.765
117.596
112.506
107.477
102.488
157.641
151.502
145.069
138.635
132.327
126.179
120.186
114.323
108.555
102.845
167.461
159.483
151.505
143.822
136.478
129.438
122.646
116.044
109.575
103.183
178.223
167.464
157.648
148.669
140.324
132.448
124.917
117.633
110.516
103.495
103.492
103.181
102.844
102.487
102.116
101.737
101.353
100.967
100.58
100.193
110.509
109.57
108.551
107.474
106.358
105.217
104.062
102.903
101.741
100.58
117.624
116.037
114.317
112.502
110.624
108.709
106.778
104.84
102.903
100.967
124.905
122.638
120.18
117.592
114.926
112.219
109.499
106.778
104.063
101.353
132.435
129.429
126.172
122.761
119.267
115.744
112.22
108.71
105.217
101.737
140.311
136.469
132.321
128.011
123.64
119.268
114.927
110.625
106.359
102.116
148.658
143.814
138.631
133.322
128.012
122.763
117.595
112.504
107.476
102.487
157.639
151.5
145.067
138.633
132.325
126.177
120.184
114.321
108.554
102.845
167.459
159.481
151.503
143.82
136.476
129.436
122.645
116.043
109.573
103.182
178.222
167.462
157.645
148.667
140.322
132.446
124.915
117.631
110.514
103.494
103.492
103.181
102.844
102.487
102.116
101.737
101.353
100.967
100.58
100.193
110.509
109.57
108.551
107.474
106.358
105.217
104.062
102.903
101.741
100.58
117.624
116.037
114.317
112.502
110.624
108.709
106.778
104.84
102.903
100.967
124.905
122.638
120.18
117.592
114.926
112.219
109.499
106.778
104.063
101.353
132.435
129.429
126.172
122.761
119.267
115.744
112.22
108.71
105.217
101.737
140.311
136.469
132.321
128.011
123.64
119.268
114.927
110.625
106.359
102.116
148.658
143.814
138.631
133.322
128.012
122.763
117.595
112.504
107.476
102.487
157.639
151.5
145.067
138.633
132.325
126.177
120.184
114.321
108.554
102.845
167.459
159.481
151.503
143.82
136.476
129.436
122.645
116.043
109.573
103.182
178.222
167.462
157.645
148.667
140.322
132.446
124.915
117.631
110.514
103.494
103.493
103.182
102.844
102.488
102.117
101.738
101.354
100.968
100.581
100.194
110.511
109.571
108.552
107.476
106.359
105.218
104.064
102.904
101.743
100.581
117.625
116.039
114.319
112.503
110.625
108.711
106.779
104.842
102.904
100.968
124.907
122.639
120.181
117.594
114.927
112.221
109.5
106.779
104.064
101.354
132.437
129.43
126.174
122.762
119.269
115.745
112.221
108.711
105.218
101.738
140.313
136.47
132.323
128.013
123.641
119.27
114.929
110.626
106.36
102.117
148.659
143.816
138.633
133.324
128.014
122.765
117.596
112.506
107.477
102.488
157.641
151.502
145.069
138.635
132.327
126.179
120.186
114.323
108.555
102.845
167.461
159.483
151.505
143.822
136.478
129.438
122.646
116.044
109.575
103.183
178.223
167.464
157.648
148.669
140.324
132.448
124.917
117.633
110.516
103.495
188.986
174.501
162.953
152.882
143.701
135.114
126.941
119.055
111.361
103.775
192.203
178.601
166.78
156.203
146.484
137.366
128.676
120.286
112.096
104.02
193.427
180.919
169.362
158.668
148.665
139.191
130.112
121.318
112.717
104.227
194.01
182.286
171.08
160.441
150.317
140.621
131.262
122.156
113.226
104.397
194.336
183.134
172.231
161.7
151.54
141.712
132.159
122.82
113.632
104.534
194.537
183.681
173.01
162.588
152.432
142.528
132.842
123.332
113.948
104.641
194.667
184.043
173.541
163.21
153.072
143.126
133.35
123.717
114.187
104.722
194.752
184.283
173.899
163.639
153.522
143.551
133.717
123.997
114.363
104.782
194.806
184.439
174.134
163.923
153.824
143.841
133.969
124.191
114.485
104.823
194.839
184.532
174.276
164.097
154.01
144.021
134.127
124.313
114.562
104.85
194.853
184.574
174.341
164.177
154.098
144.107
134.203
124.373
114.6
104.863
194.852
184.57
174.336
164.173
154.096
144.108
134.206
124.376
114.603
104.864
194.833
184.519
174.26
164.084
154.005
144.024
134.135
124.323
114.57
104.853
194.795
184.411
174.102
163.899
153.815
143.849
133.987
124.213
114.502
104.83
194.729
184.228
173.838
163.596
153.509
143.569
133.753
124.038
114.394
104.794
194.62
183.934
173.427
163.137
153.058
143.164
133.421
123.792
114.244
104.743
194.435
183.462
172.8
162.468
152.423
142.61
132.974
123.467
114.047
104.677
194.09
182.679
171.846
161.512
151.558
141.88
132.399
123.055
113.799
104.595
193.337
181.317
170.393
160.18
150.42
140.956
131.69
122.554
113.502
104.496
191.275
178.863
168.232
158.396
148.988
139.838
130.852
121.972
113.159
104.383
188.984
174.499
162.95
152.879
143.699
135.112
126.939
119.053
111.359
103.774
192.201
178.598
166.777
156.201
146.482
137.364
128.674
120.285
112.094
104.019
193.425
180.916
169.359
158.665
148.663
139.189
130.11
121.316
112.715
104.226
194.008
182.283
171.077
160.439
150.314
140.618
131.26
122.154
113.224
104.396
194.335
183.131
172.228
161.698
151.538
141.71
132.157
122.818
113.63
104.533
194.535
183.678
173.007
162.585
152.43
142.526
132.84
123.33
113.946
104.64
194.665
184.04
173.538
163.207
153.07
143.123
133.348
123.714
114.186
104.721
194.75
184.28
173.896
163.636
153.519
143.549
133.714
123.995
114.361
104.781
194.804
184.436
174.131
163.92
153.821
143.839
133.966
124.189
114.483
104.822
194.836
184.529
174.273
164.093
154.007
144.018
134.124
124.311
114.56
104.849
194.851
184.571
174.337
164.174
154.094
144.105
134.2
124.371
114.598
104.862
194.849
184.567
174.333
164.17
154.093
144.105
134.203
124.374
114.6
104.863
194.831
184.515
174.257
164.081
154.001
144.021
134.132
124.321
114.568
104.852
194.793
184.408
174.098
163.896
153.812
143.846
133.984
124.21
114.499
104.828
194.727
184.225
173.834
163.592
153.506
143.565
133.75
124.035
114.392
104.792
194.617
183.931
173.423
163.133
153.054
143.161
133.418
123.789
114.242
104.742
194.432
183.458
172.796
162.464
152.42
142.607
132.971
123.464
114.044
104.676
194.088
182.675
171.842
161.508
151.555
141.877
132.396
123.052
113.797
104.593
193.334
181.313
170.389
160.176
150.416
140.953
131.687
122.551
113.5
104.495
191.272
178.859
168.228
158.392
148.985
139.835
130.849
121.969
113.157
104.381
188.984
174.499
162.95
152.879
143.699
135.112
126.939
119.053
111.359
103.774
192.201
178.598
166.777
156.201
146.482
137.364
128.674
120.285
112.094
104.019
193.425
180.916
169.359
158.665
148.663
139.189
130.11
121.316
112.715
104.226
194.008
182.283
171.077
160.439
150.314
140.618
131.26
122.154
113.224
104.396
194.335
183.131
172.228
161.698
151.538
141.71
132.157
122.818
113.63
104.533
194.535
183.678
173.007
162.585
152.43
142.526
132.84
123.33
113.946
104.64
194.665
184.04
173.538
163.207
153.07
143.123
133.348
123.714
114.186
104.721
194.75
184.28
173.896
163.636
153.519
143.549
133.714
123.995
114.361
104.781
194.804
184.436
174.131
163.92
153.821
143.839
133.966
124.189
114.483
104.822
194.836
184.529
174.273
164.093
154.007
144.018
134.124
124.311
114.56
104.849
194.851
184.571
174.337
164.174
154.094
144.105
134.2
124.371
114.598
104.862
194.849
184.567
174.333
164.17
154.093
144.105
134.203
124.374
114.6
104.863
194.831
184.515
174.257
164.081
154.001
144.021
134.132
124.321
114.568
104.852
194.793
184.408
174.098
163.896
153.812
143.846
133.984
124.21
114.499
104.828
194.727
184.225
173.834
163.592
153.506
143.565
133.75
124.035
114.392
104.792
194.617
183.931
173.423
163.133
153.054
143.161
133.418
123.789
114.242
104.742
194.432
183.458
172.796
162.464
152.42
142.607
132.971
123.464
114.044
104.676
194.088
182.675
171.842
161.508
151.555
141.877
132.396
123.052
113.797
104.593
193.334
181.313
170.389
160.176
150.416
140.953
131.687
122.551
113.5
104.495
191.272
178.859
168.228
158.392
148.985
139.835
130.849
121.969
113.157
104.381
188.986
174.501
162.953
152.882
143.701
135.114
126.941
119.055
111.361
103.775
192.203
178.601
166.78
156.203
146.484
137.366
128.676
120.286
112.096
104.02
193.427
180.919
169.362
158.668
148.665
139.191
130.112
121.318
112.717
104.227
194.01
182.286
171.08
160.441
150.317
140.621
131.262
122.156
113.226
104.397
194.336
183.134
172.231
161.7
151.54
141.712
132.159
122.82
113.632
104.534
194.537
183.681
173.01
162.588
152.432
142.528
132.842
123.332
113.948
104.641
194.667
184.043
173.541
163.21
153.072
143.126
133.35
123.717
114.187
104.722
194.752
184.283
173.899
163.639
153.522
143.551
133.717
123.997
114.363
104.782
194.806
184.439
174.134
163.923
153.824
143.841
133.969
124.191
114.485
104.823
194.839
184.532
174.276
164.097
154.01
144.021
134.127
124.313
114.562
104.85
194.853
184.574
174.341
164.177
154.098
144.107
134.203
124.373
114.6
104.863
194.852
184.57
174.336
164.173
154.096
144.108
134.206
124.376
114.603
104.864
194.833
184.519
174.26
164.084
154.005
144.024
134.135
124.323
114.57
104.853
194.795
184.411
174.102
163.899
153.815
143.849
133.987
124.213
114.502
104.83
194.729
184.228
173.838
163.596
153.509
143.569
133.753
124.038
114.394
104.794
194.62
183.934
173.427
163.137
153.058
143.164
133.421
123.792
114.244
104.743
194.435
183.462
172.8
162.468
152.423
142.61
132.974
123.467
114.047
104.677
194.09
182.679
171.846
161.512
151.558
141.88
132.399
123.055
113.799
104.595
193.337
181.317
170.393
160.18
150.42
140.956
131.69
122.554
113.502
104.496
191.275
178.863
168.232
158.396
148.988
139.838
130.852
121.972
113.159
104.383
184.172
174.631
165.278
156.189
147.304
138.559
129.91
121.325
112.781
104.258
177.937
170.216
162.064
153.785
145.483
137.189
128.908
120.641
112.382
104.127
172.91
166.239
158.984
151.41
143.66
135.809
127.898
119.95
111.979
103.995
168.893
162.852
156.231
149.218
141.944
134.496
126.931
119.286
111.592
103.867
165.69
160.053
153.878
147.295
140.41
133.307
126.047
118.677
111.235
103.75
163.166
157.801
151.942
145.681
139.103
132.282
125.279
118.144
110.921
103.647
161.23
156.053
150.416
144.391
138.045
131.445
124.647
117.705
110.662
103.561
159.822
154.772
149.289
143.429
137.25
130.811
124.167
117.369
110.463
103.496
158.903
153.933
148.546
142.791
136.72
130.387
123.845
117.143
110.329
103.451
158.45
153.518
148.178
142.474
136.456
130.175
123.684
117.031
110.262
103.434
184.169
174.627
165.274
156.186
147.3
138.556
129.907
121.322
112.778
104.257
177.933
170.212
162.06
153.781
145.479
137.185
128.905
120.638
112.379
104.125
172.907
166.235
158.981
151.407
143.656
135.806
127.895
119.947
111.977
103.993
168.89
162.849
156.228
149.215
141.941
134.493
126.927
119.283
111.589
103.865
165.688
160.05
153.875
147.292
140.407
133.304
126.043
118.674
111.231
103.748
163.163
157.798
151.939
145.678
139.099
132.278
125.275
118.14
110.918
103.644
161.227
156.05
150.414
144.388
138.042
131.441
124.643
117.7
110.658
103.558
159.819
154.769
149.286
143.425
137.246
130.807
124.163
117.364
110.458
103.492
158.901
153.93
148.543
142.788
136.717
130.383
123.84
117.138
110.322
103.447
158.447
153.516
148.175
142.47
136.452
130.171
123.679
117.025
110.255
103.428
184.169
174.627
165.274
156.186
147.3
138.556
129.907
121.322
112.778
104.257
177.933
170.212
162.06
153.781
145.479
137.185
128.905
120.638
112.379
104.125
172.907
166.235
158.981
151.407
143.656
135.806
127.895
119.947
111.977
103.993
168.89
162.849
156.228
149.215
141.941
134.493
126.927
119.283
111.589
103.865
165.688
160.05
153.875
147.292
140.407
133.304
126.043
118.673
111.231
103.748
163.163
157.798
151.939
145.678
139.099
132.278
125.275
118.14
110.918
103.644
161.227
156.05
150.414
144.388
138.042
131.441
124.643
117.7
110.658
103.558
159.819
154.769
149.286
143.425
137.246
130.807
124.162
117.364
110.458
103.492
158.901
153.93
148.543
142.788
136.716
130.383
123.84
117.138
110.322
103.447
158.447
153.515
148.175
142.47
136.452
130.171
123.679
117.025
110.255
103.428
184.172
174.631
165.278
156.189
147.304
138.559
129.91
121.325
112.781
104.258
177.937
170.216
162.064
153.785
145.483
137.189
128.908
120.641
112.382
104.127
172.91
166.239
158.984
151.41
143.66
135.809
127.898
119.95
111.979
103.995
168.893
162.852
156.231
149.218
141.944
134.496
126.931
119.286
111.591
103.867
165.69
160.053
153.878
147.295
140.41
133.307
126.047
118.677
111.235
103.75
163.166
157.801
151.942
145.681
139.103
132.282
125.279
118.144
110.921
103.646
161.23
156.053
150.416
144.391
138.045
131.445
124.647
117.705
110.662
103.561
159.822
154.772
149.289
143.428
137.25
130.811
124.167
117.368
110.463
103.496
158.903
153.933
148.546
142.791
136.72
130.387
123.845
117.143
110.328
103.451
158.45
153.518
148.177
142.473
136.455
130.175
123.684
117.031
110.262
103.434
192.846
195.616
196.791
197.428
197.833
198.11
198.304
198.437
198.521
198.562
198.562
198.522
198.438
198.306
198.112
197.835
197.431
196.794
195.619
192.848
184.448
188.448
190.911
192.52
193.627
194.414
194.974
195.362
195.607
195.727
195.727
195.61
195.366
194.979
194.419
193.634
192.527
190.918
188.454
184.453
178.568
182.818
185.89
188.116
189.747
190.947
191.822
192.434
192.824
193.014
193.015
192.827
192.44
191.829
190.957
189.757
188.127
185.902
182.83
178.578
174.11
178.372
181.721
184.312
186.302
187.814
188.937
189.735
190.246
190.497
190.499
190.251
189.743
188.948
187.827
186.318
184.33
181.739
178.39
174.128
170.631
174.845
178.317
181.119
183.344
185.077
186.388
187.329
187.939
188.239
188.241
187.945
187.34
186.403
185.095
183.366
181.144
178.343
174.872
170.658
167.913
172.07
175.591
178.513
180.887
182.772
184.218
185.267
185.951
186.289
186.292
185.96
185.282
184.238
182.797
180.917
178.546
175.628
172.108
167.953
165.836
169.94
173.478
176.465
178.933
180.918
182.457
183.584
184.322
184.688
184.692
184.333
183.602
182.482
180.949
178.97
176.508
173.525
169.99
165.888
164.326
168.388
171.928
174.951
177.474
179.523
181.125
182.303
183.078
183.464
183.469
183.091
182.324
181.155
179.561
177.519
175.003
171.986
168.45
164.392
163.34
167.373
170.91
173.951
176.506
178.592
180.231
181.441
182.239
182.638
182.643
182.254
181.465
180.265
178.635
176.558
174.011
170.977
167.446
163.417
162.852
166.871
170.406
173.454
176.022
178.126
179.782
181.007
181.817
182.221
182.227
181.833
181.034
179.819
178.173
176.078
173.518
170.478
166.95
162.936
192.849
195.618
196.792
197.429
197.834
198.111
198.305
198.438
198.521
198.562
198.562
198.521
198.438
198.305
198.111
197.834
197.43
196.792
195.617
192.846
184.451
188.45
190.914
192.522
193.629
194.415
194.975
195.363
195.608
195.727
195.727
195.609
195.365
194.978
194.418
193.632
192.525
190.916
188.452
184.45
178.571
182.821
185.893
188.118
189.749
190.949
191.823
192.435
192.824
193.014
193.015
192.827
192.439
191.828
190.955
189.756
188.125
185.9
182.827
178.576
174.113
178.375
181.724
184.315
186.304
187.815
188.938
189.735
190.247
190.497
190.499
190.251
189.742
188.947
187.826
186.316
184.328
181.737
178.388
174.125
170.634
174.848
178.319
181.121
183.346
185.078
186.389
187.33
187.939
188.239
188.241
187.945
187.339
186.401
185.094
183.364
181.142
178.341
174.87
170.656
167.916
172.073
175.594
178.515
180.889
182.773
184.219
185.268
185.951
186.289
186.292
185.959
185.281
184.236
182.795
180.915
178.544
175.625
172.106
167.95
165.839
169.943
173.48
176.467
178.934
180.919
182.459
183.584
184.322
184.688
184.691
184.332
183.601
182.481
180.948
178.968
176.506
173.523
169.988
165.886
164.329
168.391
171.93
174.953
177.476
179.525
181.126
182.304
183.078
183.464
183.468
183.09
182.323
181.153
179.56
177.518
175.001
171.983
168.448
164.389
163.343
167.376
170.913
173.953
176.507
178.594
180.232
181.441
182.239
182.638
182.642
182.253
181.464
180.264
178.634
176.556
174.009
170.975
167.443
163.414
162.855
166.874
170.408
173.456
176.024
178.128
179.783
181.008
181.817
182.221
182.226
181.832
181.033
179.818
178.171
176.077
173.516
170.476
166.947
162.933
192.849
195.618
196.792
197.429
197.834
198.111
198.305
198.438
198.521
198.562
198.562
198.521
198.438
198.305
198.111
197.834
197.43
196.792
195.617
192.846
184.451
188.45
190.914
192.522
193.629
194.415
194.975
195.363
195.608
195.727
195.727
195.609
195.365
194.978
194.418
193.632
192.525
190.916
188.452
184.45
178.572
182.821
185.893
188.118
189.749
190.949
191.823
192.435
192.824
193.014
193.015
192.827
192.439
191.828
190.955
189.756
188.125
185.9
182.827
178.576
174.114
178.375
181.724
184.315
186.304
187.815
188.938
189.735
190.247
190.497
190.499
190.251
189.742
188.947
187.826
186.316
184.328
181.737
178.388
174.125
170.634
174.848
178.319
181.121
183.346
185.078
186.389
187.33
187.939
188.239
188.241
187.945
187.339
186.401
185.094
183.364
181.141
178.341
174.87
170.656
167.916
172.073
175.594
178.515
180.889
182.773
184.219
185.268
185.951
186.289
186.292
185.959
185.281
184.236
182.795
180.915
178.544
175.625
172.106
167.95
165.839
169.943
173.48
176.467
178.934
180.919
182.459
183.584
184.322
184.688
184.691
184.332
183.601
182.481
180.948
178.968
176.506
173.523
169.988
165.886
164.329
168.391
171.93
174.953
177.476
179.525
181.126
182.303
183.078
183.464
183.468
183.09
182.323
181.153
179.559
177.517
175
171.983
168.448
164.389
163.343
167.376
170.913
173.953
176.507
178.593
180.232
181.441
182.239
182.637
182.642
182.253
181.464
180.263
178.634
176.556
174.008
170.975
167.443
163.414
162.855
166.873
170.408
173.456
176.024
178.127
179.783
181.008
181.817
182.221
182.226
181.832
181.033
179.817
178.171
176.077
173.516
170.476
166.947
162.933
192.846
195.616
196.791
197.428
197.833
198.11
198.304
198.437
198.521
198.562
198.562
198.522
198.438
198.306
198.112
197.835
197.431
196.794
195.619
192.848
184.448
188.448
190.911
192.52
193.627
194.414
194.974
195.362
195.607
195.727
195.727
195.61
195.366
194.979
194.419
193.634
192.527
190.918
188.454
184.453
178.568
182.818
185.89
188.116
189.747
190.947
191.822
192.434
192.824
193.014
193.015
192.827
192.44
191.829
190.957
189.757
188.127
185.902
182.83
178.578
174.11
178.372
181.721
184.313
186.302
187.814
188.937
189.735
190.247
190.498
190.499
190.251
189.743
188.948
187.827
186.318
184.33
181.739
178.39
174.128
170.631
174.845
178.317
181.119
183.344
185.077
186.388
187.329
187.939
188.239
188.241
187.945
187.34
186.403
185.095
183.366
181.144
178.343
174.872
170.658
167.913
172.07
175.591
178.513
180.887
182.772
184.218
185.267
185.951
186.289
186.292
185.96
185.282
184.238
182.797
180.917
178.546
175.628
172.108
167.953
165.836
169.94
173.478
176.465
178.933
180.918
182.457
183.584
184.322
184.688
184.692
184.333
183.602
182.482
180.949
178.97
176.508
173.525
169.99
165.888
164.326
168.388
171.928
174.951
177.474
179.523
181.124
182.303
183.078
183.464
183.468
183.091
182.324
181.154
179.561
177.519
175.002
171.985
168.45
164.392
163.34
167.373
170.91
173.951
176.506
178.592
180.23
181.441
182.239
182.637
182.642
182.254
181.465
180.265
178.635
176.557
174.01
170.977
167.445
163.416
162.852
166.871
170.406
173.453
176.022
178.126
179.782
181.007
181.816
182.221
182.226
181.832
181.033
179.819
178.173
176.078
173.518
170.478
166.95
162.936
104.258
112.782
121.329
129.916
138.566
147.31
156.195
165.282
174.633
184.171
104.127
112.382
120.643
128.913
137.193
145.488
153.789
162.066
170.216
177.933
103.994
111.979
119.951
127.9
135.811
143.661
151.409
158.981
166.233
172.902
103.866
111.589
119.284
126.928
134.492
141.938
149.21
156.22
162.838
168.877
103.747
111.229
118.67
126.038
133.295
140.395
147.276
153.856
160.029
165.664
103.643
110.913
118.132
125.262
132.26
139.076
145.649
151.907
157.763
163.127
103.556
110.649
117.685
124.621
131.411
138.005
144.345
150.367
156
161.177
103.488
110.446
117.341
124.129
130.764
137.195
143.367
149.224
154.705
159.754
103.443
110.308
117.106
123.795
130.327
136.651
142.716
148.467
153.853
158.824