/*--------------------------------*- C++ -*----------------------------------*\
| =========                 |                                                 |
| \\      /  F ield         | OpenFOAM: The Open Source CFD Toolbox           |
|  \\    /   O peration     | Version:  2.4.0                                 |
|   \\  /    A nd           | Web:      www.OpenFOAM.org                      |
|    \\/     M anipulation  |                                                 |
\*---------------------------------------------------------------------------*/
FoamFile
{
    version     2.0;
    format      ascii;
    class       volScalarField;
    location    "0.125";
    object      T;
}
// * * * * * * * * * * * * * * * * * * * * * * * * * * * * * * * * * * * * * //

dimensions      [0 0 0 1 0 0 0];

internalField   nonuniform List<scalar> 
1600
(
99.114
97.3552
95.6355
93.9811
92.4175
90.9697
89.6621
88.5182
87.5605
86.8106
86.2885
86.013
86.0013
86.2689
86.8295
87.6951
88.8757
90.3792
92.2116
94.3766
96.8763
99.7103
102.876
106.37
110.186
114.315
118.748
123.473
128.477
133.745
139.26
145.005
150.959
157.103
163.413
169.866
176.438
183.103
189.835
196.607
99.1145
97.3567
95.6381
93.9847
92.4221
90.9753
89.6687
88.5258
87.5692
86.8203
86.2994
86.025
86.0144
86.2832
86.8451
87.7119
88.8937
90.3984
92.2319
94.398
96.8986
99.7332
102.9
106.394
110.209
114.338
118.771
123.495
128.498
133.764
139.278
145.021
150.974
157.116
163.424
169.875
176.445
183.108
189.838
196.608
99.1156
97.3597
95.6432
93.9918
92.4312
90.9864
89.6818
88.5409
87.5864
86.8397
86.3208
86.0487
86.0404
86.3115
86.8757
87.7449
88.9291
90.4361
92.2717
94.4399
96.9423
99.7785
102.946
106.441
110.257
114.385
118.817
123.54
128.541
133.805
139.316
145.055
151.004
157.142
163.446
169.893
176.459
183.118
189.844
196.61
99.1171
97.3644
95.6509
94.0027
92.4451
91.0033
89.7018
88.564
87.6126
86.8689
86.3533
86.0844
86.0794
86.3538
86.9214
87.794
88.9815
90.4918
92.3305
94.5016
97.0065
99.8449
103.014
106.51
110.326
114.455
118.885
123.606
128.604
133.865
139.371
145.106
151.05
157.182
163.48
169.921
176.481
183.133
189.853
196.613
99.1193
97.3707
95.6615
94.0174
92.464
91.0264
89.729
88.5953
87.648
86.9085
86.3971
86.1324
86.1316
86.4104
86.9823
87.8591
89.0509
90.5652
92.4079
94.5826
97.0908
99.9319
103.103
106.601
110.417
114.545
118.974
123.693
128.688
133.944
139.445
145.174
151.111
157.235
163.525
169.958
176.51
183.154
189.865
196.617
99.122
97.3788
95.675
94.0363
92.4882
91.0558
89.7636
88.6351
87.6929
86.9586
86.4523
86.1928
86.1972
86.4811
87.0582
87.9402
89.1369
90.6561
92.5034
94.6824
97.1944
100.039
103.213
106.712
110.529
114.657
119.085
123.8
128.791
134.042
139.537
145.258
151.186
157.301
163.582
170.005
176.546
183.18
189.881
196.623
99.1253
97.3888
95.6917
94.0595
92.5179
91.0919
89.806
88.6838
87.7478
87.0197
86.5195
86.266
86.2764
86.5663
87.1493
88.0371
89.2395
90.7642
92.6167
94.8005
97.3168
100.165
103.342
106.843
110.661
114.789
119.215
123.927
128.913
134.158
139.645
145.358
151.276
157.381
163.65
170.06
176.589
183.211
189.899
196.629
99.1294
97.4008
95.7116
94.0873
92.5535
91.1351
89.8567
88.7419
87.8132
87.0922
86.599
86.3524
86.3697
86.6663
87.2558
88.15
89.3586
90.8892
92.7474
94.9364
97.4574
100.309
103.49
106.993
110.812
114.939
119.364
124.073
129.054
134.292
139.771
145.473
151.38
157.472
163.728
170.125
176.64
183.247
189.921
196.636
99.1341
97.4149
95.7352
94.1201
92.5954
91.1859
89.9163
88.81
87.8897
87.1768
86.6915
86.4527
86.4775
86.7814
87.378
88.2791
89.4943
91.0312
92.8952
95.0895
97.6153
100.471
103.655
107.16
110.981
115.108
119.53
124.236
129.212
134.442
139.912
145.603
151.498
157.576
163.817
170.198
176.697
183.288
189.946
196.644
99.1396
97.4314
95.7626
94.1583
92.6441
91.245
89.9854
88.8888
87.9779
87.2742
86.7978
86.5675
86.6004
86.9122
87.5164
88.4246
89.6466
91.1899
93.0598
95.2595
97.7899
100.65
103.837
107.344
111.166
115.292
119.712
124.414
129.385
134.608
140.068
145.747
151.628
157.691
163.916
170.28
176.76
183.333
189.973
196.653
99.146
97.4504
95.7942
94.2022
92.7001
91.3128
90.0646
88.9791
88.0789
87.3853
86.9186
86.6976
86.7394
87.0595
87.6715
88.5871
89.8159
91.3655
93.241
95.4457
97.9806
100.844
104.033
107.543
111.365
115.49
119.909
124.607
129.571
134.786
140.237
145.904
151.771
157.817
164.024
170.369
176.83
183.383
190.003
196.663
99.1533
97.4722
95.8303
94.2525
92.7642
91.3903
90.155
89.0819
88.1935
87.5112
87.0552
86.8441
86.8953
87.2241
87.8442
88.7671
90.0026
91.5581
93.4389
95.6481
98.1866
101.053
104.244
107.755
111.577
115.701
120.117
124.811
129.769
134.977
140.417
146.072
151.924
157.953
164.141
170.466
176.906
183.437
190.036
196.674
99.1616
97.497
95.8715
94.3097
92.837
91.4782
90.2574
89.1982
88.3229
87.653
87.2086
87.0083
87.0694
87.4072
88.0354
88.9657
90.2075
91.7685
93.6538
95.8667
98.408
101.276
104.469
107.979
111.8
115.923
120.335
125.025
129.977
135.177
140.607
146.249
152.086
158.098
164.267
170.57
176.988
183.496
190.071
196.686
99.171
97.5251
95.9181
94.3744
92.9193
91.5775
90.373
89.3292
88.4685
87.8122
87.3803
87.1916
87.2631
87.6102
88.2466
89.184
90.4318
91.9975
93.8866
96.1022
98.6451
101.514
104.706
108.216
112.035
116.155
120.563
125.248
130.194
135.385
140.804
146.434
152.256
158.251
164.399
170.681
177.075
183.558
190.108
196.698
99.1816
97.5568
95.9707
94.4474
93.0121
91.6893
90.503
89.4764
88.6318
87.9903
87.5721
87.3957
87.4782
87.8349
88.4796
89.4237
90.677
92.2468
94.1387
96.3559
98.8993
101.768
104.958
108.465
112.281
116.396
120.8
125.478
130.417
135.6
141.009
146.626
152.433
158.411
164.539
170.797
177.167
183.624
190.148
196.711
99.1935
97.5925
96.0298
94.5295
93.1164
91.815
90.6489
89.6413
88.8144
88.1893
87.7859
87.6227
87.7167
88.0834
88.7363
89.6871
90.9453
92.5185
94.4123
96.6299
99.1724
102.039
105.226
108.729
112.54
116.649
121.046
125.717
130.648
135.821
141.219
146.824
152.617
158.576
164.684
170.92
177.263
183.694
190.19
196.725
99.2069
97.6327
96.0963
94.6217
93.2334
91.9557
90.8122
89.8258
89.0184
88.4112
88.0238
87.8748
87.9812
88.3582
89.0195
89.9766
91.2394
92.8153
94.7101
96.927
99.4673
102.33
105.513
109.01
112.814
116.916
121.304
125.967
130.887
136.05
141.437
147.028
152.805
158.748
164.835
171.047
177.365
183.768
190.235
196.74
99.222
97.6777
96.1707
94.7249
93.3644
92.1132
90.9948
90.0318
89.246
88.6583
88.2885
88.1549
88.2743
88.6622
89.332
90.2956
91.5625
93.1406
95.0354
97.2506
99.7876
102.646
105.822
109.311
113.107
117.199
121.578
126.229
131.139
136.289
141.663
147.24
153.001
158.925
164.992
171.18
177.471
183.845
190.282
196.755
99.2388
97.728
96.2541
94.8403
93.5108
92.2892
91.1986
90.2615
89.4996
88.9335
88.5827
88.4657
88.5992
88.9986
89.6774
90.6473
91.9182
93.4979
95.3923
97.6048
100.137
102.989
106.158
109.638
113.423
117.505
121.871
126.51
131.405
136.542
141.9
147.461
153.205
159.11
165.155
171.32
177.583
183.926
190.331
196.772
99.2576
97.7844
96.3472
94.9693
93.6744
92.4856
91.426
90.5176
89.7819
89.2395
88.9097
88.8108
88.9595
89.3711
90.0593
91.0359
92.3107
93.8917
95.7849
97.9941
100.521
103.366
106.525
109.995
113.768
117.836
122.188
126.812
131.692
136.812
142.153
147.696
153.42
159.304
165.326
171.466
177.701
184.013
190.384
196.789
99.2786
97.8473
96.4512
95.1134
93.8569
92.7047
91.6794
90.8028
90.0961
89.5797
89.2728
89.1936
89.3589
89.7838
90.482
91.4655
92.7443
94.3265
96.2181
98.4233
100.944
103.78
106.929
110.386
114.146
118.199
122.536
127.142
132.004
137.104
142.426
147.948
153.65
159.511
165.508
171.62
177.826
184.105
190.44
196.807
99.3021
97.9176
96.5674
95.2741
94.0605
92.949
91.9617
91.1202
90.4456
89.9578
89.6761
89.6185
89.8017
90.2409
90.95
91.941
93.2239
94.8071
96.6969
98.8975
101.411
104.238
107.375
110.819
114.564
118.6
122.918
127.505
132.346
137.425
142.724
148.222
153.9
159.734
165.704
171.786
177.96
184.203
190.5
196.827
99.3284
97.9961
96.6971
95.4536
94.2876
93.2212
92.276
91.4735
90.8341
90.3778
90.1237
90.0897
90.2924
90.7474
91.4682
92.4672
93.7546
95.3389
97.2266
99.4222
101.928
104.744
107.869
111.298
115.026
119.044
123.342
127.907
132.725
137.78
143.053
148.524
154.174
159.979
165.917
171.966
178.104
184.31
190.566
196.849
99.3577
98.0837
96.842
95.6538
94.5408
93.5245
92.6261
91.8664
91.2659
90.8442
90.6203
90.6121
90.8362
91.3082
92.0419
93.0496
94.3419
95.9274
97.8129
100.003
102.501
105.306
108.417
111.83
115.54
119.538
123.813
128.354
133.147
138.174
143.418
148.86
154.477
160.249
166.152
172.164
178.263
184.427
190.639
196.873
99.3905
98.1818
97.0038
95.8774
94.8235
93.8627
93.0159
92.3035
91.7457
91.362
91.1711
91.191
91.4384
91.9289
92.6765
93.6938
94.9914
96.5784
98.4616
100.646
103.135
105.928
109.025
112.421
116.111
120.087
124.338
128.853
133.617
138.615
143.827
149.235
154.817
160.55
166.414
172.384
178.439
184.556
190.719
196.9
99.4272
98.2915
97.1849
96.1274
95.139
94.2398
93.4501
92.7898
92.2789
91.9366
91.7817
91.8322
92.1049
92.6155
93.3782
94.4057
95.7093
97.2979
99.1788
101.357
103.837
106.617
109.698
113.076
116.745
120.698
124.923
129.41
134.144
139.108
144.285
149.655
155.197
160.889
166.707
172.63
178.635
184.7
190.808
196.929
99.4684
98.4145
97.3877
96.4072
95.4918
94.6608
93.934
93.3309
92.8712
92.5741
92.4583
92.5419
92.8418
93.374
94.153
95.1918
96.5017
98.0922
99.9709
102.143
104.613
107.38
110.445
113.804
117.451
121.378
125.576
130.032
134.733
139.661
144.799
150.128
155.626
161.27
167.038
172.908
178.856
184.862
190.908
196.963
99.5147
98.5527
97.6155
96.7209
95.8867
95.1313
94.4737
93.9333
93.5294
93.2812
93.2076
93.3268
93.6559
94.2113
95.0077
96.0584
97.3753
98.968
100.844
103.01
105.47
108.224
111.271
114.61
118.233
122.134
126.303
130.727
135.391
140.281
145.377
150.66
156.109
161.701
167.413
173.222
179.107
185.045
191.021
197
99.567
98.7085
97.872
97.0736
96.3296
95.6578
95.0763
94.6042
94.2608
94.0653
94.0369
94.194
94.5542
95.1341
95.9489
97.0124
98.3366
99.9317
101.806
103.965
106.414
109.154
112.184
115.501
119.1
122.974
127.111
131.501
136.128
140.976
146.027
151.26
156.655
162.188
167.837
173.579
179.391
185.254
191.149
197.043
99.6263
98.8848
98.1619
97.4712
96.8278
96.2482
95.75
95.352
95.0737
94.9346
94.9542
95.1513
95.5441
96.1497
96.9838
98.0605
99.3924
100.99
102.862
105.015
107.453
110.178
113.19
116.485
120.059
123.904
128.009
132.363
136.95
141.754
146.756
151.936
157.272
162.741
168.32
173.986
179.717
185.492
191.296
197.092
99.6938
99.0855
98.4911
97.9215
97.3899
96.9117
96.5042
96.1862
95.9775
95.898
95.9679
96.2069
96.6335
97.2657
98.1195
99.2098
100.55
102.15
104.02
106.166
108.593
111.303
114.296
117.569
121.117
124.933
129.005
133.321
137.867
142.624
147.575
152.697
157.97
163.368
168.87
174.451
180.089
185.767
191.464
197.149
99.7712
99.3155
98.8672
98.4339
98.0266
97.6597
97.3504
97.1178
96.9824
96.9653
97.0874
97.3693
97.8305
98.4895
99.3633
100.467
101.815
103.418
105.285
107.424
109.84
112.536
115.51
118.76
122.282
126.067
130.105
134.384
138.886
143.596
148.493
153.555
158.759
164.082
169.498
174.984
180.519
186.083
191.658
197.215
99.8611
99.5814
99.3004
99.0208
98.7513
98.5057
98.3015
98.1591
98.1002
98.1472
98.3224
98.6475
99.1432
99.8288
100.722
101.839
103.195
104.8
106.665
108.797
111.202
113.882
116.837
120.065
123.561
127.316
131.32
135.56
140.019
144.68
149.521
154.52
159.653
164.894
170.218
175.6
181.016
186.451
191.883
197.292
99.9667
99.8928
99.8045
99.6983
99.5809
99.4661
99.3732
99.3243
99.3435
99.455
99.6829
100.051
100.58
101.291
102.203
103.333
104.695
106.302
108.164
110.289
112.683
115.348
118.285
121.491
124.961
128.686
132.657
136.858
141.275
145.886
150.672
155.607
160.666
165.821
171.046
176.313
181.598
186.883
192.15
197.385
100.093
100.264
100.399
100.488
100.537
100.561
100.583
100.629
100.726
100.901
101.179
101.588
102.148
102.884
103.813
104.954
106.322
107.93
109.789
111.907
114.29
116.941
119.86
123.044
126.489
130.186
134.124
138.289
142.664
147.228
151.959
156.831
161.815
166.883
172.004
177.147
182.286
187.4
192.471
197.499
100.249
100.716
101.113
101.42
101.647
101.815
101.953
102.091
102.262
102.496
102.822
103.267
103.857
104.613
105.558
106.708
108.081
109.689
111.544
113.655
116.027
118.664
121.566
124.731
128.152
131.823
135.731
139.862
144.198
148.718
153.397
158.209
163.122
168.104
173.118
178.131
183.109
188.03
192.867
197.641
100.45
101.288
101.988
102.534
102.945
103.256
103.504
103.729
103.967
104.254
104.621
105.098
105.712
106.486
107.442
108.6
109.975
111.583
113.434
115.538
117.9
120.524
123.411
126.557
129.959
133.606
137.487
141.588
145.89
150.371
155.005
159.763
164.611
169.512
174.425
179.307
184.113
188.814
193.364
197.82
100.728
102.044
103.09
103.882
104.472
104.914
105.26
105.559
105.854
106.184
106.584
107.086
107.718
108.506
109.471
110.633
112.01
113.617
115.464
117.561
119.914
122.527
125.401
128.532
131.916
135.544
139.404
143.481
147.755
152.204
156.801
161.515
166.31
171.144
175.969
180.731
185.367
189.827
194.023
198.065
101.194
103.103
104.499
105.522
106.268
106.817
107.24
107.596
107.932
108.294
108.718
109.237
109.882
110.678
111.648
112.813
114.191
115.795
117.638
119.73
122.076
124.681
127.545
130.665
134.037
137.651
141.496
145.555
149.809
154.236
158.806
163.489
168.246
173.032
177.792
182.465
186.962
191.195
194.992
198.488
102.052
104.712
106.394
107.573
108.413
109.023
109.486
109.869
110.226
110.603
111.038
111.565
112.215
113.014
113.986
115.152
116.529
118.131
119.972
122.06
124.402
127.002
129.86
132.974
136.338
139.944
143.78
147.83
152.073
156.487
161.043
165.709
170.443
175.201
179.924
184.546
188.963
193.067
196.585
199.522
)
;

boundaryField
{
    carasuperior
    {
        type            fixedGradient;
        gradient        uniform 100;
    }
    lateralizquierda
    {
        type            fixedValue;
        value           uniform 100;
    }
    lateralderecha
    {
        type            fixedValue;
        value           uniform 200;
    }
    carainferior
    {
        type            zeroGradient;
    }
    frontAndBack
    {
        type            empty;
    }
}


// ************************************************************************* //
