/*--------------------------------*- C++ -*----------------------------------*\
| =========                 |                                                 |
| \\      /  F ield         | OpenFOAM: The Open Source CFD Toolbox           |
|  \\    /   O peration     | Version:  2.4.0                                 |
|   \\  /    A nd           | Web:      www.OpenFOAM.org                      |
|    \\/     M anipulation  |                                                 |
\*---------------------------------------------------------------------------*/
FoamFile
{
    version     2.0;
    format      ascii;
    class       surfaceScalarField;
    location    "4.1";
    object      phi;
}
// * * * * * * * * * * * * * * * * * * * * * * * * * * * * * * * * * * * * * //

dimensions      [0 3 -1 0 0 0 0];

internalField   nonuniform List<scalar> 
12720
(
1.54625e-07
-1.55749e-07
-1.10445e-10
-5.40693e-07
6.93612e-07
1.70575e-09
-2.06845e-06
1.52518e-06
2.57904e-09
-4.1815e-06
2.10973e-06
3.31814e-09
-6.64336e-06
2.4581e-06
3.75985e-09
-9.25914e-06
2.61183e-06
3.94297e-09
-1.18684e-05
2.60528e-06
3.95566e-09
-1.4332e-05
2.45986e-06
3.80097e-09
-1.65287e-05
2.1932e-06
3.45256e-09
1.83415e-06
2.88685e-09
-1.83657e-05
-7.25619e-07
5.71347e-07
-1.47699e-09
-3.29654e-06
3.26414e-06
3.91037e-10
-7.50206e-06
5.73221e-06
-1.51455e-09
-1.29177e-05
7.52774e-06
-2.39554e-09
-1.90944e-05
8.63771e-06
-2.83684e-09
-2.56129e-05
9.13335e-06
-3.11429e-09
-3.20926e-05
9.08817e-06
-3.12323e-09
-3.81908e-05
8.56094e-06
-2.90325e-09
-4.36118e-05
7.61673e-06
-2.54608e-09
6.36402e-06
-2.19645e-09
-4.81394e-05
-1.69396e-06
2.26783e-06
-2.51681e-09
-6.13578e-06
7.7037e-06
2.25884e-09
-1.27297e-05
1.2326e-05
1.00285e-10
-2.08795e-05
1.56776e-05
-9.72659e-11
-2.9998e-05
1.77561e-05
1.16183e-10
-3.95261e-05
1.86614e-05
1.09265e-10
-4.89355e-05
1.84974e-05
1.21673e-10
-5.7732e-05
1.73573e-05
1.81408e-10
-6.54803e-05
1.53648e-05
2.50472e-10
1.27438e-05
1.54057e-10
-7.18602e-05
-2.49015e-06
4.76163e-06
-3.65428e-09
-8.51702e-06
1.37274e-05
3.18741e-09
-1.70944e-05
2.09034e-05
-2.07757e-11
-2.7437e-05
2.60205e-05
-2.89126e-10
-3.88432e-05
2.91622e-05
8.09973e-11
-5.06567e-05
3.04747e-05
1.24415e-10
-6.22429e-05
3.00835e-05
1.66225e-10
-7.29856e-05
2.80997e-05
2.73635e-10
-8.23169e-05
2.46956e-05
4.75153e-10
2.0226e-05
4.19081e-10
-8.97996e-05
-3.0537e-06
7.8198e-06
-4.46915e-09
-1.02401e-05
2.09101e-05
3.74956e-09
-2.0269e-05
3.09328e-05
-4.3798e-10
-3.21963e-05
3.79488e-05
-9.35427e-10
-4.52309e-05
4.21973e-05
-5.675e-10
-5.86486e-05
4.3893e-05
-5.41148e-10
-7.17371e-05
4.31725e-05
-4.83021e-10
-8.37724e-05
4.01353e-05
-2.84936e-10
-9.40401e-05
3.49631e-05
2.98138e-10
2.81175e-05
5.88006e-10
-0.000101932
-3.36007e-06
1.11848e-05
-4.88054e-09
-1.11984e-05
2.87442e-05
4.14896e-09
-2.20507e-05
4.17856e-05
-5.72442e-10
-3.48744e-05
5.07737e-05
-1.18915e-09
-4.88246e-05
5.61483e-05
-8.26059e-10
-6.31405e-05
5.82097e-05
-8.19733e-10
-7.70617e-05
5.70945e-05
-8.00909e-10
-8.97738e-05
5.2848e-05
-6.4471e-10
-0.000100394
4.55822e-05
5.15586e-10
3.57565e-05
1.63947e-09
-0.000108034
-3.39992e-06
1.45894e-05
-4.71935e-09
-1.1341e-05
3.66811e-05
4.252e-09
-2.23248e-05
5.27701e-05
-6.12879e-10
-3.52809e-05
6.37311e-05
-1.30093e-09
-4.93509e-05
7.02193e-05
-9.92259e-10
-6.37719e-05
7.26317e-05
-1.02818e-09
-7.77759e-05
7.10995e-05
-1.13794e-09
-9.0498e-05
6.55716e-05
-1.36294e-09
-0.000100889
5.59725e-05
6.77294e-10
4.24853e-05
4.16722e-09
-0.000107622
-3.17968e-06
1.77736e-05
-4.50906e-09
-1.06739e-05
4.41712e-05
4.08847e-09
-2.10761e-05
6.31728e-05
-5.58315e-10
-3.33486e-05
7.60048e-05
-1.26404e-09
-4.66489e-05
8.35207e-05
-1.03385e-09
-6.02371e-05
8.62209e-05
-1.0504e-09
-7.33801e-05
8.42437e-05
-1.18902e-09
-8.52355e-05
7.74291e-05
-2.10635e-09
-9.46749e-05
6.541e-05
2.00324e-09
4.75498e-05
1.45083e-08
-9.97539e-05
-2.73045e-06
2.05078e-05
-3.75043e-09
-9.2821e-06
5.07191e-05
3.70892e-09
-1.84343e-05
7.23254e-05
-3.86904e-10
-2.92168e-05
8.67884e-05
-1.05822e-09
-4.08014e-05
9.51063e-05
-9.70027e-10
-5.24541e-05
9.78746e-05
-1.04882e-09
-6.34763e-05
9.52673e-05
-1.40682e-09
-7.31013e-05
8.7059e-05
-4.91892e-09
-8.03416e-05
7.26517e-05
-1.46655e-09
4.98526e-05
3.25699e-08
-8.26769e-05
-2.1167e-06
-2.71964e-09
2.26272e-05
-7.35537e-06
3.20443e-09
5.59546e-05
-1.47332e-05
-7.16577e-11
7.97033e-05
-2.33515e-05
-6.04519e-10
9.54073e-05
-3.23517e-05
-6.40266e-10
0.000104107
-4.09029e-05
-9.35276e-10
0.000106427
-4.8182e-05
-1.98184e-09
0.000102548
-5.32682e-05
-1.22335e-08
9.21575e-05
-5.50496e-05
-2.86162e-08
7.44617e-05
9.83003e-09
-5.23531e-05
4.71463e-05
1.56362e-07
-1.56453e-07
-1.95948e-11
-5.41178e-07
6.99256e-07
-1.15784e-11
-2.06913e-06
1.53054e-06
-1.03282e-11
-4.1816e-06
2.11579e-06
-9.02665e-12
-6.6432e-06
2.46537e-06
-7.04996e-12
-9.25898e-06
2.61972e-06
-5.51785e-12
-1.18683e-05
2.6133e-06
-4.34414e-12
-1.43322e-05
2.46764e-06
-3.42004e-12
-1.65291e-05
2.20037e-06
-2.69518e-12
1.84015e-06
-2.13142e-12
-1.83663e-05
-7.3019e-07
5.7227e-07
-1.14345e-11
-3.30208e-06
3.27155e-06
-9.899e-12
-7.507e-06
5.73395e-06
-1.06829e-11
-1.29211e-05
7.52749e-06
-9.56062e-12
-1.90961e-05
8.63754e-06
-7.69313e-12
-2.56129e-05
9.13348e-06
-6.10578e-12
-3.20915e-05
9.08872e-06
-4.82825e-12
-3.81888e-05
8.56207e-06
-3.8064e-12
-4.36094e-05
7.61847e-06
-3.00322e-12
6.36562e-06
-2.37792e-12
-4.81371e-05
-1.69934e-06
2.2691e-06
-1.00825e-11
-6.13649e-06
7.71096e-06
-1.05122e-11
-1.27305e-05
1.2328e-05
-1.01094e-11
-2.08805e-05
1.56774e-05
-8.69898e-12
-2.99985e-05
1.77557e-05
-7.1527e-12
-3.95261e-05
1.86612e-05
-5.79407e-12
-4.89351e-05
1.84978e-05
-4.65747e-12
-5.77314e-05
1.73585e-05
-3.71741e-12
-6.54799e-05
1.53673e-05
-2.95854e-12
1.2746e-05
-2.35781e-12
-7.18602e-05
-2.49698e-06
4.76243e-06
-8.73964e-12
-8.51586e-06
1.3733e-05
-9.27647e-12
-1.70932e-05
2.09053e-05
-8.52157e-12
-2.74367e-05
2.60207e-05
-7.42902e-12
-3.88431e-05
2.91621e-05
-6.2836e-12
-5.06566e-05
3.04749e-05
-5.22608e-12
-6.22428e-05
3.00842e-05
-4.29539e-12
-7.29854e-05
2.81014e-05
-3.48993e-12
-8.23173e-05
2.46997e-05
-2.81599e-12
2.023e-05
-2.27021e-12
-8.98009e-05
-3.06222e-06
7.82019e-06
-6.76019e-12
-1.02387e-05
2.09132e-05
-7.35366e-12
-2.02674e-05
3.09336e-05
-6.86424e-12
-3.21959e-05
3.79483e-05
-6.1117e-12
-4.52309e-05
4.21965e-05
-5.30378e-12
-5.86487e-05
4.38921e-05
-4.52278e-12
-7.1737e-05
4.3172e-05
-3.79666e-12
-8.37719e-05
4.01361e-05
-3.13761e-12
-9.40405e-05
3.49686e-05
-2.56663e-12
2.81248e-05
-2.09409e-12
-0.000101935
-3.36948e-06
1.11848e-05
-5.41439e-12
-1.11968e-05
2.87448e-05
-5.76581e-12
-2.2049e-05
4.17852e-05
-5.42994e-12
-3.48743e-05
5.07724e-05
-4.8949e-12
-4.88251e-05
5.61465e-05
-4.33259e-12
-6.31414e-05
5.82076e-05
-3.77864e-12
-7.70623e-05
5.70921e-05
-3.23569e-12
-8.97734e-05
5.28465e-05
-2.71941e-12
-0.000100394
4.55894e-05
-2.25966e-12
3.57711e-05
-1.87414e-12
-0.000108038
-3.40934e-06
1.45894e-05
-4.82778e-12
-1.13395e-05
3.66791e-05
-4.52525e-12
-2.23234e-05
5.27685e-05
-4.24827e-12
-3.52814e-05
6.37291e-05
-3.87925e-12
-4.93524e-05
7.02166e-05
-3.48553e-12
-6.37743e-05
7.26284e-05
-3.0974e-12
-7.77782e-05
7.10949e-05
-2.70553e-12
-9.04981e-05
6.55651e-05
-2.32263e-12
-0.000100888
5.59799e-05
-1.98143e-12
4.25178e-05
-1.70527e-12
-0.00010763
-3.18849e-06
1.77734e-05
-3.29018e-12
-1.06725e-05
4.41672e-05
-3.49293e-12
-2.1075e-05
6.31704e-05
-3.33812e-12
-3.33497e-05
7.60026e-05
-3.0718e-12
-4.66517e-05
8.35175e-05
-2.78945e-12
-6.02412e-05
8.62168e-05
-2.52165e-12
-7.33846e-05
8.42371e-05
-2.25575e-12
-8.52357e-05
7.74141e-05
-1.99591e-12
-9.46623e-05
6.54085e-05
-1.77209e-12
4.76327e-05
-1.62454e-12
-9.97627e-05
-2.73788e-06
2.05075e-05
-2.49112e-12
-9.28077e-06
5.07138e-05
-2.68956e-12
-1.84335e-05
7.23228e-05
-2.60493e-12
-2.92186e-05
8.67867e-05
-2.42462e-12
-4.08062e-05
9.51041e-05
-2.22761e-12
-5.24625e-05
9.78721e-05
-2.0507e-12
-6.34908e-05
9.5264e-05
-1.88789e-12
-7.31212e-05
8.70396e-05
-1.72159e-12
-8.03177e-05
7.26035e-05
-1.56929e-12
4.99704e-05
-1.52378e-12
-8.26228e-05
-2.12211e-06
-1.91626e-12
2.26269e-05
-7.35375e-06
-2.06944e-12
5.59487e-05
-1.47318e-05
-2.0308e-12
7.97008e-05
-2.33523e-05
-1.91659e-12
9.54066e-05
-3.23564e-05
-1.78135e-12
0.000104108
-4.09148e-05
-1.66856e-12
0.00010643
-4.82108e-05
-1.57413e-12
0.000102558
-5.33568e-05
-1.44087e-12
9.21733e-05
-5.5191e-05
-1.2453e-12
7.44091e-05
-1.24628e-12
-5.21241e-05
4.69134e-05
1.56444e-07
-1.56371e-07
-9.28713e-11
-5.41114e-07
6.99308e-07
-1.76281e-09
-2.06909e-06
1.53057e-06
-2.6052e-09
-4.18157e-06
2.11581e-06
-3.3352e-09
-6.64318e-06
2.46538e-06
-3.77152e-09
-9.25896e-06
2.61973e-06
-3.95142e-09
-1.18683e-05
2.6133e-06
-3.96206e-09
-1.43321e-05
2.46764e-06
-3.80592e-09
-1.65291e-05
2.20037e-06
-3.45642e-09
1.84015e-06
-2.88989e-09
-1.83663e-05
-7.30138e-07
5.72333e-07
1.42035e-09
-3.30202e-06
3.27161e-06
-4.24241e-10
-7.50695e-06
5.73399e-06
1.49123e-09
-1.2921e-05
7.52751e-06
2.37852e-09
-1.90961e-05
8.63755e-06
2.82452e-09
-2.56129e-05
9.13349e-06
3.10511e-09
-3.20915e-05
9.08872e-06
3.11622e-09
-3.81888e-05
8.56207e-06
2.89783e-09
-4.36094e-05
7.61847e-06
2.54185e-09
6.36562e-06
2.19313e-09
-4.81371e-05
-1.69931e-06
2.26914e-06
2.49097e-09
-6.13644e-06
7.71101e-06
-2.28184e-09
-1.27304e-05
1.23281e-05
-1.18872e-10
-2.08804e-05
1.56774e-05
8.28181e-11
-2.99985e-05
1.77557e-05
-1.27236e-10
-3.95261e-05
1.86612e-05
-1.17833e-10
-4.89351e-05
1.84978e-05
-1.28376e-10
-5.77314e-05
1.73586e-05
-1.86678e-10
-6.54799e-05
1.53673e-05
-2.54631e-10
1.2746e-05
-1.57356e-10
-7.18602e-05
-2.49696e-06
4.76245e-06
3.63773e-09
-8.51583e-06
1.37331e-05
-3.20391e-09
-1.70931e-05
2.09054e-05
6.64125e-12
-2.74367e-05
2.60207e-05
2.77482e-10
-3.88431e-05
2.91621e-05
-9.03858e-11
-5.06566e-05
3.04749e-05
-1.32012e-10
-6.22428e-05
3.00842e-05
-1.72366e-10
-7.29854e-05
2.81014e-05
-2.78584e-10
-8.23173e-05
2.46997e-05
-4.79132e-10
2.023e-05
-4.22284e-10
-8.98009e-05
-3.06222e-06
7.8202e-06
4.45803e-09
-1.02387e-05
2.09133e-05
-3.76137e-09
-2.02674e-05
3.09336e-05
4.27281e-10
-3.21959e-05
3.79484e-05
9.26188e-10
-4.52308e-05
4.21965e-05
5.59752e-10
-5.86487e-05
4.38922e-05
5.34651e-10
-7.1737e-05
4.3172e-05
4.77609e-10
-8.37719e-05
4.01361e-05
2.80467e-10
-9.40405e-05
3.49686e-05
-3.018e-10
2.81248e-05
-5.90993e-10
-0.000101935
-3.36947e-06
1.11848e-05
4.87293e-09
-1.11968e-05
2.87448e-05
-4.15754e-09
-2.2049e-05
4.17852e-05
5.64318e-10
-3.48743e-05
5.07724e-05
1.1819e-09
-4.88251e-05
5.61465e-05
8.19816e-10
-6.31414e-05
5.82076e-05
8.14352e-10
-7.70623e-05
5.70921e-05
7.96311e-10
-8.97733e-05
5.28465e-05
6.40821e-10
-0.000100394
4.55894e-05
-5.18843e-10
3.57711e-05
-1.64217e-09
-0.000108038
-3.40934e-06
1.45894e-05
4.70866e-09
-1.13394e-05
3.66792e-05
-4.25831e-09
-2.23234e-05
5.27685e-05
6.06672e-10
-3.52814e-05
6.37291e-05
1.29529e-09
-4.93524e-05
7.02166e-05
9.87285e-10
-6.37743e-05
7.26284e-05
1.02379e-09
-7.77781e-05
7.10949e-05
1.13409e-09
-9.04981e-05
6.55651e-05
1.35958e-09
-0.000100888
5.59799e-05
-6.80202e-10
4.25178e-05
-4.16969e-09
-0.00010763
-3.18849e-06
1.77734e-05
4.50475e-09
-1.06725e-05
4.41672e-05
-4.09336e-09
-2.1075e-05
6.31705e-05
5.53554e-10
-3.33497e-05
7.60026e-05
1.25966e-09
-4.66517e-05
8.35176e-05
1.02991e-09
-6.02412e-05
8.62168e-05
1.04683e-09
-7.33846e-05
8.42371e-05
1.18579e-09
-8.52357e-05
7.74141e-05
2.10341e-09
-9.46623e-05
6.54085e-05
-2.0059e-09
4.76327e-05
-1.45106e-08
-9.97627e-05
-2.73787e-06
2.05075e-05
3.74681e-09
-9.28076e-06
5.07138e-05
-3.71274e-09
-1.84335e-05
7.23228e-05
3.83223e-10
-2.92186e-05
8.67867e-05
1.0548e-09
-4.08061e-05
9.51041e-05
9.66892e-10
-5.24625e-05
9.78721e-05
1.0459e-09
-6.34908e-05
9.5264e-05
1.40406e-09
-7.31212e-05
8.70396e-05
4.91628e-09
-8.03177e-05
7.26035e-05
1.46408e-09
4.99704e-05
-3.25719e-08
-8.26228e-05
-2.12211e-06
2.71671e-09
2.26269e-05
-7.35375e-06
-3.20742e-09
5.59487e-05
-1.47318e-05
6.87908e-11
7.97008e-05
-2.33523e-05
6.01837e-10
9.54066e-05
-3.23564e-05
6.37752e-10
0.000104108
-4.09148e-05
9.32854e-10
0.00010643
-4.82108e-05
1.97943e-09
0.000102558
-5.33568e-05
1.22311e-08
9.21733e-05
-5.5191e-05
2.86138e-08
7.44091e-05
-9.83196e-09
-5.21241e-05
4.69134e-05
1.55139e-07
-1.55233e-07
-5.4045e-07
6.93826e-07
-2.06832e-06
1.52527e-06
-4.18143e-06
2.10977e-06
-6.64332e-06
2.45811e-06
-9.25911e-06
2.61184e-06
-1.18683e-05
2.60528e-06
-1.4332e-05
2.45986e-06
-1.65287e-05
2.1932e-06
1.83415e-06
-1.83657e-05
-7.25406e-07
5.71592e-07
-3.29634e-06
3.26434e-06
-7.50192e-06
5.73233e-06
-1.29176e-05
7.52781e-06
-1.90944e-05
8.63774e-06
-2.56128e-05
9.13337e-06
-3.20926e-05
9.08818e-06
-3.81908e-05
8.56095e-06
-4.36118e-05
7.61673e-06
6.36402e-06
-4.81394e-05
-1.69388e-06
2.26796e-06
-6.13566e-06
7.70384e-06
-1.27296e-05
1.23261e-05
-2.08794e-05
1.56777e-05
-2.99979e-05
1.77561e-05
-3.9526e-05
1.86614e-05
-4.89354e-05
1.84974e-05
-5.7732e-05
1.73573e-05
-6.54803e-05
1.53648e-05
1.27438e-05
-7.18602e-05
-2.49011e-06
4.76171e-06
-8.51696e-06
1.37275e-05
-1.70943e-05
2.09035e-05
-2.74369e-05
2.60206e-05
-3.88431e-05
2.91622e-05
-5.06566e-05
3.04748e-05
-6.22429e-05
3.00836e-05
-7.29856e-05
2.80997e-05
-8.23169e-05
2.46956e-05
2.0226e-05
-8.97996e-05
-3.05368e-06
7.81985e-06
-1.02401e-05
2.09101e-05
-2.0269e-05
3.09328e-05
-3.21963e-05
3.79488e-05
-4.52309e-05
4.21973e-05
-5.86486e-05
4.3893e-05
-7.17371e-05
4.31725e-05
-8.37724e-05
4.01353e-05
-9.40401e-05
3.49631e-05
2.81176e-05
-0.000101932
-3.36007e-06
1.11848e-05
-1.11984e-05
2.87443e-05
-2.20507e-05
4.17857e-05
-3.48744e-05
5.07737e-05
-4.88246e-05
5.61484e-05
-6.31405e-05
5.82097e-05
-7.70617e-05
5.70945e-05
-8.97738e-05
5.28481e-05
-0.000100393
4.55822e-05
3.57565e-05
-0.000108034
-3.39992e-06
1.45894e-05
-1.1341e-05
3.66811e-05
-2.23248e-05
5.27701e-05
-3.52809e-05
6.37311e-05
-4.93509e-05
7.02193e-05
-6.37719e-05
7.26317e-05
-7.77758e-05
7.10995e-05
-9.0498e-05
6.55716e-05
-0.000100889
5.59725e-05
4.24853e-05
-0.000107622
-3.17968e-06
1.77736e-05
-1.06739e-05
4.41712e-05
-2.10761e-05
6.31728e-05
-3.33486e-05
7.60049e-05
-4.66489e-05
8.35207e-05
-6.02371e-05
8.6221e-05
-7.338e-05
8.42437e-05
-8.52355e-05
7.74291e-05
-9.46749e-05
6.541e-05
4.75498e-05
-9.97539e-05
-2.73045e-06
2.05078e-05
-9.2821e-06
5.07192e-05
-1.84343e-05
7.23254e-05
-2.92168e-05
8.67884e-05
-4.08014e-05
9.51063e-05
-5.2454e-05
9.78747e-05
-6.34763e-05
9.52674e-05
-7.31013e-05
8.70591e-05
-8.03416e-05
7.26517e-05
4.98526e-05
-8.26769e-05
-2.1167e-06
2.26272e-05
-7.35536e-06
5.59546e-05
-1.47332e-05
7.97033e-05
-2.33515e-05
9.54073e-05
-3.23517e-05
0.000104107
-4.09029e-05
0.000106427
-4.8182e-05
0.000102548
-5.32682e-05
9.21575e-05
-5.50496e-05
7.44617e-05
-5.23531e-05
4.71463e-05
-1.98015e-05
1.43356e-06
2.17289e-09
-2.08571e-05
1.05416e-06
1.52178e-09
-2.15956e-05
7.37453e-07
1.00893e-09
-2.20941e-05
4.97871e-07
6.38317e-10
-2.24261e-05
3.31611e-07
3.9301e-10
-2.26529e-05
2.26571e-07
2.45305e-10
-2.28225e-05
1.69365e-07
1.68598e-10
-2.29713e-05
1.48745e-07
1.42715e-10
-2.31278e-05
1.56302e-07
1.53976e-10
-2.33136e-05
1.85629e-07
1.93678e-10
-2.35446e-05
2.30713e-07
2.55694e-10
-2.38289e-05
2.83931e-07
3.33571e-10
-2.41631e-05
3.33853e-07
4.1752e-10
-2.45267e-05
3.63114e-07
4.9129e-10
-2.48742e-05
3.46928e-07
5.27939e-10
-2.5128e-05
2.53312e-07
4.83926e-10
-2.5176e-05
4.7735e-08
3.04701e-10
-2.48733e-05
-3.02684e-07
-4.34703e-11
-2.40669e-05
-8.0574e-07
-6.56199e-10
-1.43588e-06
-1.57898e-09
-2.26294e-05
-5.16851e-05
4.98112e-06
-1.94296e-09
-5.43087e-05
3.67938e-06
-1.62264e-09
-5.61645e-05
2.59457e-06
-1.28446e-09
-5.74372e-05
1.77158e-06
-9.82614e-10
-5.83007e-05
1.19586e-06
-7.3631e-10
-5.88999e-05
8.26263e-07
-5.55184e-10
-5.93475e-05
6.17426e-07
-4.3888e-10
-5.97289e-05
5.30492e-07
-3.79998e-10
-6.01074e-05
5.35228e-07
-3.68129e-10
-6.05288e-05
6.07397e-07
-3.9106e-10
-6.10214e-05
7.23762e-07
-4.33925e-10
-6.1593e-05
8.5597e-07
-4.77063e-10
-6.22227e-05
9.6406e-07
-4.93657e-10
-6.28497e-05
9.90556e-07
-4.48168e-10
-6.33594e-05
8.56939e-07
-2.9686e-10
-6.35718e-05
4.65725e-07
6.07247e-12
-6.32375e-05
-2.87103e-07
4.90591e-10
-6.20551e-05
-1.48614e-06
1.14558e-09
-5.97111e-05
-3.15172e-06
1.93028e-09
-5.18923e-06
2.66845e-09
-5.59604e-05
-7.67541e-05
9.87523e-06
-2.39832e-10
-8.0294e-05
7.21972e-06
-4.17696e-10
-8.27459e-05
5.04697e-06
-4.58575e-10
-8.43983e-05
3.42435e-06
-4.36522e-10
-8.5504e-05
2.30192e-06
-3.73574e-10
-8.6262e-05
1.58458e-06
-2.98857e-10
-8.68202e-05
1.17586e-06
-2.31035e-10
-8.72856e-05
9.96125e-07
-1.77269e-10
-8.77347e-05
9.84456e-07
-1.38523e-10
-8.82197e-05
1.09246e-06
-1.12236e-10
-8.87702e-05
1.2744e-06
-9.39278e-11
-8.93899e-05
1.47575e-06
-7.79024e-11
-9.00472e-05
1.62142e-06
-5.73654e-11
-9.06616e-05
1.60493e-06
-2.39104e-11
-9.10863e-05
1.28163e-06
3.36605e-11
-9.10921e-05
4.71376e-07
1.24743e-10
-9.03589e-05
-1.02054e-06
2.44155e-10
-8.84892e-05
-3.3562e-06
3.84042e-10
-8.5057e-05
-6.58444e-06
5.2819e-10
-1.05351e-05
4.49496e-10
-7.97116e-05
-9.52878e-05
1.53638e-05
-3.81613e-10
-9.90501e-05
1.09827e-05
-6.14976e-10
-0.000101518
7.51582e-06
-6.11586e-10
-0.000103099
5.00581e-06
-5.44307e-10
-0.00010411
3.31332e-06
-4.33802e-10
-0.000104776
2.25103e-06
-3.21474e-10
-0.00010525
1.64997e-06
-2.28205e-10
-0.000105634
1.38004e-06
-1.57433e-10
-0.000105996
1.3466e-06
-1.07034e-10
-0.000106381
1.47749e-06
-7.2999e-11
-0.000106813
1.70684e-06
-5.11307e-11
-0.000107295
1.95788e-06
-3.76219e-11
-0.000107799
2.12533e-06
-2.88736e-11
-0.000108253
2.05857e-06
-1.92288e-11
-0.00010852
1.54876e-06
5.49588e-12
-0.000108375
3.26634e-07
6.09484e-11
-0.000107482
-1.91395e-06
1.30053e-10
-0.000105383
-5.45572e-06
2.60369e-10
-0.000101533
-1.04347e-05
5.09826e-10
-1.66521e-05
4.50317e-10
-9.54166e-05
-0.000107239
2.06716e-05
-1.0363e-09
-0.00011049
1.42351e-05
-1.1624e-09
-0.000112376
9.4028e-06
-9.4317e-10
-0.00011344
6.07032e-06
-7.3823e-10
-0.000114039
3.9132e-06
-5.20503e-10
-0.000114389
2.60119e-06
-3.426e-10
-0.000114613
1.87364e-06
-2.19227e-10
-0.00011478
1.54754e-06
-1.39455e-10
-0.000114933
1.49924e-06
-9.14237e-11
-0.000115096
1.64051e-06
-6.58327e-11
-0.000115284
1.8951e-06
-5.62225e-11
-0.000115502
2.17627e-06
-5.83271e-11
-0.000115741
2.36407e-06
-6.90084e-11
-0.000115964
2.28192e-06
-8.19836e-11
-0.000116089
1.6741e-06
-7.27337e-11
-0.000115952
1.89023e-07
-6.75703e-12
-0.000115258
-2.60779e-06
6.27634e-11
-0.00011353
-7.18379e-06
2.56583e-10
-0.000110084
-1.3882e-05
8.97805e-10
-2.26212e-05
1.28873e-09
-0.000104116
-0.0001123
2.49396e-05
-2.20976e-09
-0.000114247
1.61844e-05
-1.88853e-09
-0.000114967
1.01237e-05
-1.18564e-09
-0.000115132
6.2361e-06
-7.94593e-10
-0.000115085
3.86645e-06
-4.68206e-10
-0.000114975
2.49165e-06
-2.47416e-10
-0.000114856
1.75508e-06
-1.22868e-10
-0.000114741
1.43254e-06
-5.67549e-11
-0.000114628
1.38617e-06
-2.44613e-11
-0.000114514
1.52598e-06
-1.20962e-11
-0.000114398
1.77992e-06
-1.27958e-11
-0.000114291
2.06849e-06
-2.41399e-11
-0.000114206
2.27959e-06
-4.6319e-11
-0.000114164
2.24024e-06
-7.84346e-11
-0.000114173
1.68281e-06
-9.75226e-11
-0.000114189
2.04782e-07
-5.88155e-11
-0.000114043
-2.75346e-06
-3.1908e-11
-0.00011332
-7.9073e-06
1.41463e-10
-0.000111205
-1.59977e-05
1.5455e-09
-2.73973e-05
3.27424e-09
-0.000106433
-0.000109792
2.71158e-05
-5.87482e-09
-0.000109581
1.59774e-05
-3.88492e-09
-0.000108646
9.18966e-06
-1.79897e-09
-0.00010769
5.28142e-06
-9.38312e-10
-0.000106921
3.09814e-06
-3.99425e-10
-0.000106345
1.91541e-06
-1.24063e-10
-0.000105904
1.31425e-06
-1.57161e-11
-0.000105535
1.06372e-06
1.99108e-11
-0.000105186
1.0373e-06
2.43504e-11
-0.000104822
1.16124e-06
1.4497e-11
-0.000104424
1.38232e-06
-3.95664e-12
-0.000104
1.64428e-06
-3.0467e-11
-0.000103585
1.86528e-06
-6.63787e-11
-0.000103255
1.91011e-06
-1.15007e-10
-0.000103122
1.54991e-06
-1.519e-10
-0.000103316
3.98704e-07
-7.75967e-11
-0.0001039
-2.16989e-06
9.31481e-11
-0.000104687
-7.12077e-06
4.67192e-10
-0.000104876
-1.58118e-05
3.73822e-09
-2.97335e-05
8.99846e-09
-0.000102549
-9.83491e-05
2.5721e-05
-9.97666e-09
-9.51745e-05
1.28069e-05
-4.06142e-09
-9.24092e-05
6.42513e-06
-8.27846e-10
-9.04447e-05
3.31723e-06
-3.14295e-10
-8.91405e-05
1.7939e-06
4.01184e-11
-8.82749e-05
1.04965e-06
1.6495e-10
-8.76621e-05
7.01351e-07
1.56234e-10
-8.71682e-05
5.69631e-07
1.2861e-10
-8.67008e-05
5.69836e-07
1.06655e-10
-8.61992e-05
6.59503e-07
9.12805e-11
-8.56292e-05
8.12294e-07
7.8686e-11
-8.49872e-05
1.00217e-06
6.28417e-11
-8.43112e-05
1.18925e-06
3.43158e-11
-8.37017e-05
1.30066e-06
-3.32501e-11
-8.33485e-05
1.19686e-06
-1.32026e-10
-8.35531e-05
6.03378e-07
-4.26538e-11
-8.46925e-05
-1.03061e-06
1.2469e-10
-8.70821e-05
-4.73075e-06
-4.63919e-10
-9.03887e-05
-1.25085e-05
3.30246e-09
-2.79856e-05
1.43722e-08
-9.2151e-05
-7.51079e-05
1.81643e-05
-1.24614e-08
-6.87868e-05
6.48039e-06
5.52184e-09
-6.48944e-05
2.52656e-06
6.1887e-09
-6.26508e-05
1.07097e-06
2.64708e-09
-6.13574e-05
4.99113e-07
1.37113e-09
-6.05764e-05
2.67784e-07
8.33181e-10
-6.00522e-05
1.7663e-07
5.25024e-10
-5.9634e-05
1.51052e-07
3.98705e-10
-5.92279e-05
1.6338e-07
3.83661e-10
-5.8772e-05
2.03136e-07
4.31911e-10
-5.8226e-05
2.65807e-07
5.18283e-10
-5.75722e-05
3.47753e-07
6.20934e-10
-5.6826e-05
4.42312e-07
7.01625e-10
-5.60597e-05
5.33746e-07
6.62141e-10
-5.54469e-05
5.83632e-07
3.77005e-10
-5.53462e-05
5.02824e-07
-8.80719e-11
-5.6342e-05
-3.32186e-08
-1.66443e-09
-5.94781e-05
-1.58694e-06
-7.69299e-09
-6.58486e-05
-6.12745e-06
-1.04519e-08
-1.94026e-05
1.55216e-08
-7.44472e-05
-3.41196e-05
-6.91804e-08
-2.76274e-05
-1.17957e-08
-2.51e-05
-8.61778e-10
-2.40271e-05
-1.89513e-09
-2.35268e-05
-1.23242e-09
-2.32584e-05
-5.80352e-10
-2.30815e-05
-3.29367e-10
-2.29302e-05
-2.34215e-10
-2.27666e-05
-2.08063e-10
-2.25632e-05
-2.28997e-10
-2.22971e-05
-2.83232e-10
-2.1949e-05
-3.57292e-10
-2.15063e-05
-4.32036e-10
-2.09721e-05
-4.73762e-10
-2.03881e-05
-3.66055e-10
-1.98854e-05
2.07457e-10
-1.99194e-05
7.71328e-10
-2.15038e-05
-2.56346e-09
-2.76363e-05
5.07513e-09
8.75832e-08
-4.71265e-05
-1.9802e-05
1.43789e-06
-1.68803e-12
-2.08576e-05
1.05709e-06
-1.33244e-12
-2.15959e-05
7.39347e-07
-1.04498e-12
-2.20943e-05
4.99034e-07
-8.14346e-13
-2.24263e-05
3.32309e-07
-6.32685e-13
-2.2653e-05
2.27007e-07
-4.92844e-13
-2.28225e-05
1.6968e-07
-3.85821e-13
-2.29714e-05
1.49038e-07
-3.06103e-13
-2.31279e-05
1.56642e-07
-2.43271e-13
-2.33138e-05
1.86067e-07
-1.98811e-13
-2.35448e-05
2.31283e-07
-1.72243e-13
-2.38291e-05
2.84651e-07
-1.50534e-13
-2.41634e-05
3.34715e-07
-1.22995e-13
-2.4527e-05
3.64074e-07
-9.88145e-14
-2.48744e-05
3.47896e-07
-7.42795e-14
-2.5128e-05
2.54145e-07
-5.26784e-14
-2.51757e-05
4.79868e-08
-3.60057e-14
-2.48729e-05
-3.02898e-07
-2.33815e-14
-2.40665e-05
-8.07053e-07
-1.20899e-14
-1.4389e-06
-1.09657e-15
-2.26291e-05
-5.16826e-05
4.9814e-06
-1.88573e-12
-5.43061e-05
3.67904e-06
-1.4906e-12
-5.61622e-05
2.59413e-06
-1.17044e-12
-5.74353e-05
1.77118e-06
-9.12716e-13
-5.82993e-05
1.19557e-06
-7.10643e-13
-5.88989e-05
8.26069e-07
-5.60311e-13
-5.9347e-05
6.17304e-07
-4.46159e-13
-5.97287e-05
5.30407e-07
-3.66164e-13
-6.01076e-05
5.35142e-07
-3.06672e-13
-6.05292e-05
6.07271e-07
-2.60367e-13
-6.10219e-05
7.23558e-07
-2.2471e-13
-6.15934e-05
8.5565e-07
-1.93681e-13
-6.22228e-05
9.636e-07
-1.63019e-13
-6.28491e-05
9.89965e-07
-1.34599e-13
-6.33578e-05
8.56298e-07
-1.09949e-13
-6.35688e-05
4.65209e-07
-8.94325e-14
-6.32331e-05
-2.87253e-07
-7.23963e-14
-6.20495e-05
-1.48537e-06
-5.84335e-14
-5.97049e-05
-3.14972e-06
-4.60942e-14
-5.18667e-06
-3.26743e-14
-5.59545e-05
-7.67533e-05
9.87434e-06
-1.8809e-12
-8.02926e-05
7.21786e-06
-1.49606e-12
-8.27442e-05
5.04533e-06
-1.18264e-12
-8.43966e-05
3.42313e-06
-9.25985e-13
-8.55025e-05
2.30112e-06
-7.19582e-13
-8.62609e-05
1.58413e-06
-5.75203e-13
-8.68195e-05
1.17563e-06
-4.62999e-13
-8.72852e-05
9.96002e-07
-3.82467e-13
-8.77346e-05
9.84355e-07
-3.20528e-13
-8.82197e-05
1.09231e-06
-2.69216e-13
-8.87704e-05
1.27412e-06
-2.28157e-13
-8.93901e-05
1.47527e-06
-1.93845e-13
-9.00472e-05
1.62069e-06
-1.61697e-13
-9.06612e-05
1.60394e-06
-1.30852e-13
-9.10854e-05
1.28048e-06
-1.01123e-13
-9.10904e-05
4.70341e-07
-7.86091e-14
-9.03563e-05
-1.02105e-06
-5.82061e-14
-8.8486e-05
-3.35534e-06
-4.04911e-14
-8.50538e-05
-6.58133e-06
-2.44617e-14
-1.0531e-05
-1.02373e-14
-7.97091e-05
-9.52875e-05
1.53605e-05
-1.83098e-12
-9.90485e-05
1.09782e-05
-1.474e-12
-0.000101516
7.51249e-06
-1.18504e-12
-0.000103097
5.00357e-06
-9.42382e-13
-0.000104109
3.31198e-06
-7.2585e-13
-0.000104775
2.25034e-06
-5.84911e-13
-0.000105249
1.64966e-06
-4.76853e-13
-0.000105633
1.37992e-06
-3.95579e-13
-0.000105996
1.34654e-06
-3.31717e-13
-0.000106381
1.47738e-06
-2.76814e-13
-0.000106813
1.7066e-06
-2.31168e-13
-0.000107296
1.95741e-06
-1.94173e-13
-0.000107799
2.12454e-06
-1.61824e-13
-0.000108253
2.05741e-06
-1.28275e-13
-0.00010852
1.54729e-06
-9.63847e-14
-0.000108375
3.25258e-07
-6.66724e-14
-0.000107481
-1.91497e-06
-3.42173e-14
-0.000105381
-5.455e-06
-1.62847e-15
-0.000101531
-1.04302e-05
2.72047e-14
-1.66459e-05
4.92623e-14
-9.54159e-05
-0.000107238
2.06629e-05
-1.70536e-12
-0.000110487
1.42263e-05
-1.38371e-12
-0.000112373
9.39737e-06
-1.1366e-12
-0.000113437
6.06711e-06
-9.33761e-13
-0.000114037
3.91152e-06
-7.12874e-13
-0.000114388
2.60043e-06
-5.7136e-13
-0.000114612
1.87336e-06
-4.73555e-13
-0.000114779
1.54748e-06
-3.93618e-13
-0.000114932
1.49924e-06
-3.26444e-13
-0.000115095
1.64045e-06
-2.68346e-13
-0.000115284
1.8949e-06
-2.20455e-13
-0.000115502
2.17581e-06
-1.83426e-13
-0.000115741
2.36322e-06
-1.52181e-13
-0.000115964
2.28057e-06
-1.24415e-13
-0.000116089
1.67226e-06
-9.57405e-14
-0.000115951
1.87355e-07
-6.14442e-14
-0.000115257
-2.60961e-06
-2.41394e-14
-0.000113528
-7.18361e-06
7.08293e-15
-0.000110082
-1.38753e-05
4.37901e-14
-2.26101e-05
7.52803e-14
-0.000104116
-0.000112297
2.49193e-05
-1.54137e-12
-0.000114242
1.6169e-05
-1.23993e-12
-0.000114962
1.01168e-05
-1.03266e-12
-0.000115129
6.23282e-06
-8.78781e-13
-0.000115083
3.86509e-06
-6.66607e-13
-0.000114974
2.49126e-06
-5.15486e-13
-0.000114856
1.75506e-06
-4.3722e-13
-0.000114741
1.43264e-06
-3.7426e-13
-0.000114628
1.38627e-06
-3.09164e-13
-0.000114513
1.526e-06
-2.46852e-13
-0.000114398
1.77978e-06
-1.95046e-13
-0.000114291
2.06809e-06
-1.5614e-13
-0.000114206
2.2788e-06
-1.24024e-13
-0.000114165
2.23887e-06
-9.7932e-14
-0.000114173
1.68074e-06
-6.56207e-14
-0.000114189
2.02739e-07
-3.36289e-14
-0.000114042
-2.75649e-06
-1.17243e-14
-0.000113317
-7.90865e-06
2.56774e-14
-0.000111203
-1.59876e-05
4.54106e-14
-2.73742e-05
4.06552e-14
-0.000106435
-0.000109785
2.70679e-05
-1.44494e-12
-0.000109571
1.59515e-05
-1.13646e-12
-0.000108639
9.18269e-06
-9.62108e-13
-0.000107687
5.27949e-06
-8.46651e-13
-0.00010692
3.09786e-06
-6.44993e-13
-0.000106344
1.91568e-06
-4.52283e-13
-0.000105904
1.31458e-06
-3.61482e-13
-0.000105535
1.06396e-06
-3.16532e-13
-0.000105186
1.03744e-06
-2.68012e-13
-0.000104821
1.16127e-06
-2.11928e-13
-0.000104424
1.38219e-06
-1.60567e-13
-0.000104
1.64391e-06
-1.20095e-13
-0.000103586
1.86453e-06
-8.53545e-14
-0.000103255
1.90874e-06
-5.09237e-14
-0.000103123
1.54769e-06
-1.40794e-14
-0.000103316
3.96032e-07
6.73775e-15
-0.000103898
-2.17402e-06
3.65569e-14
-0.000104683
-7.12395e-06
4.11146e-14
-0.000104872
-1.57944e-05
1.92466e-14
-2.96786e-05
-4.30659e-14
-0.000102559
-9.83346e-05
2.56298e-05
-1.47284e-12
-9.51641e-05
1.27769e-05
-1.11807e-12
-9.24058e-05
6.42353e-06
-9.45127e-13
-9.04445e-05
3.31792e-06
-8.35279e-13
-8.91411e-05
1.79452e-06
-6.73737e-13
-8.82755e-05
1.0502e-06
-4.58403e-13
-8.76624e-05
7.01699e-07
-3.24309e-13
-8.71682e-05
5.69821e-07
-2.62811e-13
-8.67005e-05
5.69927e-07
-2.18305e-13
-8.61987e-05
6.5952e-07
-1.70129e-13
-8.56287e-05
8.1223e-07
-1.23935e-13
-8.49867e-05
1.00199e-06
-8.43816e-14
-8.4311e-05
1.18887e-06
-4.70833e-14
-8.37022e-05
1.29989e-06
-9.05269e-15
-8.335e-05
1.19538e-06
3.32699e-14
-8.35551e-05
6.01158e-07
5.88288e-14
-8.46962e-05
-1.03279e-06
6.29341e-14
-8.70849e-05
-4.7358e-06
5.09801e-14
-9.03865e-05
-1.24894e-05
2.98736e-14
-2.78839e-05
-5.66863e-14
-9.21668e-05
-7.50892e-05
1.80838e-05
-1.43715e-12
-6.87944e-05
6.48761e-06
-1.10903e-12
-6.49033e-05
2.53852e-06
-9.20896e-13
-6.26573e-05
1.07462e-06
-8.17109e-13
-6.13612e-05
4.9983e-07
-6.78128e-13
-6.05782e-05
2.68027e-07
-4.81331e-13
-6.00528e-05
1.76832e-07
-3.27079e-13
-5.96339e-05
1.51304e-07
-2.39745e-13
-5.92273e-05
1.63737e-07
-1.85207e-13
-5.8771e-05
2.03654e-07
-1.40046e-13
-5.82248e-05
2.6655e-07
-1.01481e-13
-5.7571e-05
3.48799e-07
-6.85975e-14
-5.68252e-05
4.43754e-07
-3.68305e-14
-5.60604e-05
5.35704e-07
1.05206e-15
-5.54507e-05
5.8606e-07
3.86998e-14
-5.53527e-05
5.03066e-07
6.71533e-14
-5.63572e-05
-2.99575e-08
6.62779e-14
-5.95047e-05
-1.59597e-06
1.13197e-13
-6.58648e-05
-6.1398e-06
1.29564e-13
-1.93385e-05
-5.55766e-14
-7.43947e-05
-3.41095e-05
-1.20261e-12
-2.76337e-05
-1.01163e-12
-2.5096e-05
-7.76706e-13
-2.40233e-05
-6.69824e-13
-2.35247e-05
-5.54414e-13
-2.32573e-05
-4.10157e-13
-2.30808e-05
-2.82701e-13
-2.29297e-05
-1.96327e-13
-2.27662e-05
-1.40534e-13
-2.25628e-05
-1.01562e-13
-2.22965e-05
-7.35168e-14
-2.1948e-05
-5.27326e-14
-2.15047e-05
-2.70548e-14
-2.09695e-05
1.00207e-14
-2.03838e-05
4.32019e-14
-1.98805e-05
5.5996e-14
-1.99097e-05
7.43768e-14
-2.15082e-05
1.52335e-13
-2.7643e-05
4.70705e-14
-1.01572e-13
-4.68938e-05
-1.9802e-05
1.43789e-06
-2.17532e-09
-2.08576e-05
1.05709e-06
-1.52371e-09
-2.15959e-05
7.39347e-07
-1.01046e-09
-2.20943e-05
4.99034e-07
-6.39512e-10
-2.24263e-05
3.32309e-07
-3.93931e-10
-2.2653e-05
2.27007e-07
-2.46005e-10
-2.28225e-05
1.6968e-07
-1.69127e-10
-2.29714e-05
1.49038e-07
-1.43118e-10
-2.31279e-05
1.56642e-07
-1.54295e-10
-2.33138e-05
1.86067e-07
-1.9395e-10
-2.35448e-05
2.31283e-07
-2.55946e-10
-2.38291e-05
2.84651e-07
-3.33815e-10
-2.41634e-05
3.34715e-07
-4.17749e-10
-2.4527e-05
3.64074e-07
-4.91498e-10
-2.48744e-05
3.47896e-07
-5.28123e-10
-2.5128e-05
2.54145e-07
-4.84085e-10
-2.51757e-05
4.79868e-08
-3.04842e-10
-2.48729e-05
-3.02898e-07
4.33402e-11
-2.40665e-05
-8.07053e-07
6.56071e-10
-1.4389e-06
1.57885e-09
-2.26291e-05
-5.16825e-05
4.9814e-06
1.94032e-09
-5.43061e-05
3.67905e-06
1.62055e-09
-5.61622e-05
2.59413e-06
1.28281e-09
-5.74353e-05
1.77118e-06