/*--------------------------------*- C++ -*----------------------------------*\
| =========                 |                                                 |
| \\      /  F ield         | OpenFOAM: The Open Source CFD Toolbox           |
|  \\    /   O peration     | Version:  2.4.0                                 |
|   \\  /    A nd           | Web:      www.OpenFOAM.org                      |
|    \\/     M anipulation  |                                                 |
\*---------------------------------------------------------------------------*/
FoamFile
{
    version     2.0;
    format      ascii;
    class       volVectorField;
    location    "4.1";
    object      U;
}
// * * * * * * * * * * * * * * * * * * * * * * * * * * * * * * * * * * * * * //

dimensions      [0 1 -1 0 0 0 0];

internalField   nonuniform List<vector> 
4800
(
(0.000306616 -0.000310958 -7.42881e-07)
(1.77936e-05 0.00015677 0.000216845)
(-0.00184489 0.000665206 0.00044506)
(-0.00484043 0.00100889 0.000614351)
(-0.00857179 0.00120395 0.000680693)
(-0.0126968 0.00128819 0.000623646)
(-0.0169317 0.00128923 0.000436897)
(-0.0210378 0.00122098 0.000120941)
(-0.0248048 0.00109082 -0.000318199)
(-0.0280552 0.000910861 -0.000867605)
(-0.000182652 -2.02602e-05 -0.000217924)
(-0.00248555 0.00239457 4.46242e-06)
(-0.00807506 0.00475038 0.000173798)
(-0.0159624 0.00644949 0.000274948)
(-0.0254017 0.00748588 0.000289761)
(-0.0357124 0.00795259 0.000202267)
(-0.0462528 0.00793643 5.74299e-06)
(-0.0564412 0.00749777 -0.000302216)
(-0.0657578 0.0066924 -0.000720321)
(-0.0737758 0.0056103 -0.00124205)
(-0.000779889 0.00197275 -0.000451668)
(-0.00522307 0.00810435 -0.000157809)
(-0.0143229 0.0135651 1.24569e-05)
(-0.0263948 0.0175601 9.1927e-05)
(-0.0404342 0.0200475 8.92346e-05)
(-0.0555672 0.0211576 -4.49796e-06)
(-0.0709231 0.0210336 -0.00019359)
(-0.085676 0.0197989 -0.000481918)
(-0.0990657 0.017602 -0.000872678)
(-0.110455 0.0146944 -0.00136558)
(-0.00125942 0.00539598 -0.000610413)
(-0.00750932 0.0166311 -0.000229985)
(-0.0195774 0.0259234 -3.56242e-05)
(-0.0350677 0.0326294 4.59917e-05)
(-0.0527343 0.0367811 4.56427e-05)
(-0.0715689 0.0385659 -3.95175e-05)
(-0.0905439 0.0381696 -0.000212102)
(-0.10865 0.0357635 -0.000478607)
(-0.124918 0.0315916 -0.000848533)
(-0.138486 0.0261108 -0.00133033)
(-0.00158853 0.00991713 -0.000619042)
(-0.00914519 0.0273695 -0.00016342)
(-0.0233967 0.0410297 5.66342e-05)
(-0.0413783 0.0506927 0.000150874)
(-0.061647 0.0565926 0.00016622)
(-0.0830985 0.0590103 0.000103364)
(-0.104598 0.0581597 -4.11737e-05)
(-0.124995 0.0542233 -0.000279426)
(-0.143118 0.0475056 -0.000631075)
(-0.15781 0.0386701 -0.00112023)
(-0.00176088 0.0151434 -0.000427755)
(-0.0100414 0.0395797 8.39196e-05)
(-0.0255312 0.0579866 0.000325315)
(-0.0449279 0.0707712 0.000439535)
(-0.0666657 0.0784656 0.000483152)
(-0.089587 0.0814769 0.000457678)
(-0.1125 0.0800293 0.000355499)
(-0.13416 0.0742584 0.000155142)
(-0.15321 0.0644403 -0.000178903)
(-0.168077 0.0513603 -0.000701445)
(-0.00177653 0.0206485 -1.24309e-05)
(-0.0101616 0.0524027 0.000533129)
(-0.0258546 0.075726 0.000788276)
(-0.0454754 0.0917004 0.000927674)
(-0.0674213 0.101203 0.00101156)
(-0.0905279 0.104791 0.00104017)
(-0.113603 0.102679 0.000998774)
(-0.135383 0.094881 0.000852555)
(-0.154413 0.0814859 0.00054429)
(-0.168559 0.0631298 -4.23908e-05)
(-0.00164239 0.0260034 0.000627414)
(-0.00952135 0.0649424 0.00118473)
(-0.0243686 0.0931036 0.00144475)
(-0.0429676 0.1122 0.00161291)
(-0.0637489 0.123454 0.00174826)
(-0.0855686 0.127583 0.00184919)
(-0.107277 0.124794 0.00189239)
(-0.127687 0.114916 0.00182772)
(-0.14548 0.0976415 0.00157555)
(-0.157924 0.0728454 0.000901815)
(-0.00137883 0.0308066 0.00146946)
(-0.00821021 0.0763404 0.00201916)
(-0.0212528 0.108985 0.00227495)
(-0.0376382 0.130943 0.00247301)
(-0.0558579 0.143729 0.00266784)
(-0.0747607 0.148232 0.0028573)
(-0.0932036 0.144702 0.0030103)
(-0.110092 0.132826 0.00306072)
(-0.12463 0.11185 0.00291871)
(-0.133926 0.0800446 0.00214374)
(-0.00102556 0.0347309 0.00247108)
(-0.00641477 0.0858747 0.00299931)
(-0.0169223 0.12237 0.00324192)
(-0.0301359 0.14668 0.00346681)
(-0.0445836 0.160489 0.00372264)
(-0.0589922 0.164819 0.00401174)
(-0.0720073 0.160012 0.00430481)
(-0.0822353 0.145749 0.00453181)
(-0.0893858 0.121145 0.0046608)
(-0.0924493 0.0834919 0.00406604)
(0.000311975 -0.000315109 -1.01823e-07)
(2.54483e-05 0.000151034 1.31855e-06)
(-0.00184095 0.000651254 1.99998e-06)
(-0.00483773 0.000989144 2.57769e-06)
(-0.00857025 0.00118102 2.9235e-06)
(-0.0126962 0.00126371 3.06734e-06)
(-0.0169318 0.0012647 3.07811e-06)
(-0.0210389 0.00119774 2.95829e-06)
(-0.024807 0.00107001 2.68743e-06)
(-0.0280586 0.000893112 2.24717e-06)
(-0.000175111 -2.70769e-05 -1.16049e-06)
(-0.00248226 0.00239282 2.94933e-07)
(-0.00808246 0.00473924 -1.18673e-06)
(-0.015967 0.00643315 -1.87037e-06)
(-0.025404 0.00746768 -2.21204e-06)
(-0.0357131 0.00793353 -2.42661e-06)
(-0.0462518 0.0079175 -2.43263e-06)
(-0.0564391 0.00748002 -2.26079e-06)
(-0.0657557 0.0066767 -1.98241e-06)
(-0.0737746 0.00559673 -1.71004e-06)
(-0.000763801 0.00196735 -1.96923e-06)
(-0.00521168 0.00811107 1.74825e-06)
(-0.0143297 0.0135683 7.03175e-08)
(-0.026397 0.0175634 -8.20485e-08)
(-0.0404342 0.0200527 8.51901e-08)
(-0.055567 0.0211639 8.0824e-08)
(-0.0709222 0.0210403 9.13039e-08)
(-0.0856747 0.0198058 1.38442e-07)
(-0.0990654 0.017609 1.92703e-07)
(-0.110457 0.0147001 1.18142e-07)
(-0.00123637 0.00539115 -2.85325e-06)
(-0.00749289 0.0166352 2.47213e-06)
(-0.0195865 0.0259226 -2.24297e-08)
(-0.0350695 0.0326268 -2.30262e-07)
(-0.0527333 0.0367789 5.84809e-08)
(-0.071568 0.0385641 9.30226e-08)
(-0.0905424 0.0381682 1.26212e-07)
(-0.108648 0.0357631 2.10332e-07)
(-0.124918 0.0315934 3.6755e-07)
(-0.138491 0.0261129 3.24328e-07)
(-0.00156089 0.00991401 -3.48625e-06)
(-0.00912653 0.0273719 2.91096e-06)
(-0.0234093 0.0410277 -3.45622e-07)
(-0.0413814 0.0506885 -7.31947e-07)
(-0.061646 0.056588 -4.45183e-07)
(-0.0830973 0.0590056 -4.24127e-07)
(-0.104596 0.0581552 -3.78399e-07)
(-0.124991 0.05422 -2.23863e-07)
(-0.143115 0.0475068 2.30046e-07)
(-0.157818 0.0386736 4.55836e-07)
(-0.00173067 0.0151423 -3.80562e-06)
(-0.0100216 0.0395811 3.22283e-06)
(-0.0255462 0.0579856 -4.49133e-07)
(-0.0449321 0.0707687 -9.28391e-07)
(-0.066665 0.0784625 -6.45579e-07)
(-0.0895861 0.0814733 -6.40267e-07)
(-0.112498 0.0800251 -6.25244e-07)
(-0.134153 0.0742548 -5.0339e-07)
(-0.153203 0.0644449 3.99389e-07)
(-0.168092 0.0513723 1.2738e-06)
(-0.00174592 0.0206497 -3.84273e-06)
(-0.010142 0.052403 3.30394e-06)
(-0.0258706 0.0757259 -4.79701e-07)
(-0.0454804 0.0916995 -1.01459e-06)
(-0.0674213 0.101202 -7.74235e-07)
(-0.0905277 0.104789 -8.01902e-07)
(-0.113601 0.102675 -8.87003e-07)
(-0.13537 0.0948761 -1.06174e-06)
(-0.154394 0.0814966 5.25352e-07)
(-0.168588 0.0631683 3.23995e-06)
(-0.00161372 0.0260068 -3.5146e-06)
(-0.00950342 0.0649418 3.17748e-06)
(-0.0243846 0.0931045 -4.36602e-07)
(-0.0429731 0.112201 -9.8532e-07)
(-0.0637497 0.123454 -8.06085e-07)
(-0.0855696 0.127582 -8.18781e-07)
(-0.107276 0.12479 -9.26425e-07)
(-0.127664 0.114901 -1.63973e-06)
(-0.145427 0.0976374 1.55677e-06)
(-0.157971 0.0729068 1.12831e-05)
(-0.00135391 0.0308118 -2.92314e-06)
(-0.00819487 0.0763393 2.88282e-06)
(-0.0212673 0.108987 -3.02765e-07)
(-0.0376439 0.130947 -8.24776e-07)
(-0.0558599 0.143733 -7.56049e-07)
(-0.0747652 0.148235 -8.1722e-07)
(-0.0932147 0.144699 -1.09557e-06)
(-0.110075 0.132793 -3.8271e-06)
(-0.124524 0.111774 -1.14183e-06)
(-0.133975 0.0800143 2.5331e-05)
(-0.00100563 0.034737 -2.11982e-06)
(-0.00640242 0.0858733 2.49087e-06)
(-0.0169337 0.122374 -5.71702e-08)
(-0.03014 0.146688 -4.71539e-07)
(-0.0445849 0.160502 -4.99254e-07)
(-0.0589989 0.164842 -7.28639e-07)
(-0.0720406 0.160056 -1.54258e-06)
(-0.0822768 0.145815 -9.51605e-06)
(-0.0892959 0.121208 -2.2258e-05)
(-0.0925284 0.0836114 7.64466e-06)
(0.000312064 -0.000315021 -8.81154e-08)
(2.55859e-05 0.000151094 -1.38328e-06)
(-0.00184088 0.000651283 -2.03827e-06)
(-0.00483768 0.000989156 -2.60492e-06)
(-0.00857022 0.00118103 -2.94305e-06)
(-0.0126962 0.00126371 -3.08197e-06)
(-0.0169318 0.0012647 -3.08938e-06)
(-0.0210389 0.00119774 -2.96707e-06)
(-0.024807 0.00107001 -2.69431e-06)
(-0.0280586 0.000893111 -2.25261e-06)
(-0.000175052 -2.69388e-05 1.09639e-06)
(-0.00248215 0.00239293 -3.39172e-07)
(-0.00808237 0.0047393 1.1511e-06)
(-0.015967 0.00643318 1.84278e-06)
(-0.025404 0.0074677 2.19125e-06)
(-0.0357131 0.00793354 2.41069e-06)
(-0.0462518 0.00791751 2.42028e-06)
(-0.0564391 0.00748002 2.25116e-06)
(-0.0657557 0.0066767 1.97486e-06)
(-0.0737746 0.00559673 1.70408e-06)
(-0.000763772 0.00196742 1.93157e-06)
(-0.00521162 0.00811116 -1.78339e-06)
(-0.0143297 0.0135683 -1.00138e-07)
(-0.026397 0.0175634 5.80168e-08)
(-0.0404341 0.0200527 -1.04136e-07)
(-0.055567 0.0211639 -9.58077e-08)
(-0.0709222 0.0210403 -1.03179e-07)
(-0.0856747 0.0198058 -1.47847e-07)
(-0.0990654 0.017609 -2.00155e-07)
(-0.110457 0.0147001 -1.24069e-07)
(-0.00123636 0.0053912 2.82685e-06)
(-0.00749285 0.0166353 -2.4989e-06)
(-0.0195864 0.0259226 -1.10546e-09)
(-0.0350695 0.0326268 2.10433e-07)
(-0.0527332 0.0367789 -7.4817e-08)
(-0.071568 0.0385641 -1.0642e-07)
(-0.0905424 0.0381682 -1.37136e-07)
(-0.108648 0.0357631 -2.19172e-07)
(-0.124918 0.0315934 -3.74672e-07)
(-0.138491 0.0261129 -3.30067e-07)
(-0.00156088 0.00991405 3.46755e-06)
(-0.00912652 0.0273719 -2.93087e-06)
(-0.0234093 0.0410277 3.2736e-07)
(-0.0413813 0.0506885 7.15976e-07)
(-0.061646 0.056588 4.31568e-07)
(-0.0830973 0.0590056 4.12606e-07)
(-0.104596 0.0581552 3.68758e-07)
(-0.124991 0.05422 2.15895e-07)
(-0.143115 0.0475069 -2.36572e-07)
(-0.157818 0.0386736 -4.61163e-07)
(-0.00173066 0.0151424 3.79182e-06)
(-0.0100216 0.0395811 -3.23778e-06)
(-0.0255462 0.0579856 4.35014e-07)
(-0.044932 0.0707688 9.15758e-07)
(-0.066665 0.0784625 6.34546e-07)
(-0.089586 0.0814733 6.30689e-07)
(-0.112497 0.0800252 6.17038e-07)
(-0.134153 0.0742548 4.96467e-07)
(-0.153203 0.0644449 -4.05166e-07)
(-0.168091 0.0513723 -1.27859e-06)
(-0.00174592 0.0206497 3.83238e-06)
(-0.010142 0.052403 -3.31519e-06)
(-0.0258706 0.0757259 4.68838e-07)
(-0.0454803 0.0916996 1.00469e-06)
(-0.0674213 0.101202 7.65411e-07)
(-0.0905277 0.104789 7.94068e-07)
(-0.113601 0.102675 8.80127e-07)
(-0.13537 0.0948762 1.05578e-06)
(-0.154394 0.0814966 -5.30479e-07)
(-0.168588 0.0631683 -3.24432e-06)
(-0.00161372 0.0260068 3.50668e-06)
(-0.00950341 0.0649418 -3.18617e-06)
(-0.0243845 0.0931045 4.28185e-07)
(-0.0429731 0.112201 9.77561e-07)
(-0.0637497 0.123454 7.99058e-07)
(-0.0855695 0.127582 8.12402e-07)
(-0.107276 0.12479 9.20656e-07)
(-0.127664 0.114901 1.63453e-06)
(-0.145427 0.0976374 -1.56145e-06)
(-0.157971 0.0729068 -1.12872e-05)
(-0.00135391 0.0308118 2.91681e-06)
(-0.00819487 0.0763393 -2.88958e-06)
(-0.0212673 0.108987 2.96223e-07)
(-0.0376439 0.130947 8.18687e-07)
(-0.0558599 0.143733 7.50444e-07)
(-0.0747652 0.148235 8.12006e-07)
(-0.0932146 0.144699 1.09068e-06)
(-0.110075 0.132793 3.8225e-06)
(-0.124524 0.111774 1.13755e-06)
(-0.133975 0.0800143 -2.53348e-05)
(-0.00100563 0.034737 2.11481e-06)
(-0.00640242 0.0858733 -2.49613e-06)
(-0.0169337 0.122374 5.20676e-08)
(-0.03014 0.146688 4.66738e-07)
(-0.0445849 0.160502 4.9476e-07)
(-0.0589989 0.164842 7.24351e-07)
(-0.0720406 0.160056 1.53841e-06)
(-0.0822768 0.145815 9.51201e-06)
(-0.0892959 0.121208 2.22542e-05)
(-0.0925284 0.0836114 -7.648e-06)
(0.000307106 -0.000310466 9.4256e-07)
(1.84938e-05 0.000157004 -0.000216776)
(-0.00184459 0.000665295 -0.000445019)
(-0.00484028 0.00100892 -0.000614322)
(-0.0085717 0.00120397 -0.000680673)
(-0.0126967 0.0012882 -0.000623631)
(-0.0169316 0.00128924 -0.000436885)
(-0.0210378 0.00122098 -0.000120932)
(-0.0248047 0.00109082 0.000318206)
(-0.0280552 0.00091086 0.000867611)
(-0.000182419 -1.95588e-05 0.000217991)
(-0.00248515 0.00239497 -4.41565e-06)
(-0.00807479 0.00475057 -0.00017376)
(-0.0159622 0.00644958 -0.000274919)
(-0.0254016 0.00748592 -0.000289739)
(-0.0357123 0.00795261 -0.000202251)
(-0.0462528 0.00793644 -5.72994e-06)
(-0.0564411 0.00749778 0.000302226)
(-0.0657577 0.0066924 0.000720329)
(-0.0737757 0.00561031 0.00124206)
(-0.000779799 0.00197306 0.000451708)
(-0.00522288 0.00810462 0.000157846)
(-0.0143227 0.0135652 -1.24254e-05)
(-0.0263947 0.0175602 -9.19016e-05)
(-0.040434 0.0200476 -8.92146e-05)
(-0.0555671 0.0211577 4.5138e-06)
(-0.070923 0.0210336 0.000193603)
(-0.0856759 0.019799 0.000481928)
(-0.0990656 0.017602 0.000872686)
(-0.110455 0.0146944 0.00136559)
(-0.00125938 0.00539613 0.000610441)
(-0.00750923 0.0166313 0.000230013)
(-0.0195773 0.0259236 3.56491e-05)
(-0.0350676 0.0326295 -4.59707e-05)
(-0.0527342 0.0367812 -4.56254e-05)
(-0.0715688 0.0385659 3.95317e-05)
(-0.0905438 0.0381696 0.000212113)
(-0.10865 0.0357635 0.000478617)
(-0.124918 0.0315916 0.000848541)
(-0.138486 0.0261108 0.00133034)
(-0.00158852 0.00991722 0.000619061)
(-0.00914514 0.0273696 0.000163441)
(-0.0233966 0.0410298 -5.66149e-05)
(-0.0413782 0.0506928 -0.000150857)
(-0.061647 0.0565926 -0.000166206)
(-0.0830984 0.0590103 -0.000103352)
(-0.104598 0.0581597 4.11839e-05)
(-0.124995 0.0542233 0.000279435)
(-0.143118 0.0475056 0.000631081)
(-0.15781 0.0386702 0.00112024)
(-0.00176088 0.0151434 0.00042777)
(-0.0100414 0.0395798 -8.39038e-05)
(-0.0255312 0.0579867 -0.0003253)
(-0.0449279 0.0707713 -0.000439521)
(-0.0666656 0.0784657 -0.000483141)
(-0.089587 0.081477 -0.000457668)
(-0.1125 0.0800294 -0.00035549)
(-0.13416 0.0742584 -0.000155135)
(-0.15321 0.0644403 0.000178909)
(-0.168077 0.0513603 0.00070145)
(-0.00177653 0.0206485 1.24418e-05)
(-0.0101616 0.0524028 -0.000533117)
(-0.0258546 0.0757261 -0.000788265)
(-0.0454753 0.0917004 -0.000927663)
(-0.0674212 0.101203 -0.00101155)
(-0.0905278 0.104791 -0.00104017)
(-0.113603 0.102679 -0.000998767)
(-0.135383 0.094881 -0.000852548)
(-0.154413 0.0814859 -0.000544285)
(-0.168559 0.0631298 4.23955e-05)
(-0.00164239 0.0260034 -0.000627405)
(-0.00952134 0.0649425 -0.00118472)
(-0.0243686 0.0931036 -0.00144474)
(-0.0429676 0.1122 -0.0016129)
(-0.0637489 0.123454 -0.00174825)
(-0.0855686 0.127583 -0.00184919)
(-0.107277 0.124794 -0.00189239)
(-0.127687 0.114916 -0.00182771)
(-0.14548 0.0976415 -0.00157555)
(-0.157924 0.0728454 -0.000901811)
(-0.00137883 0.0308066 -0.00146945)
(-0.00821021 0.0763404 -0.00201916)
(-0.0212528 0.108985 -0.00227494)
(-0.0376382 0.130943 -0.002473)
(-0.0558579 0.143729 -0.00266783)
(-0.0747607 0.148232 -0.00285729)
(-0.0932036 0.144702 -0.0030103)
(-0.110092 0.132826 -0.00306072)
(-0.12463 0.11185 -0.0029187)
(-0.133926 0.0800446 -0.00214374)
(-0.00102556 0.0347309 -0.00247107)
(-0.00641477 0.0858747 -0.0029993)
(-0.0169223 0.12237 -0.00324191)
(-0.0301359 0.14668 -0.0034668)
(-0.0445836 0.160489 -0.00372264)
(-0.0589922 0.164819 -0.00401173)
(-0.0720073 0.160012 -0.00430481)
(-0.0822353 0.145749 -0.0045318)
(-0.0893858 0.121145 -0.0046608)
(-0.0924493 0.0834919 -0.00406604)
(-0.0306761 0.000706603 -0.00150656)
(-0.0326533 0.00051229 -0.00220957)
(-0.0340629 0.000350888 -0.0029537)
(-0.0350253 0.000230278 -0.00372167)
(-0.0356655 0.000148252 -0.00450202)
(-0.0360931 9.81179e-05 -0.00528809)
(-0.0363951 7.27042e-05 -0.0060767)
(-0.0366384 6.62812e-05 -0.00686709)
(-0.0368741 7.49311e-05 -0.00766039)
(-0.0371417 9.60514e-05 -0.00845931)
(-0.0374715 0.000127413 -0.00926827)
(-0.0378836 0.000165957 -0.0100935)
(-0.0383836 0.000206431 -0.010943)
(-0.0389544 0.000239946 -0.0118264)
(-0.0395455 0.000252774 -0.0127542)
(-0.0400601 0.000226001 -0.0137355)
(-0.0403458 0.000137387 -0.0147758)
(-0.0401926 -3.27773e-05 -0.0158727)
(-0.0393522 -0.000296413 -0.0170103)
(-0.0375851 -0.000641579 -0.0181561)
(-0.080236 0.00440386 -0.00185368)
(-0.0851237 0.00325831 -0.00253537)
(-0.0886371 0.00229699 -0.00326863)
(-0.0910686 0.00156451 -0.00403811)
(-0.092716 0.00105161 -0.004832)
(-0.0938373 0.000723676 -0.00564206)
(-0.0946377 0.000541279 -0.0064631)
(-0.0952734 0.000470468 -0.00729248)
(-0.0958613 0.00048512 -0.00812966)
(-0.0964878 0.000564719 -0.00897599)
(-0.0972125 0.000689746 -0.0098345)
(-0.0980666 0.000835878 -0.0107098)
(-0.0990432 0.000967667 -0.0116081)
(-0.100082 0.00103262 -0.0125362)
(-0.101047 0.000957353 -0.0135014)
(-0.101707 0.000649011 -0.0145096)
(-0.101715 6.71268e-06 -0.015563)
(-0.10062 -0.00105229 -0.016657)
(-0.0979077 -0.00255437 -0.0177777)
(-0.0930936 -0.00441604 -0.0188976)
(-0.119463 0.01149 -0.00195145)
(-0.126119 0.00848281 -0.0026101)
(-0.130796 0.00598333 -0.00332401)
(-0.13397 0.00408988 -0.0040785)
(-0.136089 0.00276531 -0.00486156)
(-0.137514 0.00191289 -0.00566436)
(-0.138519 0.00142736 -0.00648093)
(-0.139303 0.00121865 -0.00730779)
(-0.140011 0.00121643 -0.0081435)
(-0.140743 0.00136396 -0.00898843)
(-0.141566 0.00160681 -0.00984451)
(-0.142507 0.0018793 -0.010715)
(-0.14355 0.00209019 -0.0116045)
(-0.144611 0.00210986 -0.0125184)
(-0.145515 0.00176288 -0.0134622)
(-0.145966 0.000832934 -0.0144412)
(-0.145525 -0.000909668 -0.0154581)
(-0.143607 -0.00364931 -0.0165112)
(-0.139522 -0.00742908 -0.0175912)
(-0.132594 -0.0120359 -0.0186774)
(-0.148822 0.0201217 -0.0019187)
(-0.156062 0.014621 -0.00258374)
(-0.16087 0.0101626 -0.00330487)
(-0.163966 0.00686181 -0.00406629)
(-0.165936 0.00459453 -0.00485521)
(-0.167207 0.00315204 -0.00566256)
(-0.168071 0.00233008 -0.00648238)
(-0.168726 0.00196338 -0.00731107)
(-0.169302 0.00192723 -0.00814691)
(-0.169887 0.00212347 -0.00898968)
(-0.170536 0.00246025 -0.00984038)
(-0.171272 0.00282913 -0.0107011)
(-0.17208 0.00308167 -0.011575)
(-0.172886 0.00300783 -0.0124661)
(-0.173533 0.00232176 -0.0133794)
(-0.173741 0.000665439 -0.0143207)
(-0.173068 -0.00235261 -0.0152956)
(-0.170874 -0.00706559 -0.0163084)
(-0.166333 -0.0135883 -0.0173585)
(-0.158513 -0.0215989 -0.018436)
(-0.168273 0.0290549 -0.0017481)
(-0.174841 0.0205101 -0.00245501)
(-0.178697 0.0138652 -0.00321304)
(-0.180884 0.00913334 -0.00400459)
(-0.18211 0.0059882 -0.00481622)
(-0.182808 0.00403607 -0.00563973)
(-0.183233 0.00293879 -0.00647033)
(-0.183526 0.0024446 -0.00730537)
(-0.18377 0.00237521 -0.00814354)
(-0.184015 0.00259782 -0.00898442)
(-0.184292 0.00299362 -0.00982824)
(-0.184618 0.00342548 -0.0106758)
(-0.184993 0.00370522 -0.0115288)
(-0.185385 0.00356156 -0.0123896)
(-0.185712 0.00261334 -0.0132624)
(-0.185791 0.00035982 -0.0141539)
(-0.185277 -0.00378761 -0.0150738)
(-0.183572 -0.0103951 -0.0160348)
(-0.179742 -0.0197849 -0.01705)
(-0.172481 -0.0316595 -0.01813)
(-0.1774 0.0370612 -0.00143247)
(-0.18189 0.0249755 -0.00223146)
(-0.183674 0.0161563 -0.00306136)
(-0.184201 0.0102357 -0.00390666)
(-0.184213 0.00649281 -0.00475589)
(-0.184056 0.00425939 -0.00560448)
(-0.183864 0.00303799 -0.00645106)
(-0.183676 0.00249479 -0.00729532)
(-0.183495 0.00241287 -0.00813716)
(-0.183314 0.00264311 -0.0089764)
(-0.183129 0.00306062 -0.00981262)
(-0.182946 0.0035251 -0.0106452)
(-0.182785 0.00384107 -0.0114739)
(-0.182679 0.00371533 -0.012299)
(-0.182659 0.00271202 -0.013123)
(-0.182718 0.000212701 -0.0139526)
(-0.182724 -0.00459254 -0.0148015)
(-0.182271 -0.012618 -0.0156919)
(-0.180438 -0.0246403 -0.0166556)
(-0.175424 -0.040722 -0.0177429)
(-0.175253 0.0426417 -0.000992252)
(-0.176007 0.0266833 -0.00195224)
(-0.174656 0.0161325 -0.00288902)
(-0.173008 0.00964306 -0.0038049)
(-0.171608 0.00582982 -0.00469807)
(-0.170549 0.00368316 -0.00557323)
(-0.169761 0.00255972 -0.00643551)
(-0.169135 0.00207779 -0.00728829)
(-0.168578 0.00201467 -0.00813329)
(-0.168017 0.00223245 -0.00897068)
(-0.167409 0.0026259 -0.00979936)
(-0.166743 0.00308102 -0.0106171)
(-0.166052 0.00343456 -0.0114212)
(-0.165421 0.00342618 -0.0122091)
(-0.165004 0.00263584 -0.0129799)
(-0.165015 0.000400336 -0.0137379)
(-0.16565 -0.00427688 -0.014499)
(-0.166928 -0.0127446 -0.0152936)
(-0.168283 -0.0265854 -0.016176)
(-0.167462 -0.0469457 -0.017269)
(-0.159836 0.0436237 -0.000485189)
(-0.154908 0.0240316 -0.00169031)
(-0.149755 0.0130435 -0.00275618)
(-0.145995 0.00713918 -0.00374286)
(-0.143467 0.00402568 -0.00467133)
(-0.141808 0.00241753 -0.0055636)
(-0.140684 0.00163104 -0.00643429)
(-0.13984 0.00131664 -0.00729089)
(-0.139098 0.00129612 -0.00813658)
(-0.13834 0.00147311 -0.00897155)
(-0.13749 0.00178319 -0.00979368)
(-0.136514 0.00216048 -0.0105989)
(-0.135434 0.00250646 -0.0113816)
(-0.134352 0.00264932 -0.0121354)
(-0.133492 0.00227842 -0.0128544)
(-0.133249 0.000828511 -0.0135377)
(-0.134178 -0.00271121 -0.0142003)
(-0.136969 -0.0100253 -0.0148754)
(-0.142109 -0.0238165 -0.0156332)
(-0.147658 -0.047744 -0.0167095)
(-0.12672 0.0374859 -0.000202463)
(-0.114389 0.0161101 -0.00167978)
(-0.106172 0.00712443 -0.00279375)
(-0.101581 0.00331418 -0.00378804)
(-0.0989606 0.00165111 -0.00470921)
(-0.0974166 0.00091588 -0.00559198)
(-0.096441 0.000600915 -0.00645587)
(-0.0957294 0.000496202 -0.00730847)
(-0.0950972 0.000514853 -0.00815185)
(-0.0944255 0.00061952 -0.00898482)
(-0.0936338 0.000791014 -0.00980359)
(-0.0926739 0.00101219 -0.0106019)
(-0.0915372 0.00125459 -0.0113708)
(-0.0902822 0.0014587 -0.0120989)
(-0.0890896 0.00149342 -0.0127729)
(-0.088353 0.00106405 -0.0133815)
(-0.0887595 -0.000510796 -0.0139327)
(-0.0916231 -0.00485261 -0.0144319)
(-0.0994297 -0.0155319 -0.0149233)
(-0.113269 -0.0405776 -0.0158029)
(-0.064489 0.022968 -0.000853568)
(-0.0481151 0.00662337 -0.0023235)
(-0.0414025 0.00202033 -0.00307746)
(-0.0389683 0.00064955 -0.00382595)
(-0.037911 0.00022398 -0.00459078)
(-0.0373707 9.35478e-05 -0.00536846)
(-0.0370485 5.85257e-05 -0.00615677)
(-0.0368045 5.78513e-05 -0.00695053)
(-0.0365643 7.45559e-05 -0.00774469)
(-0.0362792 0.000105286 -0.00853425)
(-0.0359099 0.000150813 -0.00931297)
(-0.035422 0.00021304 -0.0100722)
(-0.0347876 0.000293388 -0.0107997)
(-0.0339935 0.000389508 -0.0114777)
(-0.0330625 0.000484904 -0.0120809)
(-0.0321056 0.000517136 -0.0125734)
(-0.0314666 0.000261376 -0.0129077)
(-0.0321089 -0.00113965 -0.0130473)
(-0.0377272 -0.00641603 -0.0128711)
(-0.0564434 -0.0257097 -0.0130114)
(-0.0306798 0.000692057 1.69136e-06)
(-0.0326564 0.000501007 1.18443e-06)
(-0.0340652 0.000342549 7.85157e-07)
(-0.0350267 0.000224321 4.9663e-07)
(-0.0356664 0.000144069 3.05677e-07)
(-0.0360935 9.51455e-05 1.90719e-07)
(-0.0363952 7.04622e-05 1.3104e-07)
(-0.0366383 6.43826e-05 1.10931e-07)
(-0.0368738 7.30735e-05 1.19743e-07)
(-0.0371413 9.4008e-05 1.50698e-07)
(-0.037471 0.000125032 1.99028e-07)
(-0.037883 0.000163182 2.59714e-07)
(-0.0383829 0.00020333 3.25127e-07)
(-0.0389538 0.000236771 3.82611e-07)
(-0.039545 0.000250023 4.11177e-07)
(-0.0400601 0.00022447 3.76911e-07)
(-0.0403466 0.000138148 2.3732e-07)
(-0.0401947 -2.85306e-05 -3.38734e-08)
(-0.039356 -0.000287416 -5.11145e-07)
(-0.0375907 -0.000627087 -1.22993e-06)
(-0.0802351 0.00439182 -1.51253e-06)
(-0.0851222 0.00324844 -1.26311e-06)
(-0.0886351 0.00228945 -9.99849e-07)
(-0.0910667 0.00155899 -7.649e-07)
(-0.0927143 0.0010477 -5.73187e-07)
(-0.0938359 0.000720921 -4.32208e-07)
(-0.0946367 0.000539283 -3.41672e-07)
(-0.0952728 0.000468895 -2.95821e-07)
(-0.095861 0.000483702 -2.86549e-07)
(-0.0964877 0.000563246 -3.04354e-07)
(-0.0972125 0.000688065 -3.37669e-07)
(-0.0980664 0.000833897 -3.71198e-07)
(-0.0990426 0.000965378 -3.84082e-07)
(-0.100081 0.00103014 -3.48678e-07)
(-0.101045 0.000955012 -2.30973e-07)
(-0.101703 0.000647378 4.66022e-09)
(-0.10171 6.60384e-06 3.81523e-07)
(-0.100615 -0.00104987 8.90971e-07)
(-0.0979032 -0.00254837 1.5013e-06)
(-0.0930909 -0.00440637 2.07545e-06)
(-0.119465 0.011492 -1.87877e-07)
(-0.12612 0.00848321 -3.2594e-07)
(-0.130795 0.00598329 -3.57511e-07)
(-0.133969 0.00408976 -3.40175e-07)
(-0.136087 0.00276531 -2.91068e-07)
(-0.137512 0.00191306 -2.32854e-07)
(-0.138518 0.0014277 -1.80027e-07)
(-0.139303 0.00121918 -1.38154e-07)
(-0.140011 0.00121715 -1.07977e-07)
(-0.140743 0.00136486 -8.7496e-08)
(-0.141565 0.00160786 -7.32285e-08)
(-0.142507 0.00188043 -6.07395e-08)
(-0.143549 0.00209125 -4.47413e-08)
(-0.14461 0.00211064 -1.86959e-08)
(-0.145513 0.00176313 2.61044e-08)
(-0.145964 0.000832391 9.6967e-08)
(-0.145523 -0.00091127 1.8986e-07)
(-0.143604 -0.00365192 2.98676e-07)
(-0.139521 -0.00743257 4.10804e-07)
(-0.132596 -0.0120418 3.49609e-07)
(-0.148827 0.0201182 -2.98121e-07)
(-0.156063 0.0146171 -4.79371e-07)
(-0.160869 0.01016 -4.76527e-07)
(-0.163964 0.00686039 -4.24023e-07)
(-0.165934 0.00459398 -3.37919e-07)
(-0.167205 0.00315204 -2.50451e-07)
(-0.16807 0.00233037 -1.77835e-07)
(-0.168725 0.00196381 -1.22735e-07)
(-0.169301 0.00192771 -8.34925e-08)
(-0.169886 0.00212396 -5.69826e-08)
(-0.170535 0.0024607 -3.99424e-08)
(-0.171272 0.00282949 -2.94092e-08)
(-0.17208 0.00308183 -2.25808e-08)
(-0.172886 0.00300769 -1.50558e-08)
(-0.173532 0.00232129 4.1974e-09)
(-0.173739 0.000664718 4.73503e-08)
(-0.173065 -0.00235341 1.01122e-07)
(-0.170872 -0.00706557 2.02504e-07)
(-0.166332 -0.0135859 3.96552e-07)
(-0.158519 -0.021596 3.50289e-07)
(-0.168282 0.029046 -8.07234e-07)
(-0.174841 0.0205025 -9.05078e-07)
(-0.178693 0.0138615 -7.34394e-07)
(-0.180881 0.00913198 -5.74848e-07)
(-0.182107 0.00598816 -4.05346e-07)
(-0.182806 0.00403664 -2.66873e-07)
(-0.183231 0.00293952 -1.70849e-07)
(-0.183525 0.0024453 -1.0875e-07)
(-0.183769 0.0023758 -7.13453e-08)
(-0.184014 0.00259829 -5.13999e-08)
(-0.184292 0.00299396 -4.38913e-08)
(-0.184618 0.00342566 -4.55021e-08)
(-0.184992 0.00370519 -5.37889e-08)
(-0.185384 0.00356126 -6.38617e-08)
(-0.185711 0.0026128 -5.66474e-08)
(-0.185789 0.000359283 -5.30917e-09)
(-0.185273 -0.00378766 4.87899e-08)
(-0.183566 -0.010393 1.99571e-07)
(-0.179739 -0.0197763 6.98327e-07)
(-0.172491 -0.0316465 1.0024e-06)
(-0.177416 0.0370432 -1.7198e-06)
(-0.181885 0.0249634 -1.46974e-06)
(-0.183666 0.0161526 -9.22908e-07)
(-0.184196 0.0102355 -6.18645e-07)
(-0.184209 0.00649396 -3.64634e-07)
(-0.184053 0.00426086 -1.92795e-07)
(-0.183862 0.00303931 -9.58711e-08)
(-0.183675 0.00249583 -4.44088e-08)
(-0.183495 0.00241367 -1.92467e-08)
(-0.183314 0.00264372 -9.58468e-09)
(-0.183128 0.00306109 -1.00916e-08)
(-0.182946 0.00352543 -1.88878e-08)
(-0.182785 0.00384123 -3.61194e-08)
(-0.182679 0.00371523 -6.10815e-08)
(-0.182658 0.00271167 -7.59087e-08)
(-0.182716 0.000212419 -4.57797e-08)
(-0.18272 -0.00459197 -2.48267e-08)
(-0.18226 -0.0126141 1.10035e-07)
(-0.180428 -0.0246239 1.20207e-06)
(-0.17544 -0.0406943 2.54665e-06)
(-0.175285 0.0426168 -4.57033e-06)
(-0.175992 0.0266752 -3.0224e-06)
(-0.174641 0.0161362 -1.39989e-06)
(-0.173 0.00964742 -7.30406e-07)
(-0.171604 0.00583338 -3.11125e-07)
(-0.170547 0.00368579 -9.68075e-08)
(-0.16976 0.00256154 -1.24718e-08)
(-0.169135 0.00207907 1.52675e-08)
(-0.168578 0.00201567 1.87535e-08)
(-0.168017 0.00223334 1.113e-08)
(-0.167409 0.00262678 -3.18585e-09)
(-0.166743 0.00308191 -2.37776e-08)
(-0.166052 0.0034354 -5.16891e-08)
(-0.165421 0.00342675 -8.94912e-08)
(-0.165003 0.00263585 -1.18162e-07)
(-0.165012 0.000399786 -6.03476e-08)
(-0.165643 -0.00427839 7.24614e-08)
(-0.166907 -0.0127471 3.63378e-07)
(-0.168257 -0.0265738 2.90748e-06)
(-0.167495 -0.0469099 6.99874e-06)
(-0.159896 0.0435825 -7.76067e-06)
(-0.154876 0.0240419 -3.15965e-06)
(-0.149736 0.0130653 -6.44554e-07)
(-0.14599 0.00715152 -2.45051e-07)
(-0.143465 0.00403199 3.07242e-08)
(-0.141808 0.00242095 1.27978e-07)
(-0.140684 0.001633 1.21298e-07)
(-0.13984 0.001318 9.98555e-08)
(-0.139098 0.00129737 8.28099e-08)
(-0.13834 0.00147452 7.08869e-08)
(-0.13749 0.00178492 6.11241e-08)
(-0.136514 0.00216258 4.88263e-08)
(-0.135434 0.00250883 2.66605e-08)
(-0.134352 0.00265154 -2.58666e-08)
(-0.133493 0.00227959 -1.02666e-07)
(-0.133249 0.000827097 -3.3138e-08)
(-0.134177 -0.00271972 9.70085e-08)
(-0.136948 -0.0100479 -3.60815e-07)
(-0.142063 -0.0238298 2.56857e-06)
(-0.147717 -0.047688 1.11783e-05)
(-0.126793 0.0372888 -9.69319e-06)
(-0.11432 0.0160504 4.29401e-06)
(-0.106161 0.00711333 4.81278e-06)
(-0.10159 0.00330696 2.05824e-06)
(-0.0989659 0.00164574 1.06595e-06)
(-0.0974191 0.000912525 6.47693e-07)
(-0.0964423 0.000598707 4.08132e-07)
(-0.0957298 0.00049455 3.09949e-07)
(-0.095097 0.000513414 2.98289e-07)
(-0.094425 0.000618061 3.35849e-07)
(-0.0936332 0.000789386 4.03055e-07)
(-0.0926734 0.00101034 4.82914e-07)
(-0.0915374 0.00125261 5.45691e-07)
(-0.0902838 0.00145695 5.15006e-07)
(-0.0890931 0.00149266 2.93257e-07)
(-0.0883618 0.00106526 -6.84641e-08)
(-0.0887786 -0.000507494 -1.29452e-06)
(-0.0916195 -0.00484533 -5.98337e-06)
(-0.0993394 -0.0154673 -8.12917e-06)
(-0.113321 -0.040321 1.20723e-05)
(-0.0645319 0.0228228 -5.38887e-05)
(-0.0479561 0.00655431 -9.18889e-06)
(-0.0413574 0.00199247 -6.71819e-07)
(-0.0389639 0.000633814 -1.47669e-06)
(-0.037908 0.000214806 -9.60389e-07)
(-0.0373686 8.83752e-05 -4.52357e-07)
(-0.0370476 5.53668e-05 -2.56756e-07)
(-0.0368042 5.55429e-05 -1.82572e-07)
(-0.0365642 7.24542e-05 -1.62158e-07)
(-0.0362793 0.000103002 -1.78437e-07)
(-0.0359101 0.000148108 -2.20665e-07)
(-0.0354223 0.000209815 -2.78341e-07)
(-0.034788 0.000289776 -3.36547e-07)
(-0.0339935 0.000386099 -3.69028e-07)
(-0.0330614 0.000483047 -2.85112e-07)
(-0.0321046 0.000519074 1.61625e-07)
(-0.031469 0.000270724 6.00866e-07)
(-0.032067 -0.00111601 -1.9967e-06)
(-0.0375109 -0.00634178 3.95328e-06)
(-0.0564301 -0.0255145 6.82226e-05)
(-0.0306798 0.000692056 -1.69567e-06)
(-0.0326564 0.000501007 -1.18785e-06)
(-0.0340652 0.000342548 -7.87846e-07)
(-0.0350267 0.000224321 -4.98731e-07)
(-0.0356664 0.000144069 -3.07309e-07)
(-0.0360935 9.51454e-05 -1.91986e-07)
(-0.0363952 7.04621e-05 -1.3203e-07)
(-0.0366383 6.43825e-05 -1.11718e-07)
(-0.0368738 7.30735e-05 -1.20384e-07)
(-0.0371413 9.4008e-05 -1.51244e-07)
(-0.037471 0.000125032 -1.99512e-07)
(-0.037883 0.000163182 -2.60145e-07)
(-0.0383829 0.00020333 -3.25504e-07)
(-0.0389538 0.000236771 -3.82929e-07)
(-0.039545 0.000250023 -4.11439e-07)
(-0.0400601 0.00022447 -3.77119e-07)
(-0.0403466 0.000138148 -2.37482e-07)
(-0.0401947 -2.85307e-05 3.37474e-08)
(-0.039356 -0.000287416 5.11044e-07)
(-0.0375907 -0.000627087 1.22985e-06)
(-0.0802351 0.00439182 1.5078e-06)
(-0.0851222 0.00324844 1.25938e-06)
(-0.0886351 0.00228945 9.96915e-07)
(-0.0910667 0.00155899 7.62612e-07)
(-0.0927143 0.0010477 5.71406e-07)