/*--------------------------------*- C++ -*----------------------------------*\
| =========                 |                                                 |
| \\      /  F ield         | OpenFOAM: The Open Source CFD Toolbox           |
|  \\    /   O peration     | Version:  2.4.0                                 |
|   \\  /    A nd           | Web:      www.OpenFOAM.org                      |
|    \\/     M anipulation  |                                                 |
\*---------------------------------------------------------------------------*/
FoamFile
{
    version     2.0;
    format      ascii;
    class       volScalarField;
    location    "0.0003";
    object      T;
}
// * * * * * * * * * * * * * * * * * * * * * * * * * * * * * * * * * * * * * //

dimensions      [0 0 0 1 0 0 0];

internalField   nonuniform List<scalar> 
4800
(
98.7442
96.4582
94.605
93.221
92.26
91.6464
91.302
91.1558
91.1471
91.2247
96.4582
89.9531
84.6357
80.6466
77.8765
76.1202
75.1562
74.7802
74.8128
75.1005
94.6049
84.6356
76.4283
70.2491
65.9734
63.3103
61.9288
61.5109
61.7662
62.4351
93.2209
80.6463
70.2488
62.4214
57.0632
53.8459
52.3689
52.2261
53.0229
54.3806
92.2598
77.8759
65.9726
57.0627
51.0991
47.76
46.6179
47.207
49.0309
51.5618
91.6461
76.1192
63.309
53.8447
47.7592
44.7813
44.5043
46.4389
49.9899
54.4238
91.3016
75.1549
61.927
52.367
46.6163
44.5033
45.7053
49.7701
56.0257
63.4519
91.1553
74.7786
61.5087
52.2235
47.2044
46.4369
49.7689
56.8972
67.1701
79.2321
91.1465
74.8111
61.7637
53.0198
49.0277
49.987
56.0235
67.1689
83.0754
102.287
91.2241
75.0988
62.4324
54.3773
51.5582
54.4203
63.4489
79.2298
102.286
132.323
98.7442
96.4582
94.605
93.2209
92.26
91.6465
91.302
91.1558
91.147
91.2246
96.4582
89.9531
84.6357
80.6466
77.8765
76.1202
75.1562
74.7801
74.8127
75.1005
94.6049
84.6356
76.4282
70.2491
65.9734
63.3103
61.9288
61.5109
61.7662
62.435
93.2208
80.6462
70.2488
62.4214
57.0632
53.8459
52.3689
52.2261
53.0229
54.3806
92.2597
77.8759
65.9727
57.0627
51.0991
47.76
46.618
47.207
49.0309
51.5618
91.6461
76.1192
63.3091
53.8447
47.7592
44.7813
44.5043
46.4389
49.99
54.4238
91.3016
75.155
61.9271
52.367
46.6163
44.5034
45.7054
49.7701
56.0258
63.452
91.1553
74.7787
61.5087
52.2236
47.2045
46.437
49.7691
56.8973
67.1703
79.2322
91.1465
74.8112
61.7638
53.0199
49.0278
49.9872
56.0237
67.1692
83.0756
102.287
91.2242
75.099
62.4326
54.3774
51.5584
54.4205
63.4491
79.2302
102.286
132.324
98.7442
96.4582
94.605
93.2209
92.26
91.6465
91.302
91.1558
91.147
91.2246
96.4582
89.9531
84.6357
80.6466
77.8766
76.1202
75.1562
74.7801
74.8127
75.1005
94.6049
84.6356
76.4282
70.2491
65.9734
63.3103
61.9288
61.5109
61.7662
62.435
93.2208
80.6462
70.2488
62.4214
57.0632
53.8459
52.3689
52.2261
53.0229
54.3805
92.2597
77.8759
65.9727
57.0627
51.0991
47.76
46.6179
47.207
49.0309
51.5618
91.6461
76.1192
63.309
53.8447
47.7592
44.7813
44.5043
46.4389
49.99
54.4238
91.3016
75.155
61.9271
52.367
46.6163
44.5033
45.7054
49.7701
56.0258
63.452
91.1553
74.7787
61.5087
52.2236
47.2045
46.437
49.769
56.8973
67.1703
79.2322
91.1465
74.8112
61.7638
53.0199
49.0278
49.9872
56.0237
67.1692
83.0756
102.287
91.2242
75.0989
62.4326
54.3774
51.5584
54.4205
63.4491
79.2302
102.286
132.324
98.7442
96.4582
94.605
93.2209
92.26
91.6464
91.302
91.1558
91.1471
91.2247
96.4582
89.9531
84.6357
80.6466
77.8765
76.1202
75.1562
74.7801
74.8128
75.1005
94.6049
84.6356
76.4283
70.2491
65.9734
63.3103
61.9288
61.5109
61.7662
62.4351
93.2209
80.6463
70.2488
62.4214
57.0632
53.8459
52.3689
52.2261
53.0229
54.3806
92.2598
77.8759
65.9726
57.0627
51.099
47.76
46.6179
47.207
49.0309
51.5618
91.6462
76.1192
63.309
53.8446
47.7592
44.7812
44.5042
46.4389
49.9899
54.4238
91.3016
75.1549
61.927
52.3669
46.6163
44.5033
45.7053
49.7701
56.0257
63.4519
91.1553
74.7786
61.5086
52.2235
47.2044
46.4369
49.769
56.8972
67.1702
79.2321
91.1465
74.8111
61.7637
53.0198
49.0277
49.9871
56.0235
67.169
83.0754
102.287
91.2241
75.0988
62.4324
54.3773
51.5582
54.4203
63.4489
79.2299
102.286
132.323
91.3473
91.4834
91.6122
91.7222
91.8094
91.8743
91.9202
91.9506
91.9689
91.9775
91.9775
91.9689
91.9506
91.9202
91.8743
91.8093
91.7221
91.6121
91.4832
91.347
75.5164
75.9637
76.3785
76.7274
77.0002
77.2014
77.342
77.4347
77.4901
77.5159
77.5158
77.49
77.4346
77.3418
77.201
76.9997
76.7267
76.3777
75.9627
75.5152
63.2947
64.1731
64.9598
65.6032
66.0944
66.4492
66.6928
66.851
66.9445
66.9877
66.9877
66.9444
66.8507
66.6923
66.4485
66.0935
65.602
64.9582
64.1711
63.2926
55.955
57.4752
58.7787
59.8048
60.5623
61.0933
61.4491
61.6753
61.8071
61.8674
61.8673
61.8069
61.6749
61.4484
61.0923
60.5609
59.803
58.7764
57.4726
55.9521
54.2771
56.7548
58.7735
60.2896
61.3622
62.0869
62.5573
62.849
63.0157
63.091
63.0909
63.0153
62.8484
62.5565
62.0857
61.3606
60.2875
58.7709
56.7518
54.2738
58.919
62.7839
65.7452
67.844
69.2539
70.1651
70.7351
71.0783
71.2702
71.3558
71.3556
71.2699
71.0777
70.7342
70.1639
69.2522
67.8418
65.7426
62.7808
58.9157
70.6845
76.459
80.5407
83.2271
84.9214
85.9609
86.5847
86.9483
87.147
87.2343
87.2342
87.1467
86.9478
86.5839
85.9598
84.9199
83.2251
80.5382
76.4562
70.6814
90.7162
98.8764
104.001
107.057
108.839
109.87
110.462
110.795
110.973
111.05
111.05
110.973
110.795
110.461
109.869
108.838
107.055
103.999
98.8742
90.7138
120.829
131.212
136.577
139.359
140.833
141.632
142.07
142.31
142.435
142.489
142.489
142.435
142.309
142.07
141.631
140.833
139.358
136.576
131.211
120.827
164.877
174.194
177.407
178.726
179.342
179.653
179.818
179.906
179.952
179.971
179.971
179.952
179.906
179.818
179.653
179.342
178.726
177.407
174.194
164.876
91.3472
91.4834
91.6121
91.7221
91.8092
91.8742
91.92
91.9504
91.9687
91.9772
91.9772
91.9686
91.9503
91.9198
91.8739
91.8089
91.7216
91.6116
91.4827
91.3465
75.5164
75.9636
76.3784
76.7272
77
77.2011
77.3418
77.4344
77.4898
77.5155
77.5154
77.4896
77.4341
77.3413
77.2005
76.9991
76.7261
76.377
75.962
75.5145
63.2947
64.1729
64.9597
65.6031
66.0942
66.4489
66.6925
66.8507
66.9442
66.9874
66.9873
66.9439
66.8502
66.6918
66.4479
66.0929
65.6014
64.9576
64.1704
63.2919
55.9549
57.4751
58.7786
59.8047
60.5621
61.0931
61.4488
61.6751
61.8068
61.867
61.8669
61.8065
61.6744
61.4479
61.0918
60.5604
59.8025
58.7759
57.472
55.9515
54.277
56.7547
58.7734
60.2895
61.3621
62.0867
62.5571
62.8487
63.0154
63.0907
63.0905
63.015
62.848
62.556
62.0852
61.3601
60.287
58.7703
56.7512
54.2732
58.919
62.7839
65.7452
67.8439
69.2538
70.1649
70.7349
71.078
71.2699
71.3554
71.3552
71.2694
71.0772
70.7337
70.1633
69.2517
67.8412
65.742
62.7802
58.9151
70.6845
76.459
80.5405
83.227
84.9212
85.9607
86.5844
86.948
87.1466
87.2339
87.2337
87.1461
86.9472
86.5832
85.9591
84.9192
83.2244
80.5375
76.4554
70.6807
90.7162
98.8763
104.001
107.056
108.839
109.87
110.461
110.795
110.973
111.05
111.05
110.972
110.794
110.46
109.868
108.837
107.054
103.999
98.8733
90.7129
120.829
131.212
136.577
139.359
140.833
141.631
142.069
142.309
142.434
142.488
142.488
142.434
142.308
142.069
141.63
140.832
139.357
136.575
131.21
120.826
164.877
174.194
177.407
178.726
179.342
179.653
179.818
179.906
179.951
179.97
179.97
179.951
179.905
179.817
179.653
179.341
178.725
177.406
174.193
164.876
91.3472
91.4834
91.6121
91.7221
91.8092
91.8741
91.92
91.9504
91.9687
91.9772
91.9772
91.9686
91.9502
91.9198
91.8739
91.8088
91.7216
91.6116
91.4827
91.3464
75.5164
75.9636
76.3784
76.7272
77
77.2011
77.3417
77.4344
77.4897
77.5155
77.5154
77.4896
77.4341
77.3413
77.2005
76.9991
76.726
76.377
75.9619
75.5145
63.2946
64.1729
64.9597
65.6031
66.0942
66.4489
66.6925
66.8507
66.9442
66.9874
66.9873
66.9439
66.8502
66.6918
66.4479
66.0929
65.6014
64.9576
64.1704
63.2918
55.9549
57.4751
58.7785
59.8047
60.5621
61.0931
61.4488
61.675
61.8068
61.867
61.8669
61.8065
61.6744
61.4479
61.0918
60.5604
59.8025
58.7759
57.472
55.9515
54.277
56.7547
58.7734
60.2895
61.3621
62.0867
62.5571
62.8487
63.0154
63.0907
63.0905
63.015
62.848
62.556
62.0852
61.3601
60.287
58.7703
56.7512
54.2732
58.919
62.7839
65.7451
67.8438
69.2538
70.1649
70.7349
71.078
71.2699
71.3554
71.3552
71.2694
71.0772
70.7337
70.1633
69.2516
67.8412
65.7419
62.7802
58.9151
70.6845
76.4589
80.5405
83.2269
84.9212
85.9606
86.5844
86.9479
87.1466
87.2338
87.2337
87.1461
86.9471
86.5832
85.9591
84.9192
83.2244
80.5375
76.4554
70.6807
90.7162
98.8763
104.001
107.056
108.839
109.87
110.461
110.795
110.973
111.05
111.05
110.972
110.794
110.46
109.868
108.837
107.054
103.999
98.8733
90.7129
120.829
131.212
136.577
139.359
140.833
141.631
142.069
142.309
142.434
142.488
142.488
142.434
142.308
142.069
141.63
140.832
139.357
136.575
131.21
120.826
164.877
174.194
177.407
178.726
179.342
179.653
179.818
179.906
179.951
179.97
179.97
179.951
179.905
179.817
179.653
179.341
178.725
177.406
174.193
164.875
91.3473
91.4834
91.6122
91.7222
91.8094
91.8743
91.9202
91.9506
91.9689
91.9774
91.9774
91.9689
91.9506
91.9202
91.8743
91.8093
91.7221
91.6121
91.4832
91.347
75.5164
75.9637
76.3785
76.7273
77.0002
77.2013
77.342
77.4347
77.4901
77.5158
77.5158
77.49
77.4345
77.3418
77.201
76.9997
76.7267
76.3776
75.9627
75.5152
63.2947
64.173
64.9598
65.6032
66.0944
66.4491
66.6928
66.8509
66.9445
66.9877
66.9877
66.9443
66.8506
66.6923
66.4484
66.0935
65.602
64.9582
64.1711
63.2925
55.955
57.4752
58.7786
59.8048
60.5622
61.0933
61.4491
61.6753
61.8071
61.8674
61.8673
61.8068
61.6748
61.4484
61.0923
60.5609
59.803
58.7764
57.4726
55.9521
54.2771
56.7548
58.7735
60.2896
61.3622
62.0869
62.5573
62.849
63.0157
63.091
63.0909
63.0154
62.8484
62.5565
62.0857
61.3606
60.2875
58.7709
56.7518
54.2738
58.919
62.7839
65.7453
67.844
69.254
70.1651
70.7351
71.0783
71.2702
71.3558
71.3556
71.2699
71.0777
70.7342
70.1639
69.2522
67.8418
65.7426
62.7808
58.9157
70.6845
76.459
80.5407
83.2271
84.9214
85.961
86.5847
86.9483
87.147
87.2343
87.2342
87.1467
86.9478
86.5839
85.9598
84.9199
83.2252
80.5382
76.4562
70.6815
90.7162
98.8764
104.001
107.057
108.84
109.87
110.462
110.795
110.973
111.05
111.05
110.973
110.795
110.461
109.869
108.838
107.055
103.999
98.8742
90.7139
120.829
131.212
136.577
139.359
140.833
141.632
142.07
142.31
142.435
142.489
142.489
142.435
142.309
142.07
141.631
140.833
139.358
136.576
131.211
120.827
164.877
174.194
177.407
178.726
179.342
179.653
179.818
179.906
179.952
179.971
179.971
179.952
179.906
179.818
179.653
179.342
178.726
177.407
174.194
164.876
91.2244
91.1468
91.1557
91.302
91.6465
92.2601
93.2212
94.6053
96.4586
98.7444
75.0993
74.8116
74.7791
75.1554
76.1197
77.8764
80.6468
84.6361
89.9536
96.4586
62.4328
61.7641
61.5091
61.9275
63.3095
65.9731
70.2493
76.4288
84.6362
94.6053
54.3776
53.0202
52.2239
52.3673
53.845
57.063
62.4218
70.2496
80.6471
93.2213
51.5586
49.028
47.2047
46.6165
47.7595
51.0993
57.0636
65.9738
77.877
92.2603
54.4207
49.9874
46.4372
44.5035
44.7815
47.7602
53.8462
63.3107
76.1206
91.6468
63.4493
56.0239
49.7693
45.7056
44.5045
46.6182
52.3692
61.9292
75.1566
91.3024
79.2304
67.1694
56.8975
49.7704
46.4391
47.2072
52.2264
61.5113
74.7806
91.1562
102.286
83.076
67.1706
56.026
49.9902
49.0311
53.0232
61.7666
74.8132
91.1474
132.324
102.287
79.2326
63.4523
54.4241
51.5621
54.3809
62.4354
75.1009
91.225
91.2238
91.1462
91.155
91.3013
91.6458
92.2594
93.2205
94.6046
96.4579
98.7439
75.0985
74.8107
74.7782
75.1545
76.1188
77.8755
80.6458
84.6351
89.9526
96.4579
62.4321
61.7633
61.5083
61.9266
63.3086
65.9722
70.2484
76.4278
84.6352
94.6046
54.377
53.0195
52.2232
52.3666
53.8442
57.0622
62.421
70.2487
80.6461
93.2206
51.558
49.0274
47.2041
46.6159
47.7588
51.0986
57.0628
65.9729
77.8761
92.2596
54.4201
49.9868
46.4366
44.503
44.7809
47.7596
53.8455
63.3098
76.1197
91.6461
63.4486
56.0232
49.7686
45.705
44.5039
46.6176
52.3685
61.9284
75.1558
91.3017
79.2296
67.1686
56.8968
49.7697
46.4385
47.2066
52.2257
61.5104
74.7797
91.1555
102.285
83.075
67.1698
56.0253
49.9895
49.0305
53.0225
61.7657
74.8123
91.1467
132.323
102.286
79.2316
63.4515
54.4234
51.5614
54.3801
62.4345
75.1
91.2243
91.2238
91.1462
91.155
91.3013
91.6458
92.2594
93.2205
94.6046
96.4579
98.7439
75.0984
74.8107
74.7782
75.1545
76.1188
77.8754
80.6458
84.6351
89.9526
96.4579
62.4321
61.7633
61.5083
61.9266
63.3086
65.9722
70.2484
76.4278
84.6352
94.6046
54.377
53.0195
52.2232
52.3666
53.8442
57.0622
62.421
70.2487
80.6461
93.2206
51.558
49.0274
47.2041
46.6159
47.7588
51.0986
57.0628
65.9729
77.8761
92.2596
54.4201
49.9868
46.4366
44.503
44.7809
47.7596
53.8454
63.3098
76.1197
91.6461
63.4486
56.0232
49.7686
45.705
44.5039
46.6175
52.3685
61.9284
75.1558
91.3017
79.2296
67.1686
56.8968
49.7697
46.4385
47.2066
52.2257
61.5104
74.7797
91.1555
102.285
83.075
67.1697
56.0253
49.9895
49.0305
53.0224
61.7657
74.8123
91.1467
132.323
102.286
79.2316
63.4515
54.4234
51.5614
54.3801
62.4345
75.1
91.2243
91.2244
91.1468
91.1557
91.302
91.6465
92.2601
93.2212
94.6053
96.4586
98.7444
75.0992
74.8115
74.7791
75.1554
76.1197
77.8764
80.6468
84.6361
89.9536
96.4586
62.4328
61.7641
61.5091
61.9274
63.3094
65.9731
70.2493
76.4288
84.6362
94.6053
54.3776
53.0202
52.2238
52.3673
53.845
57.063
62.4218
70.2496
80.6471
93.2213
51.5586
49.028
47.2047
46.6165
47.7595
51.0993
57.0636
65.9738
77.877
92.2603
54.4207
49.9874
46.4371
44.5035
44.7815
47.7602
53.8462
63.3107
76.1207
91.6468
63.4493
56.0239
49.7693
45.7056
44.5045
46.6182
52.3692
61.9292
75.1567
91.3024
79.2305
67.1695
56.8975
49.7704
46.4391
47.2072
52.2264
61.5113
74.7806
91.1562
102.286
83.076
67.1706
56.0261
49.9902
49.0312
53.0232
61.7666
74.8132
91.1474
132.324
102.287
79.2326
63.4523
54.4242
51.5621
54.3809
62.4355
75.101
91.225
164.878
120.83
90.7169
70.685
58.9194
54.2774
55.9553
63.2951
75.5168
91.3476
174.195
131.213
98.877
76.4595
62.7843
56.7551
57.4755
64.1734
75.9641
91.4837
177.408
136.578
104.002
80.5411
65.7456
58.7738
58.7789
64.9601
76.3789
91.6125
178.727
139.36
107.057
83.2275
67.8443
60.2898
59.805
65.6035
76.7277
91.7225
179.342
140.834
108.84
84.9217
69.254
61.3622
60.5623
66.0945
77.0004
91.8096
179.654
141.632
109.87
85.9609
70.1649
62.0866
61.093
66.449
77.2014
91.8745
179.818
142.07
110.461
86.5842
70.7343
62.5564
61.4482
66.6922
77.3418
91.9203
179.906
142.309
110.794
86.9468
71.0764
62.847
61.6736
66.8496
77.434
91.9505
179.952
142.434
110.971
87.1438
71.2665
63.0119
61.8037
66.9419
77.4886
91.9686
179.97
142.486
111.046
87.2281
71.3488
63.084
61.8612
66.9829
77.5129
91.9766
179.969
142.483
111.041
87.2227
71.343
63.0784
61.8563
66.9791
77.5106
91.9758
179.948
142.424
110.956
87.126
71.2474
62.9934
61.7876
66.9295
77.4807
91.9659
179.9
142.29
110.765
86.911
71.0383
62.8104
61.6416
66.8251
77.4185
91.9453
179.806
142.034
110.408
86.5192
70.6658
62.491
61.3917
66.6488
77.3146
91.911
179.631
141.568
109.775
85.847
70.0459
61.9741
60.9964
66.3751
77.1552
91.8589
179.301
140.718
108.671
84.7242
69.0507
61.172
60.4
65.9711
76.9235
91.7836
178.649
139.15
106.76
82.8877
67.5002
59.9717
59.5358
65.3998
76.601
91.6796
177.258
136.194
103.479
79.9603
65.1691
58.2476
58.3371
64.6274
76.1725
91.5427
173.879
130.494
97.9574
75.4759
61.8296
55.8951
56.7586
63.6356
75.6312
91.3711
164.118
119.459
89.1125
69.0428
57.3615
52.8905
54.8061
62.4355
74.9853
91.1678
164.877
120.828
90.7156
70.6839
58.9185
54.2766
55.9545
63.2941
75.5158
91.3469
174.193
131.211
98.8756
76.4584
62.7834
56.7543
57.4746
64.1724
75.9631
91.483
177.406
136.576
104
80.5398
65.7445
58.7728
58.778
64.9591
76.3778
91.6118
178.725
139.358
107.056
83.2262
67.8431
60.2888
59.804
65.6024
76.7266
91.7217
179.341
140.832
108.838
84.9202
69.2528
61.3612
60.5613
66.0934
76.9993
91.8088
179.652
141.63
109.869
85.9594
70.1637
62.0855
61.092
66.4479
77.2003
91.8737
179.817
142.068
110.459
86.5826
70.733
62.5553
61.4472
66.6911
77.3406
91.9194
179.905
142.307
110.792
86.9452
71.0751
62.8459
61.6724
66.8485
77.4328
91.9497
179.95
142.432
110.969
87.1421
71.2651
63.0107
61.8026
66.9407
77.4873
91.9677
179.969
142.484
111.043
87.2264
71.3474
63.0828
61.86
66.9817
77.5117
91.9757
179.967
142.481
111.039
87.221
71.3416
63.0772
61.855
66.9779
77.5092
91.9749
179.946
142.422
110.954
87.1242
71.2459
62.9922
61.7864
66.9282
77.4794
91.9649
179.898
142.287
110.762
86.9091
71.0368
62.809
61.6404
66.8237
77.4172
91.9443
179.804
142.032
110.405
86.5173
70.6642
62.4897
61.3904
66.6474
77.3132
91.91
179.629
141.565
109.772
85.845
70.0444
61.9728
60.9951
66.3738
77.1538
91.8578
179.299
140.715
108.669
84.7222
69.0491
61.1707
60.3986
65.9697
76.922
91.7825
178.647
139.148
106.758
82.8857
67.4986
59.9703
59.5344
65.3983
76.5996
91.6786
177.255
136.191
103.476
79.9583
65.1675
58.2462
58.3357
64.626
76.171
91.5416
173.877
130.492
97.9551
75.4741
61.8281
55.8937
56.7572
63.6342
75.6297
91.37
164.116
119.456
89.1104
69.0411
57.3601
52.8892
54.8048
62.4341
74.9838
91.1667
164.877
120.828
90.7156
70.6839
58.9185
54.2766
55.9544
63.2941
75.5159
91.3469
174.193
131.211
98.8756
76.4584
62.7834
56.7543
57.4746
64.1724
75.9631
91.483
177.406
136.576
104
80.5398
65.7446
58.7728
58.778
64.9591
76.3779
91.6118
178.725
139.358
107.056
83.2262
67.8432
60.2888
59.804
65.6024
76.7266
91.7217
179.341
140.832
108.838
84.9202
69.2529
61.3612
60.5612
66.0935
76.9993
91.8088
179.652
141.63
109.869
85.9594
70.1637
62.0855
61.092
66.4479
77.2003
91.8737
179.817
142.068
110.459
86.5826
70.7331
62.5553
61.4471
66.6911
77.3407
91.9194
179.905
142.307
110.792
86.9452
71.0751
62.8459
61.6724
66.8485
77.4328
91.9497
179.95
142.432
110.969
87.1421
71.2651
63.0107
61.8026
66.9407
77.4874
91.9677
179.969
142.484
111.043
87.2264
71.3474
63.0828
61.86
66.9817
77.5117
91.9757
179.967
142.481
111.039
87.221
71.3416
63.0772
61.855
66.9779
77.5093
91.9749
179.946
142.422
110.954
87.1242
71.2459
62.9922
61.7863
66.9282
77.4794
91.9649
179.898
142.287
110.762
86.9091
71.0368
62.809
61.6404
66.8237
77.4172
91.9443
179.804
142.032
110.405
86.5173
70.6642
62.4897
61.3904
66.6474
77.3132
91.91
179.629
141.565
109.772
85.845
70.0444
61.9728
60.995
66.3738
77.1539
91.8578
179.299
140.715
108.669
84.7222
69.0491
61.1706
60.3986
65.9697
76.9221
91.7825
178.647
139.148
106.758
82.8857
67.4986
59.9703
59.5344
65.3984
76.5996
91.6786
177.255
136.191
103.476
79.9583
65.1675
58.2462
58.3357
64.626
76.171
91.5416
173.877
130.492
97.9551
75.4741
61.8281
55.8937
56.7572
63.6342
75.6297
91.37
164.116
119.456
89.1104
69.0411
57.3601
52.8892
54.8048
62.4341
74.9838
91.1667
164.878
120.83
90.7168
70.6849
58.9194
54.2774
55.9553
63.2951
75.5169
91.3476
174.195
131.213
98.877
76.4595
62.7843
56.7551
57.4755
64.1734
75.9642
91.4838
177.408
136.578
104.002
80.5411
65.7456
58.7738
58.7789
64.9602
76.3789
91.6126
178.727
139.36
107.057
83.2275
67.8443
60.2898
59.805
65.6035
76.7277
91.7225
179.342
140.834
108.84
84.9217
69.254
61.3622
60.5623
66.0946
77.0005
91.8096
179.654
141.632
109.87
85.9609
70.1649
62.0866
61.0931
66.449
77.2015
91.8746
179.818
142.07
110.461
86.5841
70.7343
62.5564
61.4483
66.6923
77.3419
91.9203
179.906
142.309
110.794
86.9468
71.0764
62.847
61.6736
66.8497
77.434
91.9506
179.952
142.434
110.971
87.1438
71.2665
63.0119
61.8037
66.942
77.4886
91.9686
179.97
142.486
111.046
87.2281
71.3488
63.084
61.8612
66.983
77.513
91.9767
179.969
142.483
111.041
87.2227
71.343
63.0784
61.8563
66.9792
77.5106
91.9759
179.948
142.424
110.956
87.126
71.2474
62.9935
61.7876
66.9295
77.4808
91.9659
179.9
142.29
110.765
86.911
71.0383
62.8104
61.6417
66.8251
77.4186
91.9453
179.806
142.034
110.407
86.5192
70.6658
62.491
61.3917
66.6488
77.3146
91.9111
179.631
141.568
109.775
85.847
70.0459
61.9741
60.9964
66.3752
77.1553
91.8589
179.301
140.718
108.671
84.7242
69.0507
61.172
60.4
65.9712
76.9235
91.7836
178.649
139.15
106.76
82.8877
67.5002
59.9717
59.5358
65.3998
76.6011
91.6796
177.258
136.194
103.479
79.9603
65.1691
58.2476
58.3371
64.6274
76.1725
91.5427
173.879
130.494
97.9574
75.4759
61.8296
55.8951
56.7586
63.6356
75.6312
91.3711
164.118
119.459
89.1125
69.0428
57.3615
52.8905
54.8061
62.4356
74.9853
91.1678
130.091
99.6729
76.4942
60.7681
51.9268
49.359
52.5624
61.0772
74.2612
90.9409
97.8957
78.5678
62.7053
51.759
46.0661
45.5858
50.1834
59.6452
73.5009
90.7031
71.938
59.9597
49.9081
43.1634
40.3909
41.9025
47.8507
58.2375
72.7524
90.4689
52.1819
45.0037
39.1567
35.7026
35.3491
38.5758
45.7189
56.9407
72.0593
90.2516
37.6709
33.6396
30.7041
29.6605
31.1654
35.7614
43.8883
55.8146
71.4531
90.0608
27.3297
25.3579
24.3841
25.0287
27.8855
33.5123
42.4021
54.8893
70.9507
89.9021
20.1964
19.5559
19.8702
21.653
25.4487
31.8119
41.2616
54.1705
70.5571
89.7774
15.4988
15.6926
16.8212
19.3367
23.75
30.6088
40.4436
53.6489
70.2687
89.6856
12.6707
13.3492
14.9529
17.901
22.6844
29.845
39.9182
53.3101
70.079
89.6249
11.3461
12.2465
14.0684
17.2163
22.1721
29.4745
39.6606
53.1418
69.9836
89.5976
130.089
99.6708
76.4924
60.7667
51.9256
49.3578
52.5611
61.0758
74.2597
90.9398
97.894
78.5662
62.7039
51.7578
46.065
45.5847
50.1822
59.6438
73.4993
90.702
71.9368
59.9585
49.9071
43.1625
40.39
41.9015
47.8495
58.2361
72.7508
90.4677
52.1811
45.0029
39.1559
35.7019
35.3483
38.5749
45.7177
56.9392
72.0576
90.2503
37.6703
33.639
30.7035
29.6599
31.1647
35.7605
43.887
55.813
71.4512
90.0593
27.3293
25.3574
24.3836
25.0281
27.8849
33.5114
42.4009
54.8875
70.9486
89.9004
20.1961
19.5555
19.8698
21.6525
25.4481
31.811
41.2602
54.1685
70.5545
89.7752
15.4986
15.6923
16.8209
19.3363
23.7494
30.6079
40.4421
53.6466
70.2656
89.6828
12.6706
13.3489
14.9526
17.9006
22.6838
29.844
39.9166
53.3075
70.0752
89.6211
11.3459
12.2463
14.0681
17.2159
22.1715
29.4735
39.6589
53.1391
69.9793
89.5925
130.089
99.6707
76.4924
60.7667
51.9256
49.3578
52.5611
61.0758
74.2597
90.9398
97.894
78.5662
62.704
51.7578
46.065
45.5847
50.1822
59.6438
73.4993
90.702
71.9368
59.9585
49.9071
43.1625
40.39
41.9015
47.8495
58.2361
72.7508
90.4677
52.1811
45.0029
39.1559
35.7019
35.3483
38.5749
45.7177
56.9392
72.0576
90.2503
37.6703
33.639
30.7036
29.6599
31.1647
35.7605
43.887
55.813
71.4512
90.0593
27.3293
25.3575
24.3837
25.0282
27.8849
33.5114
42.4009
54.8875
70.9486
89.9004
20.1961
19.5556
19.8698
21.6525
25.4481
31.811
41.2602
54.1684
70.5545
89.7752
15.4986
15.6923
16.8209
19.3363
23.7494
30.6078
40.4421
53.6466
70.2655
89.6828
12.6705
13.3489
14.9527
17.9006
22.6838
29.844
39.9166
53.3075
70.0752
89.6211
11.3459
12.2463
14.0682
17.2159
22.1715
29.4735
39.6589
53.1391
69.9793
89.5925
130.091
99.6728
76.4942
60.7681
51.9269
49.359
52.5624
61.0772
74.2613
90.9409
97.8957
78.5678
62.7053
51.759
46.0661
45.5858
50.1835
59.6453
73.5009
90.7031
71.938
59.9596
49.9082
43.1634
40.3909
41.9026
47.8507
58.2376
72.7524
90.4689
52.1819
45.0037
39.1567
35.7027
35.3491
38.5758
45.719
56.9407
72.0593
90.2516
37.6709
33.6396
30.7042
29.6606
31.1654
35.7614
43.8883
55.8146
71.4531
90.0608
27.3297
25.3579
24.3841
25.0287
27.8856
33.5123
42.4021
54.8893
70.9507
89.9021
20.1965
19.5559
19.8702
21.653
25.4487
31.8119
41.2616
54.1705
70.5571
89.7774
15.4988
15.6926
16.8212
19.3367
23.75
30.6088
40.4436
53.6489
70.2686
89.6856
12.6707
13.3491
14.9529
17.901
22.6844
29.845
39.9182
53.3101
70.079
89.6249
11.3461
12.2465
14.0684
17.2163
22.1721
29.4744
39.6605
53.1418
69.9836
89.5976
163.382
172.869
176.124
177.453
178.071
178.383
178.548
178.636
178.682
178.701
178.701
178.682
178.636
178.548
178.384
178.072
177.453
176.123
172.867
163.377
116.681
127.169
132.571
135.363
136.839
137.637
138.075
138.315
138.44
138.494
138.494
138.44
138.315
138.075
137.637
136.839
135.362
132.568
127.162
116.67
83.4404
91.6063
96.7286
99.7782
101.556
102.583
103.173
103.506
103.685
103.762
103.762
103.685
103.506
103.173
102.582
101.554
99.7749
96.7231
91.5974
83.4274
59.2901
64.9853
69.0203
71.6799
73.3598
74.3929
75.0149
75.3789
75.5786
75.6666
75.6665
75.5783
75.3784
75.0141
74.3916
73.3575
71.6761
69.0144
64.9766
59.2781
41.9272
45.6423
48.5184
50.5719
51.9608
52.8648
53.4347
53.7805
53.9754
54.0628
54.0627
53.9752
53.7801
53.4339
52.8635
51.9587
50.5685
48.5132
45.6349
41.9172
29.7039
31.9742
33.8793
35.3403
36.392
37.1142
37.5905
37.8903
38.0639
38.1431
38.143
38.0637
37.8899
37.5899
37.1132
36.3903
35.3376
33.8752
31.9683
29.6959
21.3409
22.613
23.7915
24.7674
25.5163
26.0593
26.4341
26.679
26.8249
26.8926
26.8926
26.8249
26.6789
26.4339
26.0588
25.5153
24.7656
23.7885
22.6084
21.3343
15.8657
16.4846
17.1633
17.786
18.3011
18.6974
18.9844
19.1792
19.2986
19.355
19.3551
19.2987
19.1793
18.9845
18.6973
18.3006
17.7849
17.161
16.4807
15.8596
12.5834
12.8121
13.183
13.5801
13.9401
14.2353
14.4597
14.6177
14.717
14.7648
14.7648
14.7172
14.618
14.4601
14.2356
13.94
13.5794
13.1811
12.8085
12.5773
11.0501
11.0972
11.3222
11.6103
11.8937
12.138
12.3301
12.4688
12.5575
12.6005
12.6006
12.5577
12.4692
12.3306
12.1384
11.8938
11.6098
11.3205
11.0936
11.0437
163.384
172.87
176.125
177.454
178.072
178.384
178.548
178.636
178.682
178.701
178.701
178.681
178.636
178.548
178.383
178.071
177.452
176.122
172.865
163.375
116.683
127.171
132.573
135.365
136.841
137.638
138.076
138.315
138.44
138.494
138.494
138.44
138.314
138.074
137.636
136.838
135.36
132.566
127.161
116.668
83.4417
91.6076
96.7299
99.7792
101.557
102.584
103.174
103.507
103.685
103.762
103.762
103.684
103.506
103.172
102.581
101.553
99.7738
96.722
91.5962
83.4261
59.2911
64.9863
69.0212
71.6807
73.3605
74.3935
75.0153
75.3791
75.5787
75.6666
75.6664
75.5781
75.378
75.0136
74.391
73.3568
71.6753
69.0135
64.9757
59.2772
41.928
45.643
48.519
50.5725
51.9613
52.8652
53.435
53.7807
53.9755
54.0628
54.0626
53.975
53.7798
53.4335
52.863
51.9582
50.5679
48.5125
45.6342
41.9166
29.7044
31.9747
33.8797
35.3407
36.3923
37.1145
37.5907
37.8904
38.064
38.1431
38.143
38.0636
37.8898
37.5896
37.1129
36.39
35.3372
33.8748
31.9679
29.6955
21.3413
22.6133
23.7918
24.7676
25.5165
26.0595
26.4343
26.6791
26.8249
26.8926
26.8925
26.8248
26.6788
26.4337
26.0586
25.5151
24.7653
23.7882
22.6081
21.334
15.866
16.4848
17.1635
17.7862
18.3012
18.6975
18.9845
19.1793
19.2986
19.355
19.355
19.2986
19.1792
18.9844
18.6971
18.3005
17.7847
17.1608
16.4805
15.8595
12.5836
12.8123
13.1831
13.5802
13.9402
14.2354
14.4598
14.6177
14.7171
14.7648
14.7648
14.7172
14.6179
14.46
14.2355
13.9399
13.5793
13.181
12.8084
12.5772
11.0503
11.0973
11.3223
11.6104
11.8938
12.138
12.3302
12.4688
12.5575
12.6005
12.6006
12.5577
12.4691
12.3305
12.1383
11.8937
11.6097
11.3204
11.0934
11.0436
163.384
172.87
176.125
177.454
178.072
178.384
178.548
178.636
178.682
178.701
178.701
178.681
178.636
178.548
178.383
178.071
177.452
176.122
172.865
163.375
116.683
127.171
132.573
135.365
136.841
137.638
138.076
138.315
138.44
138.494
138.494
138.44
138.314
138.074
137.636
136.838
135.36
132.566
127.161
116.668
83.4417
91.6076
96.7299
99.7792
101.557
102.584
103.174
103.507
103.685
103.762
103.762
103.684
103.506
103.172
102.581
101.553
99.7738
96.722
91.5962
83.4261
59.2911
64.9863
69.0212
71.6807
73.3605
74.3935
75.0153
75.3791
75.5787
75.6666
75.6664
75.5781
75.378
75.0136
74.391
73.3568
71.6753
69.0135
64.9756
59.2772
41.928
45.643
48.519
50.5725
51.9613
52.8652
53.435
53.7807
53.9755
54.0628
54.0626
53.975
53.7798
53.4335
52.863
51.9582
50.5679
48.5125
45.6342
41.9166
29.7044
31.9747
33.8797
35.3406
36.3923
37.1144
37.5906
37.8904
38.0639
38.1431
38.143
38.0636
37.8897
37.5896
37.1129
36.39
35.3372
33.8748
31.9678
29.6954
21.3413
22.6133
23.7917
24.7676
25.5165
26.0594
26.4342
26.6791
26.8249
26.8926
26.8925
26.8247
26.6788
26.4337
26.0586
25.515
24.7653
23.7882
22.6081
21.334
15.866
16.4848
17.1635
17.7862
18.3012
18.6975
18.9845
19.1793
19.2986
19.355
19.355
19.2986
19.1793
18.9844
18.6971
18.3005
17.7847
17.1608
16.4805
15.8594
12.5836
12.8123
13.1832
13.5803
13.9402
14.2355
14.4598
14.6178
14.7171
14.7648
14.7649
14.7173
14.618
14.46
14.2355
13.9399
13.5793
13.181
12.8084
12.5771
11.0503
11.0973
11.3224
11.6105
11.8938
12.1381
12.3302
12.4689
12.5575
12.6006
12.6007
12.5578
12.4692
12.3306
12.1383
11.8937
11.6097
11.3204
11.0934
11.0436
163.382
172.869
176.124
177.453
178.071
178.383
178.548
178.636
178.682
178.701
178.701
178.682
178.636
178.548
178.384
178.072
177.453
176.123
172.867
163.377
116.681
127.169
132.571
135.363
136.839
137.637
138.075
138.315
138.44
138.494
138.494
138.44
138.315
138.075
137.637
136.839
135.362
132.568
127.162
116.67
83.4403
91.6062
96.7287
99.7781
101.556
102.583
103.173
103.506
103.685
103.762
103.762
103.685
103.506
103.172
102.582
101.554
99.7748
96.7231
91.5974
83.4274
59.2901
64.9853
69.0203
71.6799
73.3598
74.3929
75.0148
75.3788
75.5785
75.6666
75.6665
75.5783
75.3784
75.014
74.3915
73.3575
71.6761
69.0144
64.9766
59.2781
41.9273
45.6423
48.5184
50.5719
51.9608
52.8648
53.4346
53.7805
53.9753
54.0627
54.0627
53.9751
53.78
53.4338
52.8634
51.9586
50.5685
48.5131
45.6348
41.9172
29.7039
31.9742
33.8793
35.3402
36.3919
37.1141
37.5904
37.8902
38.0638
38.143
38.143
38.0637
37.8899
37.5898
37.1132
36.3903
35.3376
33.8752
31.9683
29.6959
21.3409
22.613
23.7914
24.7673
25.5163
26.0592
26.4341
26.679
26.8248
26.8926
26.8926
26.8248
26.6789
26.4339
26.0588
25.5153
24.7655
23.7885
22.6084
21.3343
15.8657
16.4846
17.1633
17.786
18.3011
18.6974
18.9844
19.1792
19.2986
19.355
19.3551
19.2987
19.1794
18.9845
18.6973
18.3007
17.7849
17.1611
16.4808
15.8597
12.5835
12.8121
13.183
13.5802
13.9402
14.2354
14.4598
14.6178
14.7171
14.7649
14.7649
14.7173
14.6181
14.4602
14.2357
13.9401
13.5795
13.1812
12.8086
12.5773
11.0502
11.0972
11.3223
11.6104
11.8937
12.138
12.3302
12.4688
12.5576
12.6006
12.6007
12.5578
12.4693
12.3307
12.1384
11.8938
11.6098
11.3205
11.0936
11.0437
90.9401
74.2607
61.0786
52.5672
49.3682
51.9409
60.7862
76.5141
99.6912
130.104
90.7021
73.4998
59.6461
50.1878
45.5948
46.0803
51.7776
62.7263
78.5882
97.9122
90.4677
72.7507
58.2377
47.8543
41.9107
40.404
43.1807
49.9278
59.9792
71.9549
90.2501
72.0573
56.9405
45.7222
38.5833
35.361
35.718
39.1739
45.0208
52.197
90.0593
71.4512
55.815
43.8921
35.7691
31.1766
29.6743
30.7189
33.6538
37.6834
89.9008
70.9502
54.8919
42.4086
33.5222
27.8979
25.0422
24.3975
25.3701
27.34
89.7768
70.5598
54.178
41.2733
31.8266
25.4645
21.6684
19.884
19.5674
20.2055
89.6867
70.2776
53.6645
40.4639
30.631
23.7716
19.3559
16.837
15.7049
15.5077
89.6296
70.0978
53.3368
39.9495
29.8767
22.7133
17.9252
14.9719
13.3631
12.6803
89.5997
70.0129
53.1804
39.7027
29.5149
22.2073
17.2448