/*--------------------------------*- C++ -*----------------------------------*\
| =========                 |                                                 |
| \\      /  F ield         | OpenFOAM: The Open Source CFD Toolbox           |
|  \\    /   O peration     | Version:  2.4.0                                 |
|   \\  /    A nd           | Web:      www.OpenFOAM.org                      |
|    \\/     M anipulation  |                                                 |
\*---------------------------------------------------------------------------*/
FoamFile
{
    version     2.0;
    format      ascii;
    class       volScalarField;
    location    "3";
    object      p;
}
// * * * * * * * * * * * * * * * * * * * * * * * * * * * * * * * * * * * * * //

dimensions      [0 2 -2 0 0 0 0];

internalField   nonuniform List<scalar> 
4800
(
3.08093e-06
-0.0015898
-0.00325971
-0.004492
-0.00496351
-0.00452365
-0.00312572
-0.000774026
0.00248649
0.00655982
0.00159484
-3.05454e-05
-0.00121613
-0.00191642
-0.00200846
-0.0013825
8.89764e-06
0.00218059
0.00512364
0.00879078
0.00330409
0.00110619
-8.71586e-05
-0.000632653
-0.000599148
7.1781e-05
0.00141148
0.00344642
0.00619811
0.00966263
0.00445595
0.00160586
0.000239213
-0.000321401
-0.00030292
0.000309304
0.00153523
0.00341994
0.00602885
0.00941769
0.00450141
0.00113449
-0.000415901
-0.00106513
-0.00115498
-0.000696704
0.000335968
0.00202674
0.00451288
0.00795695
0.00307656
-0.000597979
-0.00229914
-0.0030872
-0.0033724
-0.00317234
-0.00243209
-0.00100234
0.00136759
0.00505137
5.94163e-06
-0.00373786
-0.00553479
-0.00649733
-0.00706124
-0.00723538
-0.00691579
-0.00586155
-0.00366252
0.00048428
-0.0047152
-0.00828819
-0.0101169
-0.0112785
-0.0121991
-0.012874
-0.0131403
-0.0126543
-0.0108303
-0.00602237
-0.0109202
-0.014112
-0.0159076
-0.0172762
-0.0186101
-0.0198996
-0.0209295
-0.0212571
-0.0202006
-0.0145595
-0.0182969
-0.0209509
-0.0226502
-0.0242044
-0.0259634
-0.0279475
-0.0299568
-0.0315537
-0.0324983
-0.0280804
4.02291e-06
-0.00161054
-0.00329103
-0.00453231
-0.00500919
-0.00457161
-0.00317399
-0.00082024
0.0024446
0.00652484
0.00161266
-3.50783e-05
-0.00119883
-0.00188907
-0.00197611
-0.0013472
4.33572e-05
0.00221347
0.00515266
0.00881585
0.00333447
0.00108017
-8.84388e-05
-0.000631687
-0.000600649
7.03016e-05
0.0014097
0.00344413
0.00619511
0.00966079
0.00449997
0.00156917
0.000239273
-0.000318265
-0.000304024
0.000307693
0.00153314
0.00341665
0.00602329
0.00941281
0.00455508
0.00109131
-0.000411121
-0.00105462
-0.00114867
-0.000690686
0.000341325
0.00202985
0.00450935
0.00795014
0.00313458
-0.000645889
-0.00229291
-0.00307384
-0.00336314
-0.00316313
-0.00242308
-0.000995099
0.00136158
0.00503253
6.228e-05
-0.00378724
-0.00552815
-0.00648272
-0.00705009
-0.00722377
-0.00690291
-0.0058461
-0.00367039
0.000436515
-0.00466166
-0.00833533
-0.0101108
-0.0112643
-0.0121875
-0.0128621
-0.0131268
-0.0126303
-0.0108534
-0.00618863
-0.0108752
-0.0141546
-0.0159034
-0.0172642
-0.0185992
-0.0198877
-0.0209134
-0.0212008
-0.0201839
-0.0149327
-0.0182642
-0.0209876
-0.0226495
-0.0241976
-0.0259562
-0.0279368
-0.029934
-0.0314133
-0.0321703
-0.0281924
4.5765e-06
-0.00161022
-0.00329083
-0.00453218
-0.00500911
-0.00457157
-0.00317396
-0.000820228
0.00244461
0.00652484
0.00161298
-3.48423e-05
-0.00119866
-0.00188896
-0.00197604
-0.00134716
4.33796e-05
0.00221348
0.00515266
0.00881586
0.00333467
0.00108034
-8.83165e-05
-0.000631604
-0.000600595
7.0335e-05
0.00140972
0.00344414
0.00619512
0.00966079
0.0045001
0.00156928
0.000239356
-0.000318208
-0.000303986
0.000307718
0.00153315
0.00341665
0.00602329
0.00941281
0.00455516
0.00109138
-0.00041107
-0.00105459
-0.00114864
-0.000690671
0.000341332
0.00202986
0.00450935
0.00795013
0.00313462
-0.000645852
-0.00229288
-0.00307382
-0.00336313
-0.00316312
-0.00242308
-0.000995102
0.00136157
0.00503253
6.23008e-05
-0.00378722
-0.00552814
-0.00648271
-0.00705009
-0.00722377
-0.00690291
-0.0058461
-0.0036704
0.000436509
-0.00466165
-0.00833533
-0.0101108
-0.0112643
-0.0121875
-0.0128621
-0.0131268
-0.0126303
-0.0108534
-0.00618864
-0.0108752
-0.0141546
-0.0159034
-0.0172642
-0.0185992
-0.0198877
-0.0209134
-0.0212008
-0.0201839
-0.0149327
-0.0182642
-0.0209876
-0.0226495
-0.0241976
-0.0259562
-0.0279368
-0.029934
-0.0314133
-0.0321703
-0.0281924
5.95107e-06
-0.0015887
-0.00325913
-0.00449166
-0.00496331
-0.00452353
-0.00312566
-0.000773994
0.00248651
0.00655982
0.00159593
-2.98556e-05
-0.00121568
-0.00191614
-0.00200828
-0.0013824
8.95266e-06
0.00218062
0.00512365
0.00879079
0.00330466
0.00110663
-8.68382e-05
-0.000632441
-0.000599013
7.18613e-05
0.00141152
0.00344644
0.00619812
0.00966263
0.00445628
0.00160614
0.000239425
-0.000321255
-0.000302824
0.000309363
0.00153527
0.00341996
0.00602885
0.00941769
0.00450159
0.00113466
-0.000415772
-0.00106504
-0.00115492
-0.000696668
0.000335985
0.00202674
0.00451288
0.00795694
0.00307666
-0.00059789
-0.00229907
-0.00308715
-0.00337237
-0.00317232
-0.00243209
-0.00100234
0.00136758
0.00505136
5.98566e-06
-0.00373781
-0.00553475
-0.0064973
-0.00706123
-0.00723537
-0.00691579
-0.00586157
-0.00366254
0.000484267
-0.00471518
-0.00828817
-0.0101169
-0.0112785
-0.0121991
-0.012874
-0.0131403
-0.0126543
-0.0108303
-0.00602238
-0.0109202
-0.014112
-0.0159076
-0.0172762
-0.0186102
-0.0198996
-0.0209295
-0.0212571
-0.0202006
-0.0145595
-0.0182969
-0.0209509
-0.0226502
-0.0242044
-0.0259635
-0.0279475
-0.0299568
-0.0315537
-0.0324984
-0.0280804
0.011293
0.016499
0.0220088
0.0276948
0.0334724
0.0392924
0.0451312
0.0509832
0.0568564
0.0627707
0.0687583
0.0748646
0.0811484
0.0876801
0.0945353
0.101782
0.109459
0.117548
0.125931
0.134372
0.013085
0.0178684
0.0230113
0.0284061
0.0339704
0.0396465
0.0453983
0.0512074
0.0570702
0.0629959
0.0690057
0.0751316
0.0814158
0.0879071
0.0946552
0.101701
0.10906
0.1167
0.124524
0.132339
0.0137744
0.0183948
0.023401
0.0286898
0.0341775
0.0398022
0.0455224
0.0513138
0.0571663
0.0630824
0.0690754
0.0751682
0.0813921
0.0877843
0.094384
0.101226
0.108331
0.115685
0.123224
0.130801
0.0135456
0.0182108
0.0232676
0.0286048
0.0341332
0.0397895
0.045532
0.0513358
0.057189
0.06309
0.0690457
0.0750706
0.0811864
0.0874214
0.09381
0.100392
0.107206
0.114282
0.121615
0.129134
0.0123565
0.0173143
0.022629
0.0281762
0.0338626
0.039631
0.0454481
0.0512957
0.0571647
0.0630523
0.0689602
0.0748942
0.080865
0.0868902
0.0929989
0.0992374
0.105672
0.112392
0.119488
0.12703
0.0101581
0.0157595
0.0215764
0.0274976
0.0334451
0.0393873
0.0453148
0.0512258
0.0571198
0.0629958
0.0688508
0.0746811
0.080484
0.0862625
0.0920338
0.0978447
0.103789
0.110022
0.11677
0.124374
0.00708093
0.013812
0.0203791
0.0267925
0.0330455
0.0391717
0.0452074
0.0511768
0.0570922
0.062955
0.0687576
0.0744849
0.0801179
0.0856386
0.0910417
0.0963577
0.101697
0.10727
0.113468
0.12114
0.00353779
0.011996
0.0194656
0.0263677
0.0328638
0.039107
0.0451998
0.0511949
0.0571145
0.0629602
0.0687172
0.0743575
0.0798424
0.0851271
0.0901715
0.0949703
0.0996278
0.104369
0.109711
0.117309
0.00156774
0.0119854
0.0197712
0.0267009
0.0331355
0.039308
0.0453512
0.0513175
0.0572208
0.0630527
0.0687868
0.0743794
0.079769
0.0848762
0.0896071
0.0938849
0.0977603
0.101251
0.104709
0.111037
0.00611247
0.017296
0.0229314
0.0284595
0.0341203
0.0398773
0.0457109
0.0515843
0.0574609
0.0633038
0.0690676
0.0746893
0.0800788
0.0851065
0.089587
0.0932597
0.0957724
0.0968336
0.0956445
0.097252
0.0112667
0.0164806
0.0219966
0.0276871
0.0334677
0.0392895
0.0451292
0.0509815
0.0568545
0.0627684
0.0687553
0.0748606
0.0811434
0.0876742
0.094529
0.101776
0.109455
0.117548
0.125939
0.134391
0.0131072
0.017887
0.023026
0.0284173
0.0339788
0.0396528
0.0454033
0.0512117
0.0570744
0.0630004
0.0690106
0.075137
0.0814214
0.0879122
0.0946585
0.101701
0.109054
0.116687
0.124502
0.132309
0.0137771
0.0183996
0.0234062
0.0286948
0.0341817
0.0398056
0.0455251
0.0513158
0.0571678
0.0630837
0.0690764
0.0751691
0.0813928
0.0877845
0.0943836
0.101225
0.108328
0.115681
0.123218
0.130796
0.0135499
0.0182178
0.0232746
0.028611
0.0341381
0.0397931
0.0455346
0.0513376
0.0571903
0.0630908
0.0690463
0.075071
0.0811867
0.0874216
0.0938099
0.100391
0.107205
0.114279
0.12161
0.129129
0.0123683
0.0173276
0.0226398
0.0281846
0.0338685
0.0396349
0.0454506
0.0512973
0.0571657
0.0630531
0.0689608
0.0748949
0.0808657
0.0868912
0.0929997
0.0992375
0.105672
0.112389
0.119478
0.127015
0.0101834
0.0157811
0.0215899
0.0275067
0.0334505
0.0393901
0.0453162
0.0512264
0.0571201
0.0629959
0.068851
0.0746814
0.0804845
0.0862634
0.0920349
0.0978453
0.10379
0.11002
0.116752
0.124337
0.0071483
0.0138565
0.0203996
0.0268032
0.0330501
0.0391731
0.0452076
0.0511766
0.0570919
0.0629548
0.0687576
0.0744853
0.0801186
0.0856399
0.0910434
0.0963586
0.101696
0.107264
0.113426
0.121037
0.00365227
0.0120425
0.019475
0.0263712
0.0328633
0.0391051
0.045198
0.0511934
0.0571133
0.0629591
0.0687163
0.0743568
0.079842
0.0851275
0.090173
0.0949708
0.0996264
0.104374
0.109674
0.117145
0.0017108
0.011922
0.0197002
0.0266706
0.0331199
0.0392985
0.0453452
0.0513129
0.0572164
0.0630478
0.0687809
0.0743724
0.0797611
0.0848687
0.0896028
0.093886
0.0977794
0.101339
0.104828
0.110859
0.00695007
0.0174383
0.0229417
0.0284823
0.0341352
0.0398842
0.0457148
0.0515871
0.0574633
0.0633065
0.069071
0.0746935
0.0800839
0.0851121
0.0895913
0.0932571
0.095763
0.0968645
0.0955828
0.0961932
0.0112667
0.0164806
0.0219966
0.0276871
0.0334677
0.0392895
0.0451292
0.0509815
0.0568545
0.0627684
0.0687553
0.0748606
0.0811434
0.0876742
0.094529
0.101776
0.109455
0.117548
0.125939
0.134391
0.0131072
0.017887
0.023026
0.0284173
0.0339788
0.0396528
0.0454033
0.0512117
0.0570744
0.0630004
0.0690106
0.075137
0.0814214
0.0879122
0.0946585
0.101701
0.109054
0.116687
0.124502
0.132309
0.0137771
0.0183996
0.0234062
0.0286948
0.0341817
0.0398056
0.0455251
0.0513158
0.0571678
0.0630837
0.0690764
0.0751691
0.0813928
0.0877845
0.0943836
0.101225
0.108328
0.115681
0.123218
0.130796
0.0135499
0.0182178
0.0232746
0.028611
0.0341381
0.0397931
0.0455346
0.0513376
0.0571903
0.0630908
0.0690463
0.075071
0.0811867
0.0874216
0.0938099
0.100391
0.107205
0.114279
0.12161
0.129129
0.0123683
0.0173276
0.0226398
0.0281846
0.0338685
0.0396349
0.0454506
0.0512973
0.0571657
0.0630531
0.0689608
0.0748949
0.0808657
0.0868912
0.0929997
0.0992375
0.105672
0.112389
0.119478
0.127015
0.0101834
0.0157811
0.0215899
0.0275067
0.0334505
0.0393901
0.0453162
0.0512264
0.0571201
0.0629959
0.068851
0.0746814
0.0804845
0.0862634
0.0920349
0.0978453
0.10379
0.11002
0.116752
0.124337
0.0071483
0.0138565
0.0203996
0.0268032
0.03305
0.0391731
0.0452076
0.0511766
0.0570919
0.0629548
0.0687576
0.0744853
0.0801186
0.0856399
0.0910434
0.0963587
0.101696
0.107264
0.113426
0.121037
0.00365227
0.0120425
0.019475
0.0263712
0.0328633
0.0391051
0.045198
0.0511934
0.0571133
0.0629591
0.0687163
0.0743568
0.079842
0.0851275
0.090173
0.0949708
0.0996264
0.104374
0.109674
0.117145
0.0017108
0.011922
0.0197002
0.0266706
0.0331199
0.0392985
0.0453452
0.0513129
0.0572164
0.0630478
0.0687809
0.0743724
0.0797611
0.0848687
0.0896028
0.093886
0.0977794
0.101339
0.104828
0.110859
0.00695007
0.0174383
0.0229417
0.0284823
0.0341352
0.0398842
0.0457148
0.0515871
0.0574633
0.0633065
0.069071
0.0746935
0.0800839
0.0851121
0.0895913
0.0932571
0.095763
0.0968645
0.0955829
0.0961933
0.011293
0.016499
0.0220088
0.0276948
0.0334724
0.0392924
0.0451312
0.0509832
0.0568564
0.0627707
0.0687583
0.0748646
0.0811484
0.0876801
0.0945353
0.101782
0.109459
0.117548
0.125931
0.134372
0.013085
0.0178684
0.0230113
0.0284061
0.0339704
0.0396465
0.0453983
0.0512074
0.0570702
0.0629959
0.0690057
0.0751316
0.0814158
0.0879071
0.0946552
0.101701
0.10906
0.1167
0.124524
0.132339
0.0137744
0.0183948
0.023401
0.0286898
0.0341775
0.0398022
0.0455224
0.0513138
0.0571663
0.0630824
0.0690754
0.0751682
0.0813921
0.0877843
0.094384
0.101226
0.108331
0.115685
0.123224
0.130801
0.0135456
0.0182108
0.0232676
0.0286048
0.0341332
0.0397894
0.045532
0.0513358
0.057189
0.06309
0.0690457
0.0750706
0.0811864
0.0874214
0.09381
0.100392
0.107206
0.114282
0.121615
0.129134
0.0123565
0.0173143
0.022629
0.0281762
0.0338626
0.039631
0.0454481
0.0512957
0.0571647
0.0630523
0.0689602
0.0748942
0.080865
0.0868903
0.0929989
0.0992374
0.105672
0.112392
0.119488
0.12703
0.010158
0.0157594
0.0215764
0.0274976
0.0334451
0.0393873
0.0453148
0.0512258
0.0571198
0.0629958
0.0688508
0.0746811
0.080484
0.0862625
0.0920338
0.0978447
0.103789
0.110022
0.11677
0.124374
0.00708091
0.013812
0.020379
0.0267925
0.0330455
0.0391717
0.0452074
0.0511768
0.0570922
0.062955
0.0687576
0.0744849
0.0801179
0.0856386
0.0910417
0.0963577
0.101697
0.10727
0.113468
0.12114
0.00353778
0.011996
0.0194656
0.0263677
0.0328638
0.039107
0.0451998
0.0511948
0.0571145
0.0629602
0.0687172
0.0743575
0.0798424
0.0851272
0.0901715
0.0949703
0.0996278
0.104369
0.109711
0.117309
0.00156773
0.0119854
0.0197711
0.0267009
0.0331355
0.039308
0.0453512
0.0513175
0.0572208
0.0630527
0.0687868
0.0743794
0.079769
0.0848762
0.0896071
0.0938849
0.0977603
0.101251
0.104709
0.111037
0.00611247
0.017296
0.0229314
0.0284595
0.0341203
0.0398772
0.0457109
0.0515843
0.0574609
0.0633038
0.0690676
0.0746893
0.0800788
0.0851065
0.089587
0.0932597
0.0957724
0.0968336
0.0956445
0.0972521
0.142503
0.149881
0.156089
0.160813
0.163888
0.165317
0.165274
0.164123
0.162414
0.160822
0.139851
0.146691
0.152517
0.15707
0.160213
0.161949
0.162422
0.161924
0.160787
0.159226
0.138152
0.144896
0.150688
0.155273
0.158512
0.160398
0.161056
0.16073
0.159601
0.157555
0.136598
0.143527
0.149526
0.15431
0.157724
0.159749
0.160495
0.160185
0.158901
0.156322
0.134838
0.142192
0.148604
0.153745
0.157438
0.15966
0.160515
0.160221
0.158811
0.155852
0.132854
0.1409
0.147927
0.15357
0.157638
0.160119
0.161129
0.160894
0.15944
0.156295
0.130843
0.139868
0.147658
0.153887
0.158377
0.161153
0.162358
0.162239
0.160837
0.157698
0.129244
0.139536
0.148139
0.154938
0.159806
0.162845
0.164248
0.164281
0.163018
0.160059
0.128298
0.140586
0.149956
0.157132
0.162174
0.165334
0.166863
0.167043
0.165974
0.163334
0.13271
0.146214
0.154752
0.161271
0.165856
0.168782
0.170262
0.170522
0.169659
0.167429
0.142536
0.149927
0.156143
0.160872
0.163947
0.165371
0.165318
0.164154
0.162431
0.160821
0.139814
0.146649
0.15247
0.157021
0.160166
0.161906
0.162386
0.161898
0.160782
0.159205
0.138153
0.1449
0.150695
0.15528
0.158519
0.160403
0.161056
0.160729
0.159618
0.157523
0.136605
0.143539
0.149541
0.154325
0.157737
0.15976
0.160499
0.160186
0.158928
0.156282
0.134846
0.142203
0.148616
0.153757
0.157448
0.159666
0.160514
0.160219
0.158843
0.155806
0.132864
0.140912
0.147939
0.153581
0.157647
0.160125
0.161128
0.160893
0.159476
0.156247
0.130866
0.139884
0.147671
0.1539
0.158386
0.161158
0.162356
0.162237
0.160872
0.15765
0.129385
0.139592
0.148163
0.154953
0.159813
0.162848
0.164245
0.164279
0.163051
0.160013
0.128626
0.140603
0.149933
0.157124
0.162168
0.165331
0.166858
0.16704
0.166003
0.163292
0.132599
0.145841
0.154586
0.161223
0.165837
0.168775
0.170257
0.17052
0.169684
0.167394
0.142536
0.149927
0.156143
0.160872
0.163947
0.165371
0.165318
0.164154
0.162431
0.160821
0.139814
0.146649
0.15247
0.157021
0.160166
0.161906
0.162386
0.161898
0.160782
0.159205
0.138153
0.1449
0.150695
0.15528
0.158519
0.160403
0.161056
0.160729
0.159618
0.157523
0.136605
0.143539
0.149541
0.154325
0.157737
0.15976
0.160499
0.160186
0.158928
0.156282
0.134846
0.142203
0.148616
0.153757
0.157448
0.159666
0.160514
0.160219
0.158843
0.155806
0.132864
0.140912
0.147939
0.153581
0.157647
0.160125
0.161128
0.160893
0.159476
0.156247
0.130866
0.139884
0.147671
0.1539
0.158386
0.161158
0.162356
0.162237
0.160872
0.15765
0.129385
0.139592
0.148163
0.154953
0.159813
0.162848
0.164245
0.164279
0.163051
0.160013
0.128626
0.140603
0.149933
0.157124
0.162168
0.165331
0.166858
0.16704
0.166003
0.163292
0.132599
0.145841
0.154586
0.161223
0.165837
0.168775
0.170257
0.17052
0.169684
0.167394
0.142503
0.149881
0.156089
0.160813
0.163888
0.165317
0.165274
0.164123
0.162414
0.160822
0.139851
0.146691
0.152517
0.15707
0.160213
0.161949
0.162422
0.161924
0.160787
0.159226
0.138152
0.144896
0.150688
0.155273
0.158512
0.160398
0.161056
0.16073
0.159601
0.157555
0.136598
0.143527
0.149526
0.15431
0.157724
0.159749
0.160495
0.160185
0.158901
0.156322
0.134838
0.142192
0.148604
0.153745
0.157438
0.15966
0.160515
0.160221
0.158811
0.155852
0.132854
0.1409
0.147927
0.15357
0.157638
0.160119
0.161129
0.160894
0.15944
0.156295
0.130843
0.139868
0.147658
0.153887
0.158377
0.161153
0.162358
0.162239
0.160837
0.157698
0.129245
0.139536
0.148139
0.154938
0.159806
0.162845
0.164248
0.164281
0.163018
0.160059
0.128298
0.140586
0.149956
0.157132
0.162174
0.165334
0.166863
0.167043
0.165974
0.163334
0.13271
0.146214
0.154752
0.161271
0.165856
0.168782
0.170262
0.170522
0.169659
0.167429
0.166856
0.16231
0.164291
0.167855
0.170959
0.173186
0.174402
0.174652
0.173978
0.172194
0.177979
0.172687
0.172721
0.17457
0.176556
0.17815
0.179082
0.179296
0.178793
0.177443
0.18355
0.180428
0.180161
0.181119
0.182367
0.18347
0.184155
0.184328
0.183974
0.183008
0.189006
0.187313
0.187034
0.187516
0.188283
0.189023
0.189508
0.189643
0.189409
0.188761
0.194591
0.193708
0.193509
0.193758
0.194228
0.194713
0.195047
0.195151
0.19501
0.194611
0.200279
0.199859
0.19975
0.199887
0.200171
0.20048
0.200701
0.200778
0.200707
0.200498
0.20607
0.205918
0.205876
0.20595
0.206109
0.206287
0.206418
0.206466
0.206443
0.206379
0.211953
0.211976
0.211968
0.211988
0.212045
0.212111
0.212155
0.212166
0.212167
0.212217
0.217955
0.218085
0.218083
0.218038
0.217986
0.217932
0.217878
0.217833
0.217836
0.217968
0.224113
0.224305
0.224272
0.224129
0.223941
0.223738
0.223555
0.223424
0.223399
0.223581
0.230494
0.230696
0.230583
0.230293
0.229916
0.229515
0.229156
0.228895
0.228802
0.228992
0.23719
0.237326
0.237063
0.236556
0.235919
0.235249
0.234651
0.234204
0.233991
0.234126
0.244318
0.244263
0.243754
0.242938
0.24195
0.24093
0.240016
0.239315
0.238911
0.238898
0.252022
0.251568
0.250677
0.249442
0.248005
0.246544
0.245235
0.244205
0.243521
0.243222
0.260483
0.259251
0.257809
0.256037
0.254056
0.252082
0.250312
0.248879
0.247812
0.247028
0.269812
0.267283
0.265035
0.262614
0.260036
0.257527
0.255273
0.253386
0.251815
0.250301
0.28007
0.275332
0.272012
0.268908
0.265784
0.262833
0.260169
0.257838
0.255652
0.253086
0.290933
0.282636
0.278036
0.274398
0.270985
0.26789
0.265068
0.262421
0.25955
0.255555
0.302377
0.288208
0.281935
0.278139
0.275027
0.272434
0.270011
0.2674
0.263883
0.258055
0.313425
0.288491
0.280517
0.277962
0.276652
0.275897
0.274953
0.273118
0.269222
0.261187
0.167693
0.162453
0.164405
0.167922
0.170984
0.173198
0.174406
0.174655
0.174
0.172168
0.178121
0.172624
0.172768
0.174614
0.176577
0.178163
0.179089
0.1793
0.178812
0.177425
0.18356
0.180358
0.18017
0.18114
0.182381
0.183481
0.184162
0.184333
0.183988
0.182996
0.189029
0.187283
0.187037
0.187527
0.188292
0.189031
0.189514
0.189648
0.18942
0.188753
0.194605
0.193694
0.193509
0.193763
0.194233
0.194719
0.195052
0.195155
0.195017
0.194607
0.200284
0.199852
0.199748
0.199888
0.200174
0.200484
0.200705
0.200781
0.20071
0.200497
0.206072
0.205916
0.205875
0.20595
0.206111
0.20629
0.20642
0.206468
0.206444
0.206379
0.211953
0.211977
0.211967
0.211988
0.212046
0.212112
0.212156
0.212167
0.212166
0.212218
0.217953
0.218088
0.218082
0.218037
0.217986
0.217933
0.217879
0.217833
0.217833
0.21797
0.22411
0.224309
0.224271
0.224129
0.223941
0.223738
0.223556
0.223424
0.223395
0.223584
0.230489
0.230701
0.230583
0.230292
0.229916
0.229515
0.229156
0.228895
0.228798
0.228997
0.237184
0.23733
0.237062
0.236555
0.235918
0.235249
0.234651
0.234205
0.233987
0.234132
0.244312
0.244265
0.243752
0.242936
0.241949
0.240929
0.240016
0.239316
0.238909
0.238903
0.252018
0.251563
0.250673
0.249439
0.248002
0.246542
0.245235
0.244206
0.243523
0.243226
0.260482
0.259233
0.257803
0.256033
0.254052
0.25208
0.250312
0.248882
0.247821
0.247029
0.269825
0.267245
0.265028
0.262611
0.260031
0.257525
0.255273
0.253391
0.251836
0.250296
0.280122
0.275263
0.272006
0.268907
0.265779
0.262831
0.26017
0.257846
0.255691
0.253072
0.290999
0.282462
0.278012
0.274396
0.270977
0.267889
0.26507
0.262434
0.259614
0.255527
0.302494
0.287884
0.28194
0.278182
0.275041
0.272447
0.270019
0.267421
0.263982
0.258006
0.314756
0.288597
0.280811
0.278146
0.27672
0.27593
0.274969
0.273148
0.269364
0.26111
0.167693
0.162453
0.164405
0.167922
0.170984
0.173198
0.174406
0.174655
0.174
0.172168
0.178121
0.172624
0.172768
0.174614
0.176577
0.178163
0.179089
0.1793
0.178812
0.177425
0.18356
0.180358
0.18017
0.18114
0.182381
0.183481
0.184162
0.184333
0.183988
0.182996
0.189029
0.187283
0.187037
0.187527
0.188292
0.189031
0.189514
0.189648
0.18942
0.188753
0.194605
0.193694
0.193509
0.193763
0.194233
0.194719
0.195052
0.195155
0.195017
0.194607
0.200284
0.199852
0.199748
0.199888
0.200174
0.200484
0.200705
0.200781
0.20071
0.200497
0.206072
0.205916
0.205875
0.20595
0.206111
0.20629
0.20642
0.206468
0.206444
0.206379
0.211953
0.211977
0.211967
0.211988
0.212046
0.212112
0.212156
0.212167
0.212166
0.212218
0.217953
0.218088
0.218082
0.218037
0.217986
0.217933
0.217879
0.217833
0.217833
0.21797
0.22411
0.224309
0.224271
0.224129
0.223941
0.223738
0.223556
0.223424
0.223395
0.223584
0.230489
0.230701
0.230583
0.230292
0.229916
0.229515
0.229156
0.228895
0.228798
0.228997
0.237184
0.23733
0.237062
0.236555
0.235918
0.235249
0.234651
0.234205
0.233987
0.234132
0.244312
0.244265
0.243752
0.242936
0.241949
0.240929
0.240016
0.239316
0.238909
0.238903
0.252018
0.251563
0.250673
0.249439
0.248002
0.246542
0.245235
0.244206
0.243523
0.243226
0.260482
0.259233
0.257803
0.256033
0.254052
0.25208
0.250312
0.248882
0.247821
0.247029
0.269825
0.267245
0.265028
0.262611
0.260031
0.257525
0.255273
0.253391
0.251836
0.250296
0.280122
0.275263
0.272006
0.268907
0.265779
0.262831
0.26017
0.257846
0.255691
0.253072
0.290999
0.282462
0.278012
0.274396
0.270977
0.267889
0.26507
0.262434
0.259614
0.255527
0.302494
0.287884
0.28194
0.278182
0.275041
0.272447
0.270019
0.267421
0.263982
0.258006
0.314756
0.288597
0.280811
0.278146
0.27672
0.27593
0.274969
0.273148
0.269364
0.26111
0.166856
0.16231
0.164291
0.167855
0.170959
0.173186
0.174402
0.174652
0.173978
0.172194
0.177979
0.172687
0.172721
0.17457
0.176556
0.17815
0.179082
0.179296
0.178793
0.177443
0.18355
0.180428
0.180161
0.181119
0.182367
0.18347
0.184155
0.184328
0.183974
0.183008
0.189006
0.187313
0.187034
0.187516
0.188283
0.189023
0.189508
0.189643
0.189409
0.188761
0.194591
0.193708
0.193509
0.193758
0.194228
0.194713
0.195047
0.195151
0.19501
0.194611
0.200279
0.199859
0.19975
0.199887
0.200171
0.20048
0.200701
0.200778
0.200707
0.200498
0.20607
0.205918
0.205876
0.20595
0.206109
0.206287
0.206418
0.206466
0.206443
0.206379
0.211953
0.211976
0.211968
0.211988
0.212045
0.212111
0.212155
0.212166
0.212167
0.212217
0.217955
0.218085
0.218083
0.218038
0.217986
0.217932
0.217878
0.217833
0.217836
0.217968
0.224113
0.224305
0.224272
0.224129
0.223941
0.223738
0.223555
0.223424
0.223399
0.223581
0.230494
0.230696
0.230583
0.230293
0.229916
0.229515
0.229156
0.228895
0.228802
0.228992
0.23719
0.237326
0.237063
0.236556
0.235919
0.235249
0.234651
0.234204
0.233991
0.234126
0.244318
0.244263
0.243754
0.242938
0.24195
0.24093
0.240016
0.239315
0.238911
0.238898
0.252022
0.251568
0.250677
0.249442
0.248005
0.246544
0.245235
0.244205
0.243521
0.243222
0.260483
0.259251
0.257809
0.256037
0.254056
0.252082
0.250312
0.248879
0.247812
0.247028
0.269812
0.267283
0.265035
0.262614
0.260036
0.257527
0.255273
0.253386
0.251815
0.250301
0.28007
0.275332
0.272012
0.268908
0.265784
0.262833
0.260169
0.257838
0.255652
0.253086
0.290933
0.282636
0.278036
0.274398
0.270985
0.26789
0.265068
0.262421
0.25955
0.255555
0.302377
0.288208
0.281935
0.278139
0.275027
0.272434
0.270011
0.2674
0.263883
0.258055
0.313425
0.288491
0.280517
0.277962
0.276652
0.275897
0.274953
0.273118
0.269222
0.261187
0.252878
0.2615
0.266758
0.270867
0.274429
0.277676
0.279886
0.280062
0.276415
0.26594
0.223755
0.239589
0.250829
0.260384
0.269467
0.278118
0.285191
0.28902
0.286731
0.273883
0.206289
0.221628
0.234996
0.248499
0.26296
0.27793
0.291574
0.301147
0.302003
0.287473
0.192781
0.206622
0.220817
0.23724
0.256675
0.278496
0.300342
0.318202
0.324924
0.310652
0.182947
0.195596
0.210262
0.229013
0.253004
0.281956
0.313544
0.342762
0.359473
0.349887
0.177041
0.18937
0.204859
0.225926
0.254358
0.290738
0.333666
0.37812
0.411237
0.415286
0.174881
0.187948
0.205023
0.228895
0.262114
0.306552
0.362781
0.427492
0.486724
0.521176
0.175583
0.190128
0.209359
0.23646
0.27489
0.328294
0.400339
0.491105
0.590896
0.694733
0.177516
0.193186
0.213856
0.243005
0.285053
0.345901
0.433862
0.557166
0.725995
1.00584
0.178883
0.194057
0.213541
0.240711
0.280261
0.339546
0.432561
0.586833
0.873183
1.49029
0.253217
0.261034
0.266631
0.270856
0.274427
0.277684
0.279891
0.280095
0.276611
0.265828
0.224176
0.239517
0.250764
0.26035
0.269445
0.278112
0.285184
0.289057
0.286994
0.27373
0.206544
0.221647
0.234964
0.248457
0.26292
0.277903
0.291543
0.30118
0.302343
0.287278
0.192871
0.206606
0.220765
0.237172
0.256601
0.278429
0.300267
0.318219
0.325335
0.310414
0.182974
0.195563
0.210192
0.228916
0.25289
0.281834
0.313405
0.342738
0.359906
0.349631
0.177049
0.189333
0.20478
0.225806
0.2542
0.290538
0.333424
0.378002
0.411592
0.415238
0.174895
0.187926
0.204955
0.228772
0.261916
0.306239
0.362349
0.427157
0.486701
0.521665
0.175627
0.190162
0.20938
0.23646
0.274838
0.328093
0.399961
0.49076
0.589595
0.694414
0.177584
0.193298
0.21404
0.243295
0.285484
0.346462
0.434604
0.557769
0.722763
1.00355
0.178934
0.194096
0.21356
0.240715
0.280274
0.339621
0.432919
0.587268
0.869494
1.49955
0.253217
0.261034
0.266631
0.270856
0.274427
0.277684
0.279891
0.280095
0.276611
0.265828
0.224176
0.239517
0.250764
0.26035
0.269445
0.278112
0.285184
0.289057
0.286994
0.27373
0.206544
0.221647
0.234964
0.248457
0.26292
0.277903
0.291543
0.30118
0.302343
0.287278
0.192871
0.206606
0.220765
0.237172
0.256601
0.278429
0.300267
0.318219
0.325335
0.310414
0.182974
0.195563
0.210192
0.228916
0.25289
0.281834
0.313405
0.342738
0.359906
0.349631
0.177049
0.189333
0.20478
0.225806
0.2542
0.290538
0.333424
0.378002
0.411592
0.415238
0.174895
0.187926
0.204955
0.228772
0.261916
0.306239
0.362349
0.427157
0.486701
0.521665
0.175627
0.190162
0.20938
0.23646
0.274838
0.328093
0.399961
0.49076
0.589595
0.694414
0.177584
0.193298
0.21404
0.243295
0.285484
0.346462
0.434604
0.557769
0.722763
1.00355
0.178934
0.194096
0.21356
0.240715
0.280274
0.339621
0.432919
0.587268
0.869494
1.49955
0.252878
0.2615
0.266758
0.270867
0.274429
0.277676
0.279886
0.280062
0.276415
0.26594
0.223755
0.239589
0.250829
0.260384
0.269467
0.278118
0.285191
0.28902
0.286731
0.273883
0.206289
0.221628
0.234996
0.248499
0.26296
0.27793
0.291574
0.301147
0.302003
0.287473
0.192781
0.206622
0.220817
0.23724
0.256675
0.278496
0.300342
0.318202
0.324924
0.310652
0.182947
0.195596
0.210262
0.229013
0.253004
0.281956
0.313544
0.342762
0.359473
0.349887
0.177041
0.18937
0.204859
0.225926
0.254358
0.290738
0.333666
0.37812
0.411237
0.415286
0.174881
0.187948
0.205023
0.228895
0.262114
0.306552
0.362781
0.427492
0.486724
0.521176
0.175583
0.190128
0.209359
0.23646
0.27489
0.328294
0.400339
0.491105
0.590896
0.694733
0.177516
0.193186
0.213856
0.243005
0.285053
0.345901
0.433862
0.557166
0.725995
1.00584
0.178883
0.194057
0.213541
0.240711
0.280261
0.339546
0.432561
0.586833
0.873183
1.49029
-0.153546
-0.132893
-0.11487
-0.0982434
-0.0816358
-0.0648421
-0.0478551
-0.0307105
-0.0134693
0.00379708
0.0210117
0.0381027
0.0550027
0.0716627
0.0881088
0.104528
0.121402
0.139771
0.162933
0.200682
-0.139628
-0.126147
-0.111632
-0.0963857
-0.0804597
-0.0640635
-0.0473323
-0.030363
-0.0132401
0.00396144
0.0211763
0.0383453
0.055429
0.0724301
0.0894203
0.106606
0.124384
0.143377
0.165098
0.193006
-0.136438
-0.124441
-0.110742
-0.095886
-0.0801931
-0.0639271
-0.0472608
-0.0303163
-0.0131874
0.00405107
0.0213381
0.0386246
0.055877
0.0730885
0.0902978
0.107621
0.125273
0.143547
0.163001
0.184544
-0.137642
-0.125334
-0.111455
-0.0964627
-0.080665
-0.0643013
-0.0475404
-0.0305025
-0.0132753
0.00407453
0.0214939
0.0389375
0.0563649
0.0737406
0.0910373
0.108243
0.12536
0.142388
0.159386
0.17646
-0.140354
-0.127366
-0.112994
-0.0976196
-0.0815277
-0.0649331
-0.047987
-0.0307937
-0.0134262
0.00406242
0.0216282
0.0392277
0.0568082
0.0742991
0.0916027
0.108587
0.125081
0.140879
0.155809
0.169834
-0.142804
-0.129194
-0.11435
-0.0986105
-0.0822407
-0.0654346
-0.0483251
-0.0310004
-0.0135193
0.00407567
0.0217467
0.0394483
0.0571134
0.0746389
0.0918709
0.108596
0.124543
0.139415
0.153004
0.165371
-0.143328
-0.129474
-0.114491
-0.0986694
-0.0822509
-0.0654146
-0.0482839
-0.0309406
-0.0134397
0.00417775
0.0218718
0.0395897
0.0572507
0.074729
0.0918399
0.108334
0.123915
0.138298
0.15134
0.163259
-0.141046
-0.127546
-0.112942
-0.0974676
-0.0813401
-0.0647343
-0.0477794
-0.0305669
-0.0131625
0.0043819
0.022015
0.0396717
0.057259
0.0746399
0.0916227
0.107963
0.123389
0.137681
0.150801
0.163108
-0.13597
-0.1236
-0.109969
-0.0952824
-0.0797649
-0.0636158
-0.0469946
-0.030023
-0.0127929
0.00462244
0.0221566
0.0397291
0.0572377
0.0745442
0.0914638
0.107772
0.123235
0.137688
0.151164
0.164091
-0.127732
-0.117655
-0.105778
-0.0923895
-0.0778047
-0.0623091
-0.0461374
-0.0294708
-0.0124456
0.00483283
0.0222748
0.0397988
0.0573017
0.0746481
0.0916631
0.108134
0.123832
0.138582
0.152369
0.165515
-0.153925
-0.132775
-0.114856
-0.0982657
-0.0816485
-0.0648497
-0.0478604
-0.0307139
-0.013471
0.00379671
0.0210123
0.0381035
0.0550026
0.0716598
0.0880991
0.104507
0.12138
0.139722
0.162603
0.200078
-0.13957
-0.125977
-0.111554
-0.0963489
-0.0804333
-0.0640451
-0.0473197
-0.0303544
-0.0132346
0.00396483
0.0211786
0.0383481
0.0554343
0.0724409
0.0894395
0.106638
0.124444
0.143449
0.164997
0.192748
-0.136498
-0.124416
-0.110718
-0.0958677
-0.0801783
-0.0639164
-0.0472534
-0.0303111
-0.0131838
0.00405345
0.0213396
0.0386255
0.0558777
0.0730888
0.0902964