/*--------------------------------*- C++ -*----------------------------------*\
| =========                 |                                                 |
| \\      /  F ield         | OpenFOAM: The Open Source CFD Toolbox           |
|  \\    /   O peration     | Version:  2.4.0                                 |
|   \\  /    A nd           | Web:      www.OpenFOAM.org                      |
|    \\/     M anipulation  |                                                 |
\*---------------------------------------------------------------------------*/
FoamFile
{
    version     2.0;
    format      ascii;
    class       surfaceScalarField;
    location    "3";
    object      phi;
}
// * * * * * * * * * * * * * * * * * * * * * * * * * * * * * * * * * * * * * //

dimensions      [0 3 -1 0 0 0 0];

internalField   nonuniform List<scalar> 
12720
(
1.51874e-07
-1.52552e-07
-7.36386e-11
-5.43688e-07
6.93856e-07
1.70698e-09
-2.06782e-06
1.52156e-06
2.57789e-09
-4.1739e-06
2.10276e-06
3.31689e-09
-6.62642e-06
2.44877e-06
3.75916e-09
-9.23145e-06
2.60109e-06
3.94724e-09
-1.18293e-05
2.59386e-06
3.97184e-09
-1.42817e-05
2.4486e-06
3.80313e-09
-1.64678e-05
2.18266e-06
3.44738e-09
1.8248e-06
2.87888e-09
-1.82955e-05
-7.25398e-07
5.74313e-07
-1.4657e-09
-3.28929e-06
3.25735e-06
3.93787e-10
-7.47923e-06
5.713e-06
-1.50341e-09
-1.28721e-05
7.49798e-06
-2.37616e-09
-1.9021e-05
8.60048e-06
-2.81031e-09
-2.55086e-05
9.09182e-06
-3.06667e-09
-3.19564e-05
9.04526e-06
-3.622e-09
-3.80239e-05
8.51897e-06
-2.85595e-09
-4.34167e-05
7.57796e-06
-2.52073e-09
6.33012e-06
-2.17802e-09
-4.79199e-05
-1.68837e-06
2.26518e-06
-2.49998e-09
-6.11156e-06
7.67829e-06
2.26023e-09
-1.26749e-05
1.22762e-05
1.11216e-10
-2.07847e-05
1.56078e-05
-8.39714e-11
-2.98567e-05
1.76724e-05
1.30418e-10
-3.93353e-05
1.85703e-05
1.28513e-10
-4.8695e-05
1.84047e-05
1.54321e-10
-5.74445e-05
1.72683e-05
1.99029e-10
-6.51507e-05
1.52839e-05
2.60456e-10
1.26743e-05
1.60337e-10
-7.14951e-05
-2.47838e-06
4.74719e-06
-3.62243e-09
-8.47417e-06
1.36709e-05
3.18731e-09
-1.70054e-05
2.08075e-05
-5.25781e-12
-2.72911e-05
2.58938e-05
-2.72426e-10
-3.86338e-05
2.90151e-05
9.59525e-11
-5.03815e-05
3.03178e-05
1.39965e-10
-6.19034e-05
2.99265e-05
1.82367e-10
-7.25868e-05
2.79513e-05
2.86171e-10
-8.18667e-05
2.45634e-05
4.83027e-10
2.0115e-05
4.2396e-10
-8.93078e-05
-3.03636e-06
7.78796e-06
-4.41746e-09
-1.01805e-05
2.08113e-05
3.75145e-09
-2.01496e-05
3.0777e-05
-4.15233e-10
-3.20056e-05
3.77507e-05
-9.12406e-10
-4.49629e-05
4.19729e-05
-5.48345e-10
-5.83023e-05
4.36577e-05
-5.22786e-10
-7.13161e-05
4.29408e-05
-4.65408e-10
-8.32846e-05
3.992e-05
-2.70502e-10
-9.34965e-05
3.4775e-05
3.06477e-10
2.79641e-05
5.91826e-10
-0.000101346
-3.33868e-06
1.11314e-05
-4.77411e-09
-1.11267e-05
2.85952e-05
4.162e-09
-2.19095e-05
4.15602e-05
-5.41419e-10
-3.46519e-05
5.04943e-05
-1.16048e-09
-4.85157e-05
5.58375e-05
-8.0399e-10
-6.27459e-05
5.78887e-05
-7.99981e-10
-7.65873e-05
5.6783e-05
-7.82421e-10
-8.92302e-05
5.25635e-05
-6.28711e-10
-9.9795e-05
4.53393e-05
5.22307e-10
3.55651e-05
1.63666e-09
-0.000107398
-3.37655e-06
1.45135e-05
-5.53818e-09
-1.12638e-05
3.64782e-05
4.29024e-09
-2.21737e-05
5.24707e-05
-5.76152e-10
-3.50443e-05
6.33663e-05
-1.269e-09
-4.90249e-05
6.98191e-05
-9.68763e-10
-6.3359e-05
7.22238e-05
-1.00795e-09
-7.72841e-05
7.07091e-05
-1.11845e-09
-8.99403e-05
6.52211e-05
-1.34281e-09
-0.000100282
5.56805e-05
6.83442e-10
4.22655e-05
4.14944e-09
-0.000106987
-3.15721e-06
1.76751e-05
-4.40582e-09
-1.05987e-05
4.39155e-05
4.09565e-09
-2.09285e-05
6.2801e-05
-5.29061e-10
-3.31181e-05
7.55571e-05
-1.23633e-09
-4.63329e-05
8.30349e-05
-1.01295e-09
-5.98397e-05
8.57317e-05
-1.03271e-09
-7.29116e-05
8.37821e-05
-1.17137e-09
-8.47107e-05
7.70224e-05
-2.0812e-09
-9.41124e-05
6.50802e-05
2.00807e-09
4.73154e-05
1.44439e-08
-9.91767e-05
-2.71105e-06
2.03899e-05
-3.70203e-09
-9.21583e-06
5.04166e-05
3.70134e-09
-1.83033e-05
7.18888e-05
-3.67552e-10
-2.90119e-05
8.62668e-05
-1.03788e-09
-4.05218e-05
9.45457e-05
-9.54709e-10
-5.21061e-05
9.73171e-05
-1.03759e-09
-6.30726e-05
9.475e-05
-1.39751e-09
-7.26588e-05
8.66135e-05
-4.88951e-09
-7.98796e-05
7.23024e-05
-1.44706e-09
4.96225e-05
3.24217e-08
-8.22191e-05
-2.10202e-06
-2.69016e-09
2.24946e-05
-7.30344e-06
3.1926e-09
5.56148e-05
-1.46289e-05
-6.0462e-11
7.92143e-05
-2.31878e-05
-5.91804e-10
9.48263e-05
-3.21299e-05
-6.3147e-10
0.000103489
-4.06323e-05
-9.31564e-10
0.00010582
-4.78786e-05
-1.98419e-09
0.000101998
-5.29535e-05
-1.21946e-08
9.17006e-05
-5.47482e-05
-2.84999e-08
7.41256e-05
9.72909e-09
-5.20854e-05
4.69499e-05
1.53441e-07
-1.53478e-07
-3.71064e-11
-5.44251e-07
6.99426e-07
-2.57608e-11
-2.06853e-06
1.52688e-06
-1.74629e-11
-4.17399e-06
2.10879e-06
-1.08163e-11
-6.62623e-06
2.45601e-06
-6.46185e-12
-9.23126e-06
2.60898e-06
-3.72143e-12
-1.18293e-05
2.60203e-06
-1.93022e-12
-1.42819e-05
2.45638e-06
-9.29975e-13
-1.64682e-05
2.18979e-06
-4.43918e-13
1.83077e-06
-9.06459e-14
-1.82961e-05
-7.30068e-07
5.75151e-07
-2.56807e-11
-3.29487e-06
3.26465e-06
-2.09579e-11
-7.48417e-06
5.71469e-06
-1.50115e-11
-1.28755e-05
7.49771e-06
-9.82471e-12
-1.90225e-05
8.60028e-06
-6.07781e-12
-2.55085e-05
9.09187e-06
-3.61757e-12
-3.19556e-05
9.04551e-06
-1.97286e-12
-3.80221e-05
8.52001e-06
-9.23474e-13
-4.34145e-05
7.57966e-06
-4.05055e-13
6.3317e-06
-5.94369e-14
-4.79176e-05
-1.69376e-06
2.26643e-06
-1.75967e-11
-6.11231e-06
7.68548e-06
-1.51033e-11
-1.26757e-05
1.22782e-05
-1.11178e-11
-2.07856e-05
1.56076e-05
-7.52422e-12
-2.98573e-05
1.7672e-05
-4.86255e-12
-3.93354e-05
1.85701e-05
-2.99512e-12
-4.86947e-05
1.8405e-05
-1.6025e-12
-5.7444e-05
1.72695e-05
-7.48777e-13
-6.51504e-05
1.52864e-05
-2.95097e-13
1.26766e-05
-2.64577e-15
-7.14952e-05
-2.48521e-06
4.74803e-06
-1.09225e-11
-8.47307e-06
1.36765e-05
-9.91119e-12
-1.70042e-05
2.08094e-05
-7.50013e-12
-2.72909e-05
2.5894e-05
-5.21146e-12
-3.86338e-05
2.90151e-05
-3.48734e-12
-5.03815e-05
3.03179e-05
-2.19364e-12
-6.19033e-05
2.99271e-05
-1.12912e-12
-7.25867e-05
2.79531e-05
-4.75449e-13
-8.18672e-05
2.45674e-05
-1.04592e-13
2.0119e-05
1.23322e-13
-8.93092e-05
-3.0449e-06
7.78851e-06
-6.33757e-12
-1.01792e-05
2.08146e-05
-5.96372e-12
-2.01481e-05
3.07778e-05
-4.57831e-12
-3.20053e-05
3.77503e-05
-3.1918e-12
-4.49629e-05
4.19721e-05
-2.18131e-12
-5.83025e-05
4.36569e-05
-1.32365e-12
-7.13161e-05
4.29403e-05
-5.74322e-13
-8.32842e-05
3.99208e-05
-6.90458e-14
-9.3497e-05
3.47805e-05
1.99204e-13
2.79713e-05
3.31595e-13
-0.000101349
-3.34824e-06
1.1132e-05
-3.44574e-12
-1.11254e-05
2.85959e-05
-3.28709e-12
-2.19079e-05
4.15598e-05
-2.52006e-12
-3.46519e-05
5.04931e-05
-1.72877e-12
-4.85163e-05
5.58358e-05
-1.14618e-12
-6.27469e-05
5.78867e-05
-6.04311e-13
-7.6588e-05
5.67807e-05
-7.65308e-14
-8.92299e-05
5.25621e-05
2.70445e-13
-9.97953e-05
4.53464e-05
4.64182e-13
3.55798e-05
5.11355e-13
-0.000107402
-3.38655e-06
1.4513e-05
-1.77644e-12
-1.12625e-05
3.64762e-05
-1.69178e-12
-2.21724e-05
5.24691e-05
-1.24565e-12
-3.50449e-05
6.33644e-05
-8.04796e-13
-4.90265e-05
6.98165e-05
-4.62633e-13
-6.33614e-05
7.22205e-05
-1.10925e-13
-7.72864e-05
7.07046e-05
2.13122e-13
-8.99405e-05
6.52148e-05
4.31166e-13
-0.000100281
5.56879e-05
6.06813e-13
4.22978e-05
6.54964e-13
-0.000106995
-3.16618e-06
1.76748e-05
-7.22806e-13
-1.05974e-05
4.39115e-05
-6.94659e-13
-2.09275e-05
6.27986e-05
-4.30888e-13
-3.31193e-05
7.55549e-05
-1.38218e-13
-4.63357e-05
8.30318e-05
6.95916e-14
-5.98439e-05
8.57277e-05
2.74094e-13
-7.29162e-05
8.37757e-05
3.85835e-13
-8.4711e-05
7.70075e-05
4.51497e-13
-9.40999e-05
6.50788e-05
6.29532e-13
4.7398e-05
7.51182e-13
-9.91856e-05
-2.71849e-06
2.03896e-05
-1.61584e-13
-9.2146e-06
5.04113e-05
-9.83843e-14
-1.83026e-05
7.18862e-05
1.02682e-13
-2.90138e-05
8.62652e-05
3.12005e-13
-4.05266e-05
9.45437e-05
4.53898e-13
-5.21146e-05
9.73147e-05
5.53e-13
-6.3087e-05
9.47467e-05
4.96259e-13
-7.26786e-05
8.65942e-05
3.71856e-13
-7.98558e-05
7.22546e-05
4.89079e-13
4.97399e-05
6.20067e-13
-8.21653e-05
-2.10742e-06
1.29018e-13
2.24943e-05
-7.30188e-06
1.99983e-13
5.5609e-05
-1.46276e-05
3.73454e-13
7.92119e-05
-2.31887e-05
5.35075e-13
9.48257e-05
-3.21348e-05
6.39307e-13
0.000103489
-4.06443e-05
7.09628e-13
0.000105823
-4.79074e-05
6.28749e-13
0.000102008
-5.30418e-05
3.86743e-13
9.17164e-05
-5.48889e-05
2.19178e-13
7.40733e-05
2.78519e-13
-5.18574e-05
4.67181e-05
1.53495e-07
-1.53424e-07
-1.07456e-10
-5.44212e-07
6.99452e-07
-1.77022e-09
-2.06851e-06
1.52689e-06
-2.60834e-09
-4.17398e-06
2.10879e-06
-3.33421e-09
-6.62623e-06
2.45601e-06
-3.76914e-09
-9.23125e-06
2.60898e-06
-3.95293e-09
-1.18293e-05
2.60203e-06
-3.97505e-09
-1.42819e-05
2.45638e-06
-3.80481e-09
-1.64682e-05
2.18979e-06
-3.44818e-09
1.83077e-06
-2.87921e-09
-1.82961e-05
-7.30042e-07
5.75189e-07
1.40303e-09
-3.29485e-06
3.26467e-06
-4.3321e-10
-7.48416e-06
5.7147e-06
1.47867e-09
-1.28754e-05
7.49771e-06
2.36089e-09
-1.90225e-05
8.60029e-06
2.80114e-09
-2.55085e-05
9.09187e-06
3.06145e-09
-3.19556e-05
9.04551e-06
3.6189e-09
-3.80221e-05
8.52001e-06
2.85446e-09
-4.34145e-05
7.57966e-06
2.52009e-09
6.3317e-06
2.17787e-09
-4.79176e-05
-1.69375e-06
2.26645e-06
2.47022e-09
-6.1123e-06
7.68549e-06
-2.28464e-09
-1.26757e-05
1.22782e-05
-1.28422e-10
-2.07856e-05
1.56076e-05
7.2732e-11
-2.98573e-05
1.7672e-05
-1.37413e-10
-3.93354e-05
1.85701e-05
-1.32596e-10
-4.86947e-05
1.8405e-05
-1.56604e-10
-5.7444e-05
1.72695e-05
-2.00137e-10
-6.51504e-05
1.52864e-05
-2.60837e-10
1.26766e-05
-1.60321e-10
-7.14952e-05
-2.4852e-06
4.74804e-06
3.60582e-09
-8.47306e-06
1.36765e-05
-3.20214e-09
-1.70042e-05
2.08094e-05
-5.95661e-12
-2.72909e-05
2.5894e-05
2.64769e-10
-3.86338e-05
2.90151e-05
-1.00873e-10
-5.03815e-05
3.03179e-05
-1.42895e-10
-6.19033e-05
2.99271e-05
-1.84003e-10
-7.25866e-05
2.79531e-05
-2.86895e-10
-8.18672e-05
2.45674e-05
-4.83175e-10
2.0119e-05
-4.23793e-10
-8.93092e-05
-3.04489e-06
7.78852e-06
4.40845e-09
-1.01792e-05
2.08146e-05
-3.75999e-09
-2.01481e-05
3.07778e-05
4.0842e-10
-3.20053e-05
3.77503e-05
9.0765e-10
-4.49629e-05
4.19721e-05
5.45266e-10
-5.83025e-05
4.36569e-05
5.21002e-10
-7.13161e-05
4.29403e-05
4.64511e-10
-8.32842e-05
3.99208e-05
2.70261e-10
-9.3497e-05
3.47805e-05
-3.06327e-10
2.79713e-05
-5.91463e-10
-0.000101349
-3.34824e-06
1.1132e-05
4.76955e-09
-1.11254e-05
2.85959e-05
-4.16663e-09
-2.19079e-05
4.15598e-05
5.37588e-10
-3.46519e-05
5.04931e-05
1.15784e-09
-4.85163e-05
5.58358e-05
8.02361e-10
-6.27469e-05
5.78867e-05
7.99178e-10
-7.6588e-05
5.67807e-05
7.82221e-10
-8.92299e-05
5.2562e-05
6.28929e-10
-9.97952e-05
4.53464e-05
-5.21903e-10
3.55798e-05
-1.63616e-09
-0.000107402
-3.38655e-06
1.4513e-05
5.5362e-09
-1.12625e-05
3.64761e-05
-4.29241e-09
-2.21724e-05
5.24691e-05
5.74305e-10
-3.50449e-05
6.33644e-05
1.26785e-09
-4.90265e-05
6.98164e-05
9.68232e-10
-6.33614e-05
7.22205e-05
1.00793e-09
-7.72864e-05
7.07046e-05
1.11882e-09
-8.99405e-05
6.52147e-05
1.34339e-09
-0.000100281
5.56879e-05
-6.82899e-10
4.22978e-05
-4.14894e-09
-0.000106995
-3.16617e-06
1.76748e-05
4.40528e-09
-1.05974e-05
4.39115e-05
-4.09642e-09
-2.09275e-05
6.27986e-05
5.28409e-10
-3.31193e-05
7.55549e-05
1.23613e-09
-4.63357e-05
8.30318e-05
1.01312e-09
-5.98439e-05
8.57276e-05
1.03318e-09
-7.29162e-05
8.37757e-05
1.17208e-09
-8.4711e-05
7.70075e-05
2.08198e-09
-9.40999e-05
6.50788e-05
-2.00752e-09
4.7398e-05
-1.44436e-08
-9.91856e-05
-2.71848e-06
2.03896e-05
3.70221e-09
-9.21459e-06
5.04113e-05
-3.70135e-09
-1.83026e-05
7.18862e-05
3.67608e-10
-2.90138e-05
8.62651e-05
1.03825e-09
-4.05266e-05
9.45437e-05
9.55288e-10
-5.21146e-05
9.73147e-05
1.0383e-09
-6.3087e-05
9.47467e-05
1.39836e-09
-7.26786e-05
8.65942e-05
4.8904e-09
-7.98558e-05
7.22546e-05
1.44763e-09
4.97399e-05
-3.24215e-08
-8.21653e-05
-2.10742e-06
2.69068e-09
2.24943e-05
-7.30188e-06
-3.19222e-09
5.5609e-05
-1.46276e-05
6.09176e-11
7.92119e-05
-2.31887e-05
5.92467e-10
9.48257e-05
-3.21348e-05
6.32223e-10
0.000103489
-4.06443e-05
9.32321e-10
0.000105823
-4.79074e-05
1.98497e-09
0.000102008
-5.30418e-05
1.21954e-08
9.17164e-05
-5.48889e-05
2.85005e-08
7.40733e-05
-9.72856e-09
-5.18574e-05
4.67181e-05
1.52159e-07
-1.52266e-07
-5.43562e-07
6.93952e-07
-2.06776e-06
1.52159e-06
-4.17386e-06
2.10277e-06
-6.6264e-06
2.44877e-06
-9.23144e-06
2.60109e-06
-1.18293e-05
2.59386e-06
-1.42817e-05
2.4486e-06
-1.64678e-05
2.18266e-06
1.8248e-06
-1.82955e-05
-7.25302e-07
5.74439e-07
-3.28921e-06
3.25743e-06
-7.47918e-06
5.71303e-06
-1.2872e-05
7.498e-06
-1.9021e-05
8.60048e-06
-2.55086e-05
9.09182e-06
-3.19564e-05
9.04526e-06
-3.80239e-05
8.51897e-06
-4.34167e-05
7.57795e-06
6.33012e-06
-4.79198e-05
-1.68833e-06
2.26524e-06
-6.11152e-06
7.67833e-06
-1.26749e-05
1.22762e-05
-2.07846e-05
1.56078e-05
-2.98567e-05
1.76724e-05
-3.93353e-05
1.85703e-05
-4.8695e-05
1.84047e-05
-5.74445e-05
1.72683e-05
-6.51507e-05
1.52839e-05
1.26743e-05
-7.14951e-05
-2.47837e-06
4.74722e-06
-8.47415e-06
1.36709e-05
-1.70054e-05
2.08075e-05
-2.72911e-05
2.58938e-05
-3.86338e-05
2.90151e-05
-5.03815e-05
3.03178e-05
-6.19034e-05
2.99265e-05
-7.25867e-05
2.79513e-05
-8.18667e-05
2.45634e-05
2.0115e-05
-8.93077e-05
-3.03635e-06
7.78798e-06
-1.01805e-05
2.08113e-05
-2.01496e-05
3.0777e-05
-3.20056e-05
3.77507e-05
-4.49629e-05
4.19729e-05
-5.83023e-05
4.36577e-05
-7.13161e-05
4.29408e-05
-8.32845e-05
3.992e-05
-9.34965e-05
3.4775e-05
2.79641e-05
-0.000101346
-3.33867e-06
1.11314e-05
-1.11267e-05
2.85952e-05
-2.19094e-05
4.15602e-05
-3.46519e-05
5.04943e-05
-4.85157e-05
5.58375e-05
-6.27459e-05
5.78887e-05
-7.65873e-05
5.6783e-05
-8.92302e-05
5.25635e-05
-9.97949e-05
4.53393e-05
3.55651e-05
-0.000107398
-3.37655e-06
1.45135e-05
-1.12638e-05
3.64782e-05
-2.21736e-05
5.24706e-05
-3.50443e-05
6.33663e-05
-4.90249e-05
6.98191e-05
-6.3359e-05
7.22238e-05
-7.7284e-05
7.07091e-05
-8.99403e-05
6.52211e-05
-0.000100282
5.56805e-05
4.22655e-05
-0.000106987
-3.1572e-06
1.76751e-05
-1.05986e-05
4.39155e-05
-2.09285e-05
6.2801e-05
-3.3118e-05
7.55571e-05
-4.63328e-05
8.30349e-05
-5.98397e-05
8.57317e-05
-7.29115e-05
8.37821e-05
-8.47107e-05
7.70224e-05
-9.41123e-05
6.50801e-05
4.73154e-05
-9.91767e-05
-2.71105e-06
2.03899e-05
-9.21582e-06
5.04166e-05
-1.83033e-05
7.18888e-05
-2.90119e-05
8.62668e-05
-4.05218e-05
9.45457e-05
-5.21061e-05
9.73171e-05
-6.30726e-05
9.475e-05
-7.26588e-05
8.66135e-05
-7.98796e-05
7.23024e-05
4.96225e-05
-8.22191e-05
-2.10202e-06
2.24946e-05
-7.30343e-06
5.56148e-05
-1.46289e-05
7.92143e-05
-2.31878e-05
9.48263e-05
-3.21299e-05
0.000103489
-4.06323e-05
0.00010582
-4.78786e-05
0.000101998
-5.29535e-05
9.17006e-05
-5.47482e-05
7.41256e-05
-5.20854e-05
4.69499e-05
-1.97233e-05
1.4257e-06
2.16473e-09
-2.07727e-05
1.0478e-06
1.51466e-09
-2.15061e-05
7.32451e-07
1.00323e-09
-2.20007e-05
4.93965e-07
6.33934e-10
-2.23296e-05
3.2851e-07
3.89666e-10
-2.25538e-05
2.23977e-07
2.42643e-10
-2.2721e-05
1.66988e-07
1.66227e-10
-2.28674e-05
1.46307e-07
1.40292e-10
-2.30211e-05
1.53547e-07
1.51169e-10
-2.32037e-05
1.82335e-07
1.90172e-10
-2.34306e-05
2.26711e-07
2.51314e-10
-2.37101e-05
2.79141e-07
3.28195e-10
-2.40388e-05
3.28327e-07
4.11083e-10
-2.43964e-05
3.5709e-07
4.83912e-10
-2.47378e-05
3.40885e-07
5.20019e-10
-2.49863e-05
2.48018e-07
4.76214e-10
-2.50308e-05
4.42037e-08
2.98076e-10
-2.47276e-05
-3.03145e-07
-4.71844e-11
-2.39251e-05
-8.0189e-07
-6.5535e-10
-1.42676e-06
-1.57122e-09
-2.24967e-05
-5.14452e-05
4.95293e-06
-1.92873e-09
-5.40526e-05
3.65681e-06
-1.61135e-09
-5.58957e-05
2.5769e-06
-1.27524e-09
-5.71586e-05
1.75781e-06
-9.74936e-10
-5.80143e-05
1.18491e-06
-7.29751e-10
-5.86068e-05
8.17083e-07
-5.49339e-10
-5.90484e-05
6.09036e-07
-4.3339e-10
-5.94238e-05
5.21994e-07
-3.74458e-10
-5.97957e-05
5.25826e-07
-3.62127e-10
-6.02094e-05
5.96442e-07
-3.8438e-10
-6.06931e-05
7.10818e-07
-4.26373e-10
-6.12544e-05
8.40919e-07
-4.68559e-10
-6.18728e-05
9.47234e-07
-4.84424e-10
-6.24882e-05
9.7289e-07
-4.38813e-10
-6.29871e-05
8.40118e-07
-2.88435e-10
-6.31914e-05
4.5227e-07
1.20065e-11
-6.28538e-05
-2.93886e-07
4.92472e-10
-6.16756e-05
-1.48243e-06
1.141e-09
-5.93456e-05
-3.13382e-06
1.91826e-09
-5.15457e-06
2.64932e-09
-5.56205e-05
-7.63606e-05
9.81861e-06
-2.34609e-10
-7.98785e-05
7.1752e-06
-4.1301e-10
-8.23138e-05
5.01265e-06
-4.54209e-10
-8.39535e-05
3.39792e-06
-4.32556e-10
-8.50493e-05
2.28107e-06
-3.7012e-10
-8.57991e-05
1.56722e-06
-2.95911e-10
-8.635e-05
1.1601e-06
-2.28588e-10
-8.68081e-05
9.80305e-07
-1.75269e-10
-8.72493e-05
9.6716e-07
-1.36773e-10
-8.77253e-05
1.07258e-06
-1.10696e-10
-8.82657e-05
1.25124e-06
-9.24992e-11
-8.88739e-05
1.44924e-06
-7.64223e-11
-8.95189e-05
1.59231e-06
-5.57472e-11
-9.01211e-05
1.57507e-06
-2.21772e-11
-9.05352e-05
1.25422e-06
3.53955e-11
-9.05342e-05
4.51119e-07
1.26141e-10
-8.98008e-05
-1.02755e-06
2.44742e-10
-8.79406e-05
-3.343e-06
3.83495e-10
-8.45306e-05
-6.54429e-06
5.26222e-10
-1.04633e-05
4.474e-10
-7.92224e-05
-9.47644e-05
1.52756e-05
-3.75563e-10
-9.85038e-05
1.09152e-05
-6.08687e-10
-0.000100956
7.46509e-06
-6.05567e-10
-0.000102525
4.96753e-06
-5.3902e-10
-0.000103527
3.28361e-06
-4.29518e-10
-0.000104186
2.22661e-06
-3.1816e-10
-0.000104654
1.62804e-06
-2.25739e-10
-0.000105031
1.35822e-06
-1.55733e-10
-0.000105387
1.32294e-06
-1.05799e-10
-0.000105765
1.45049e-06
-7.20904e-11
-0.000106189
1.67563e-06
-5.03938e-11
-0.000106662
1.92242e-06
-3.68268e-11
-0.000107157
2.08675e-06
-2.78365e-11
-0.000107601
2.01952e-06
-1.78256e-11
-0.000107861
1.51379e-06
7.50667e-12
-0.000107712
3.02435e-07
6.36773e-11
-0.000106821
-1.91852e-06
1.32346e-10
-0.000104734
-5.43036e-06
2.61859e-10
-0.00010091
-1.03691e-05
5.09356e-10
-1.65384e-05
4.49339e-10
-9.48354e-05
-0.000106624
2.05543e-05
-1.02768e-09
-0.000109856
1.41489e-05
-1.1531e-09
-0.000111731
9.34021e-06
-9.34712e-10
-0.000112787
6.02445e-06
-7.31304e-10
-0.000113381
3.87847e-06
-5.15288e-10
-0.000113727
2.57318e-06
-3.38864e-10
-0.000113948
1.84884e-06
-2.16565e-10
-0.000114113
1.52312e-06
-1.37642e-10
-0.000114263
1.47291e-06
-9.00703e-11
-0.000114423
1.61056e-06
-6.47232e-11
-0.000114607
1.86052e-06
-5.51812e-11
-0.000114822
2.137e-06
-5.71419e-11
-0.000115057
2.32136e-06
-6.75176e-11
-0.000115276
2.2388e-06
-8.00345e-11
-0.000115398
1.63587e-06
-6.97403e-11
-0.000115259
1.63574e-07
-1.8449e-12
-0.000114568
-2.60933e-06
6.62672e-11
-0.000112851
-7.14804e-06
2.58879e-10
-0.000109426
-1.37943e-05
8.95662e-10
-2.2469e-05
1.28223e-09
-0.000103497
-0.000111642
2.48014e-05
-2.19848e-09
-0.00011358
1.60886e-05
-1.87621e-09
-0.000114297
1.00576e-05
-1.17569e-09
-0.000114461
6.18961e-06
-7.87532e-10
-0.000114414
3.8324e-06
-4.63567e-10
-0.000114306
2.4649e-06
-2.44541e-10
-0.000114189
1.73183e-06
-1.21071e-10
-0.000114075
1.40989e-06
-5.56516e-11
-0.000113964
1.36184e-06
-2.36906e-11
-0.000113852
1.49826e-06
-1.14899e-11
-0.000113739
1.74776e-06
-1.22505e-11
-0.000113634
2.03172e-06
-2.35338e-11
-0.000113552
2.23927e-06
-4.55274e-11
-0.000113512
2.19914e-06
-7.72852e-11
-0.000113522
1.646e-06
-9.57386e-11
-0.000113539
1.80206e-07
-5.61736e-11
-0.000113394
-2.75375e-06
-2.89421e-11
-0.000112675
-7.86754e-06
1.44576e-10
-0.000110572
-1.58985e-05
1.53992e-09
-2.72184e-05
3.25438e-09
-0.000105826
-0.00010915
2.69706e-05
-5.85338e-09
-0.000108943
1.58856e-05
-3.86396e-09
-0.000108015
9.13089e-06
-1.78549e-09
-0.000107067
5.24246e-06
-9.30909e-10
-0.000106305
3.07084e-06
-3.9566e-10
-0.000105734
1.89467e-06
-1.22242e-10
-0.000105299
1.29662e-06
-1.47928e-11
-0.000104936
1.04673e-06
2.04958e-11
-0.000104593
1.01905e-06
2.49089e-11
-0.000104235
1.14031e-06
1.51163e-11
-0.000103845
1.35777e-06
-3.25991e-12
-0.000103429
1.61581e-06
-2.96684e-11
-0.000103024
1.8335e-06
-6.54084e-11
-0.000102701
1.87694e-06
-1.1376e-10
-0.000102574
1.5192e-06
-1.50894e-10
-0.000102771
3.77046e-07
-7.83632e-11
-0.000103353
-2.17167e-06
9.40746e-11
-0.000104135
-7.08632e-06
4.68233e-10
-0.00010432
-1.57174e-05
3.71992e-09
-2.95481e-05
8.94214e-09
-0.000101999
-9.77853e-05
2.55892e-05
-9.9454e-09
-9.46314e-05
1.27357e-05
-4.03908e-09
-9.18844e-05
6.38476e-06
-8.18986e-10
-8.99344e-05
3.29268e-06
-3.11515e-10
-8.86413e-05
1.7777e-06
4.03163e-11
-8.77846e-05
1.03783e-06
1.64311e-10
-8.71797e-05
6.91542e-07
1.55444e-10
-8.66933e-05
5.60252e-07
1.27937e-10
-8.62341e-05
5.59712e-07
1.06141e-10
-8.57416e-05
6.4773e-07
9.08338e-11
-8.51821e-05
7.9822e-07
7.82144e-11
-8.45518e-05
9.85468e-07
6.23137e-11
-8.38884e-05
1.17006e-06
3.38183e-11
-8.32913e-05
1.27984e-06
-3.34563e-11
-8.29484e-05
1.17641e-06
-1.32027e-10
-8.31585e-05
5.87215e-07
-4.35438e-11
-8.42952e-05
-1.03512e-06
1.24828e-10
-8.66709e-05
-4.71011e-06
-4.58142e-10
-8.99535e-05
-1.24382e-05
3.29009e-09
-2.78215e-05
1.42892e-08
-9.16943e-05
-7.4693e-05
1.80755e-05
-1.24285e-08
-6.84082e-05
6.44542e-06
5.50674e-09
-6.45403e-05
2.51067e-06
6.16259e-09
-6.23129e-05
1.06262e-06
2.63082e-09
-6.10306e-05
4.94088e-07
1.36088e-09
-6.02579e-05
2.64299e-07
8.25898e-10
-5.97407e-05
1.73797e-07
5.19198e-10
-5.93291e-05
1.48333e-07
3.93336e-10
-5.89302e-05
1.60382e-07
3.7799e-10
-5.84824e-05
1.99543e-07
4.25326e-10
-5.79461e-05
2.61362e-07
5.10364e-10
-5.73035e-05
3.4227e-07
6.11518e-10
-5.65698e-05
4.35716e-07
6.90957e-10
-5.58168e-05
5.26135e-07
6.51184e-10
-5.52162e-05
5.75427e-07
3.67471e-10
-5.5124e-05
4.95096e-07
-9.4333e-11
-5.61196e-05
-3.78356e-08
-1.65925e-09
-5.92402e-05
-1.58183e-06
-7.64798e-09
-6.55721e-05
-6.09595e-06
-1.03735e-08
-1.92976e-05
1.54603e-08
-7.41114e-05
-3.39409e-05
-6.89296e-08
-2.74838e-05
-1.1712e-08
-2.49723e-05
-8.44353e-10
-2.39078e-05
-1.88204e-09
-2.34125e-05
-1.22269e-09
-2.31476e-05
-5.74027e-10
-2.29735e-05
-3.24767e-10
-2.28249e-05
-2.30256e-10
-2.26643e-05
-2.04105e-10
-2.24646e-05
-2.24595e-10
-2.22029e-05
-2.78043e-10
-2.18603e-05
-3.51058e-10
-2.14242e-05
-4.24606e-10
-2.08976e-05
-4.65141e-10
-2.03218e-05
-3.56925e-10
-1.98269e-05
2.1357e-10
-1.98655e-05
7.71353e-10
-2.14448e-05
-2.54336e-09
-2.75458e-05
5.07208e-09
8.71329e-08
-4.69306e-05
-1.9724e-05
1.43e-06
1.0639e-13
-2.07732e-05
1.05072e-06
1.60336e-13
-2.15065e-05
7.34332e-07
1.54934e-13
-2.2001e-05
4.95118e-07
1.58116e-13
-2.23298e-05
3.29201e-07
1.64039e-13
-2.25539e-05
2.24407e-07
1.55612e-13
-2.27211e-05
1.67298e-07
1.57328e-13
-2.28675e-05
1.46595e-07
1.44074e-13
-2.30213e-05
1.53882e-07
6.40968e-14
-2.32038e-05
1.82765e-07
9.86823e-15
-2.34309e-05
2.27271e-07
-6.12195e-15
-2.37104e-05
2.79849e-07
-2.76159e-14
-2.40391e-05
3.29176e-07
-2.96783e-14
-2.43967e-05
3.58036e-07
1.83248e-16
-2.4738e-05
3.41838e-07
6.87813e-14
-2.49864e-05
2.48837e-07
1.31117e-13
-2.50305e-05
4.44457e-08
1.56158e-13
-2.47272e-05
-3.03365e-07
1.46808e-13
-2.39247e-05
-8.03203e-07
1.37348e-13
-1.42977e-06
1.35028e-13
-2.24965e-05
-5.14427e-05
4.9532e-06
1.29572e-13
-5.40501e-05
3.65648e-06
1.88904e-13
-5.58935e-05
2.57646e-06
1.85336e-13
-5.71568e-05
1.75741e-06
1.80938e-13
-5.80129e-05
1.18462e-06
1.77035e-13
-5.86059e-05
8.16891e-07
1.37506e-13
-5.9048e-05
6.08917e-07
1.09598e-13
-5.94237e-05
5.21911e-07
1.06308e-13
-5.97959e-05
5.25743e-07
3.05833e-14
-6.02099e-05
5.9632e-07
-3.1379e-14
-6.06936e-05
7.10619e-07
-3.86232e-14
-6.12549e-05
8.40607e-07
-2.34407e-14
-6.18729e-05
9.46783e-07
-6.58271e-15
-6.24877e-05
9.72311e-07
1.80038e-14
-6.29856e-05
8.3949e-07
5.75104e-14
-6.31885e-05
4.51765e-07
8.13369e-14
-6.28495e-05
-2.94028e-07
8.85983e-14
-6.16701e-05
-1.48166e-06
9.14643e-14
-5.93396e-05
-3.13185e-06
9.85907e-14
-5.15204e-06
1.2317e-13
-5.56146e-05
-7.63599e-05
9.81772e-06
1.69768e-13
-7.98772e-05
7.17335e-06
2.28083e-13
-8.23122e-05
5.01102e-06
2.11016e-13
-8.39519e-05
3.3967e-06
1.79875e-13
-8.5048e-05
2.28029e-06
1.63391e-13
-8.57981e-05
1.56677e-06
7.48547e-14
-8.63493e-05
1.15987e-06
2.11156e-14
-8.68078e-05
9.80186e-07
2.44614e-14
-8.72492e-05
9.67063e-07
-3.19515e-14
-8.77255e-05
1.07243e-06
-9.27135e-14
-8.82659e-05
1.25097e-06
-7.15796e-14
-8.88741e-05
1.44877e-06
-2.14125e-14
-8.9519e-05
1.59159e-06
3.10135e-15
-9.01208e-05
1.5741e-06
4.93867e-15
-9.05344e-05
1.2531e-06
7.81693e-16
-9.05326e-05
4.50106e-07
5.43271e-15
-8.97984e-05
-1.02804e-06
3.22345e-14
-8.79375e-05
-3.34214e-06
8.99828e-14
-8.45276e-05
-6.54121e-06
1.79981e-13
-1.04592e-05
2.87153e-13
-7.922e-05
-9.47643e-05
1.52724e-05
2.52289e-13
-9.85023e-05
1.09108e-05
2.95255e-13
-0.000100954
7.46179e-06
2.6585e-13
-0.000102523
4.9653e-06
2.09404e-13
-0.000103525
3.28229e-06
2.22879e-13
-0.000104185
2.22593e-06
1.3148e-13
-0.000104653
1.62773e-06
3.69838e-14
-0.000105031
1.35811e-06
4.9632e-14
-0.000105387
1.32289e-06
7.73179e-15
-0.000105765
1.45039e-06
-5.35931e-14
-0.000106189
1.6754e-06
-5.08471e-14
-0.000106663
1.92196e-06
-2.20022e-14
-0.000107157
2.08597e-06
-3.11792e-14
-0.000107601
2.01837e-06
-7.81672e-14
-0.000107861
1.51235e-06
-1.18575e-13
-0.000107711
3.01096e-07
-1.11125e-13
-0.00010682
-1.9195e-06
-3.61781e-14
-0.000104732
-5.42963e-06
9.43982e-14
-0.000100908
-1.03646e-05
2.53563e-13
-1.65322e-05
3.89161e-13
-9.48348e-05
-0.000106623
2.05457e-05
3.63041e-13
-0.000109854
1.41401e-05
3.5695e-13
-0.000111727
9.33482e-06
3.15215e-13
-0.000112784
6.02128e-06
2.07916e-13
-0.000113379
3.8768e-06
2.52244e-13
-0.000113726
2.57243e-06
1.73405e-13
-0.000113947
1.84857e-06
8.59072e-14
-0.000114112
1.52306e-06
1.08185e-13
-0.000114262
1.47291e-06
9.1598e-14
-0.000114423
1.61051e-06
4.03257e-14
-0.000114608
1.86032e-06
1.9882e-14
-0.000114822
2.13655e-06
6.87863e-15
-0.000115057
2.32053e-06
-4.73607e-14
-0.000115276
2.23748e-06
-1.28068e-13
-0.000115398
1.63406e-06
-1.76126e-13
-0.000115259
1.61969e-07
-1.50089e-13
-0.000114567
-2.61113e-06
-5.75855e-14
-0.000112848
-7.14785e-06
6.17586e-14
-0.000109425
-1.37876e-05
1.75294e-13
-2.2458e-05
2.25225e-13
-0.000103498
-0.00011164
2.47812e-05
4.16618e-13
-0.000113575
1.60733e-05
3.32963e-13
-0.000114292
1.00507e-05
2.84934e-13
-0.000114458
6.18638e-06
1.38351e-13
-0.000114412
3.83106e-06
1.97866e-13
-0.000114305
2.46451e-06
9.30385e-14
-0.000114188
1.73182e-06
3.65787e-14
-0.000114075
1.41e-06
6.97595e-14
-0.000113964
1.36194e-06
7.7671e-14
-0.000113852
1.49829e-06
3.77747e-14
-0.000113739
1.74763e-06
4.15194e-15
-0.000113634
2.03133e-06
-4.10835e-14
-0.000113552
2.2385e-06
-1.21583e-13
-0.000113512
2.19779e-06
-1.98234e-13
-0.000113522
1.64395e-06
-2.15334e-13
-0.000113539
1.78234e-07
-1.72029e-13
-0.000113393
-2.75674e-06
-1.15348e-13
-0.000112672
-7.86886e-06
-6.85253e-14
-0.00011057
-1.58884e-05
-1.54936e-14
-2.71955e-05
1.80933e-14
-0.000105829
-0.000109143
2.69229e-05
4.79939e-13
-0.000108933
1.58598e-05
3.3466e-13
-0.000108008
9.12399e-06
2.1604e-13
-0.000107063
5.24056e-06
1.67765e-13
-0.000106303
3.07057e-06
2.5574e-13
-0.000105734
1.89494e-06
1.31983e-13
-0.000105299
1.29695e-06
5.60505e-14
-0.000104936
1.04697e-06
5.86147e-14
-0.000104593
1.0192e-06
3.93711e-14
-0.000104235
1.14034e-06
-1.17794e-14
-0.000103845
1.35765e-06
-7.13674e-14
-0.000103429
1.61545e-06
-1.32432e-13
-0.000103024
1.83276e-06
-1.8868e-13
-0.000102702
1.87559e-06
-1.97063e-13
-0.000102575
1.517e-06
-1.47658e-13
-0.000102771
3.7442e-07
-1.09362e-13
-0.000103352
-2.17576e-06
-1.3721e-13
-0.000104131
-7.08946e-06
-1.581e-13
-0.000104315
-1.57001e-05
-6.92398e-14
-2.94935e-05
2.55174e-14
-0.000102009
-9.7771e-05
2.54984e-05
5.62496e-13
-9.46211e-05
1.27058e-05
3.89967e-13
-9.18812e-05
6.38319e-06
1.73468e-13
-8.99343e-05
3.29337e-06
1.62102e-13
-8.8642e-05
1.77833e-06
2.52741e-13
-8.77853e-05
1.03837e-06
1.85411e-13
-8.71801e-05
6.9189e-07
1.11083e-13
-8.66934e-05
5.60443e-07
9.49721e-14
-8.62339e-05
5.59805e-07
4.72929e-14
-8.57412e-05
6.47749e-07
-2.76443e-14
-8.51817e-05
7.98161e-07
-1.04982e-13
-8.45514e-05
9.85292e-07
-1.63228e-13
-8.38883e-05
1.16969e-06
-1.74865e-13
-8.32918e-05
1.27908e-06
-1.24519e-13
-8.29499e-05
1.17495e-06
-7.12105e-14
-8.31606e-05
5.85017e-07
-1.09001e-13
-8.42989e-05
-1.03728e-06
-2.3731e-13
-8.66737e-05
-4.71513e-06
-2.98634e-13
-8.99513e-05
-1.24192e-05
-1.20436e-13
-2.77204e-05
-1.13066e-13
-9.17101e-05
-7.46746e-05
1.79953e-05
5.99824e-13
-6.84159e-05
6.45262e-06
3.79319e-13
-6.45491e-05
2.52257e-06
1.80922e-13
-6.23194e-05
1.06623e-06
1.35793e-13
-6.10345e-05
4.94792e-07
1.94134e-13
-6.02598e-05
2.64534e-07
1.95643e-13
-5.97414e-05
1.73993e-07
1.66165e-13
-5.93291e-05
1.48578e-07
1.32296e-13
-5.89297e-05
1.60732e-07
6.41103e-14
-5.84816e-05
2.00052e-07
-2.50502e-14
-5.7945e-05
2.62094e-07
-1.05742e-13
-5.73024e-05
3.43303e-07
-1.43607e-13
-5.65691e-05
4.3714e-07
-1.10246e-13
-5.58175e-05
5.28071e-07
-5.52536e-14
-5.522e-05
5.77828e-07
-6.49132e-14
-5.51304e-05
4.95306e-07
-1.81658e-13
-5.61347e-05
-3.45835e-08
-3.89857e-13
-5.92667e-05
-1.59084e-06
-5.05107e-13
-6.5588e-05
-6.10823e-06
-3.34359e-13
-1.92337e-05
-6.63259e-13
-7.40592e-05
-3.3931e-05
8.42063e-14
-2.74901e-05
4.20253e-14
-2.49684e-05
3.51272e-13
-2.3904e-05
2.85343e-13
-2.34105e-05
2.0755e-13
-2.31465e-05
1.8493e-13
-2.29728e-05
1.69401e-13
-2.28245e-05
1.30244e-13
-2.2664e-05
5.73557e-14
-2.24641e-05
-2.1676e-14
-2.22023e-05
-8.02052e-14
-2.18594e-05
-8.41134e-14
-2.14227e-05
-4.06931e-14
-2.0895e-05
-2.72749e-14
-2.03176e-05
-8.74638e-14
-1.98221e-05
-2.29009e-13
-1.98559e-05
-4.4255e-13
-2.14493e-05
-5.88644e-13
-2.75524e-05
-9.11297e-13
-1.15819e-12
-4.6699e-05
-1.9724e-05
1.43e-06
-2.16475e-09
-2.07732e-05
1.05072e-06
-1.51454e-09
-2.15065e-05
7.34332e-07
-1.00309e-09
-2.2001e-05
4.95118e-07
-6.33813e-10
-2.23298e-05
3.29201e-07
-3.89555e-10
-2.25539e-05
2.24407e-07
-2.42541e-10
-2.27211e-05
1.67298e-07
-1.66165e-10
-2.28675e-05
1.46595e-07
-1.40282e-10
-2.30213e-05
1.53881e-07
-1.51197e-10
-2.32038e-05
1.82765e-07
-1.90243e-10
-2.34309e-05
2.27271e-07
-2.51399e-10
-2.37104e-05
2.79849e-07
-3.28299e-10
-2.40391e-05
3.29176e-07
-4.11216e-10
-2.43967e-05
3.58036e-07
-4.84028e-10
-2.4738e-05
3.41838e-07
-5.20037e-10
-2.49864e-05
2.48837e-07
-4.76087e-10
-2.50305e-05
4.44457e-08
-2.97804e-10
-2.47272e-05
-3.03365e-07
4.75803e-11
-2.39247e-05
-8.03202e-07
6.55864e-10
-1.42977e-06
1.57185e-09
-2.24965e-05
-5.14427e-05
4.9532e-06
1.92883e-09
-5.40501e-05
3.65648e-06
1.61154e-09
-5.58935e-05
2.57646e-06
1.27544e-09
-5.71568e-05
1.75741e-06
9.75135e-10
-5.80129e-05
1.18462e-06
7.29943e-10
-5.86059e-05
8.16891e-07
5.49526e-10
-5.9048e-05
6.08917e-07
4.33527e-10