/*--------------------------------*- C++ -*----------------------------------*\
| =========                 |                                                 |
| \\      /  F ield         | OpenFOAM: The Open Source CFD Toolbox           |
|  \\    /   O peration     | Version:  2.4.0                                 |
|   \\  /    A nd           | Web:      www.OpenFOAM.org                      |
|    \\/     M anipulation  |                                                 |
\*---------------------------------------------------------------------------*/
FoamFile
{
    version     2.0;
    format      ascii;
    class       volVectorField;
    location    "3";
    object      U;
}
// * * * * * * * * * * * * * * * * * * * * * * * * * * * * * * * * * * * * * //

dimensions      [0 1 -1 0 0 0 0];

internalField   nonuniform List<vector> 
4800
(
(0.000304153 -0.00030802 -4.55374e-07)
(1.22211e-05 0.000158624 0.00021624)
(-0.00184811 0.000664845 0.000442617)
(-0.00483487 0.00100661 0.00060975)
(-0.00855281 0.00120036 0.000673831)
(-0.0126615 0.00128378 0.000614544)
(-0.0168783 0.00128434 0.000425656)
(-0.0209661 0.00121604 0.000107721)
(-0.0247154 0.00108609 -0.000333182)
(-0.0279498 0.000906578 -0.000884098)
(-0.000184091 -1.39205e-05 -0.000216723)
(-0.00248291 0.00239325 4.68741e-06)
(-0.00805414 0.00473773 0.000172497)
(-0.01591 0.00642701 0.000271821)
(-0.025308 0.00745638 0.000284612)
(-0.035571 0.00791888 0.000194979)
(-0.0460604 0.00790095 -3.73249e-06)
(-0.0561979 0.00746264 -0.000313861)
(-0.0654669 0.00665951 -0.000734021)
(-0.0734424 0.00558116 -0.00125762)
(-0.000778258 0.00197511 -0.000448551)
(-0.00520466 0.00808324 -0.000156168)
(-0.0142642 0.013516 1.25427e-05)
(-0.0262783 0.0174874 9.031e-05)
(-0.0402472 0.019958 8.56997e-05)
(-0.0553022 0.0210586 -1.01488e-05)
(-0.0705775 0.0209317 -0.000201513)
(-0.0852518 0.0196998 -0.000492182)
(-0.0985695 0.0175109 -0.000885231)
(-0.109896 0.0146151 -0.00138024)
(-0.00125413 0.00538432 -0.00060513)
(-0.00747312 0.0165701 -0.000226789)
(-0.0194775 0.0258125 -3.41776e-05)
(-0.0348833 0.0324783 4.56905e-05)
(-0.0524519 0.0366026 4.33532e-05)
(-0.0711814 0.038373 -4.40713e-05)
(-0.0900507 0.0379746 -0.000219169)
(-0.108057 0.0355772 -0.000488328)
(-0.124235 0.0314235 -0.000860867)
(-0.137728 0.0259675 -0.00134504)
(-0.00157994 0.0098817 -0.000611925)
(-0.00909295 0.027249 -0.000158986)
(-0.0232599 0.0408329 5.9073e-05)
(-0.0411338 0.0504376 0.000151411)
(-0.0612815 0.0562999 0.000164546)
(-0.0826064 0.0587004 9.90992e-05)
(-0.103982 0.0578516 -4.83781e-05)
(-0.124264 0.0539342 -0.000289757)
(-0.142287 0.0472498 -0.000644445)
(-0.156901 0.0384576 -0.00113622)
(-0.0017499 0.0150762 -0.000419671)
(-0.00997754 0.0393838 8.88477e-05)
(-0.0253678 0.0576844 0.000328003)
(-0.0446403 0.0703921 0.000440074)
(-0.0662414 0.0780399 0.00048111)
(-0.0890227 0.0810337 0.000452534)
(-0.111802 0.0795956 0.000346798)
(-0.13334 0.0738584 0.000142674)
(-0.15229 0.0640941 -0.000194941)
(-0.167082 0.0510816 -0.000720279)
(-0.0017644 0.0205453 -4.60957e-06)
(-0.0100924 0.0521217 0.000537507)
(-0.0256789 0.0753068 0.00079021)
(-0.0451683 0.0911855 0.000927146)
(-0.0669714 0.100635 0.00100795)
(-0.0899343 0.104207 0.0010328)
(-0.112875 0.102116 0.00098705)
(-0.134537 0.0943708 0.000836261)
(-0.153473 0.0810547 0.00052378)
(-0.167556 0.0627962 -6.5771e-05)
(-0.00163094 0.0258633 0.000633572)
(-0.00945436 0.0645743 0.00118739)
(-0.0241972 0.0925649 0.00144484)
(-0.0426678 0.111548 0.0016102)
(-0.0633112 0.122743 0.0017419)
(-0.0849946 0.126862 0.00183829)
(-0.106578 0.124109 0.00187623)
(-0.126885 0.114306 0.00180604)
(-0.1446 0.0971392 0.00154884)
(-0.157 0.0724761 0.000872214)
(-0.0013693 0.0306322 0.00147267)
(-0.00815199 0.0758909 0.00201904)
(-0.0211012 0.108334 0.00227221)
(-0.0373716 0.130163 0.00246717)
(-0.055469 0.142887 0.00265781)
(-0.0742544 0.147388 0.00284195)
(-0.0925956 0.143912 0.00298877)
(-0.109407 0.132137 0.00303271)
(-0.123895 0.111298 0.00288461)
(-0.133175 0.0796626 0.00210659)
(-0.00101885 0.0345287 0.00247035)
(-0.00637024 0.0853568 0.0029956)
(-0.0168026 0.121624 0.0032357)
(-0.0299228 0.145792 0.00345729)
(-0.044273 0.159538 0.00370854)
(-0.0585927 0.163879 0.00399174)
(-0.0715399 0.159148 0.00427791)
(-0.0817314 0.145015 0.00449764)
(-0.0888774 0.12058 0.00461919)
(-0.0919641 0.0831264 0.00401949)
(0.0003093 -0.000312351 -9.11935e-08)
(1.95761e-05 0.000152806 1.30857e-06)
(-0.00184429 0.0006509 1.99484e-06)
(-0.0048322 0.000986926 2.57557e-06)
(-0.00855127 0.00117752 2.92333e-06)
(-0.0126608 0.00125945 3.07187e-06)
(-0.0168785 0.00126009 3.09234e-06)
(-0.0209672 0.00119297 2.96168e-06)
(-0.0247177 0.00106539 2.68497e-06)
(-0.0279532 0.000888925 2.2424e-06)
(-0.00017668 -2.09786e-05 -1.16267e-06)
(-0.0024798 0.00239135 2.90331e-07)
(-0.00806161 0.00472656 -1.18053e-06)
(-0.0159147 0.0064107 -1.85545e-06)
(-0.0253102 0.00743824 -2.19036e-06)
(-0.0355714 0.00789988 -2.38792e-06)
(-0.0460595 0.00788208 -2.32986e-06)
(-0.0561962 0.00744496 -2.22205e-06)
(-0.065465 0.00664389 -1.9609e-06)
(-0.0734413 0.00556766 -1.6941e-06)
(-0.000762275 0.00196965 -1.96056e-06)
(-0.00519341 0.00808986 1.74673e-06)
(-0.0142711 0.0135192 7.82405e-08)
(-0.0262805 0.0174906 -7.09165e-08)
(-0.0402472 0.0199632 9.78003e-08)
(-0.055302 0.0210647 9.7703e-08)
(-0.0705767 0.020938 1.18787e-07)
(-0.0852509 0.0197065 1.54191e-07)
(-0.0985695 0.0175178 2.02321e-07)
(-0.109899 0.0146208 1.24674e-07)
(-0.00123123 0.00537956 -2.82979e-06)
(-0.00745683 0.0165742 2.47168e-06)
(-0.0194866 0.0258117 -9.68156e-09)
(-0.0348852 0.0324757 -2.15792e-07)
(-0.052451 0.0366004 7.2005e-08)
(-0.0711806 0.0383711 1.072e-07)
(-0.0900494 0.0379731 1.40947e-07)
(-0.108055 0.0355769 2.22182e-07)
(-0.124235 0.0314253 3.7557e-07)
(-0.137733 0.0259696 3.29806e-07)
(-0.00155252 0.00987884 -3.44567e-06)
(-0.00907452 0.0272515 2.91336e-06)
(-0.0232725 0.0408309 -3.26412e-07)
(-0.041137 0.0504335 -7.12088e-07)
(-0.0612806 0.0562954 -4.28156e-07)
(-0.0826054 0.0586957 -4.0764e-07)
(-0.10398 0.0578471 -3.62453e-07)
(-0.12426 0.053931 -2.10495e-07)
(-0.142285 0.0472511 2.38471e-07)
(-0.156909 0.0384611 4.60516e-07)
(-0.0017201 0.0150758 -3.72135e-06)
(-0.00995828 0.0393853 3.23463e-06)
(-0.0253828 0.0576835 -4.23042e-07)
(-0.0446446 0.0703897 -9.03947e-07)
(-0.0662409 0.0780368 -6.26233e-07)
(-0.0890219 0.0810302 -6.22702e-07)
(-0.111799 0.0795915 -6.0866e-07)
(-0.133333 0.0738549 -4.8885e-07)
(-0.152283 0.0640987 4.0653e-07)
(-0.167096 0.0510936 1.27329e-06)
(-0.00173459 0.0205465 -3.61277e-06)
(-0.0100738 0.052122 3.33556e-06)
(-0.0256952 0.0753067 -4.49109e-07)
(-0.0451734 0.0911848 -9.87645e-07)
(-0.0669716 0.100633 -7.53868e-07)
(-0.0899343 0.104205 -7.8408e-07)
(-0.112872 0.102113 -8.69788e-07)
(-0.134524 0.094366 -1.04413e-06)
(-0.153455 0.0810655 5.31963e-07)
(-0.167586 0.0628346 3.22777e-06)
(-0.00160269 0.0258661 -3.43248e-06)
(-0.00943691 0.0645735 3.18495e-06)
(-0.0242132 0.0925657 -4.11865e-07)
(-0.0426735 0.111549 -9.61747e-07)
(-0.0633121 0.122743 -7.8784e-07)
(-0.0849957 0.126861 -8.03052e-07)
(-0.106578 0.124104 -9.10801e-07)
(-0.126862 0.114291 -1.61839e-06)
(-0.144547 0.0971352 1.56225e-06)
(-0.157047 0.0725372 1.12346e-05)
(-0.00134461 0.0306371 -2.8838e-06)
(-0.00813687 0.0758897 2.87871e-06)
(-0.0211157 0.108337 -2.85851e-07)
(-0.0373773 0.130167 -8.07064e-07)
(-0.0554712 0.142891 -7.42264e-07)
(-0.074259 0.147392 -8.06649e-07)
(-0.0926068 0.14391 -1.0866e-06)
(-0.10939 0.132103 -3.80265e-06)
(-0.123789 0.111223 -1.12516e-06)
(-0.133223 0.0796323 2.52173e-05)
(-0.000999071 0.0345347 -2.09539e-06)
(-0.00635801 0.0853554 2.48325e-06)
(-0.016814 0.121628 -4.67953e-08)
(-0.029927 0.1458 -4.59943e-07)
(-0.0442745 0.159551 -4.90719e-07)
(-0.0585995 0.163902 -7.24075e-07)
(-0.0715732 0.159192 -1.54283e-06)
(-0.0817729 0.14508 -9.48442e-06)
(-0.0887882 0.120643 -2.21664e-05)
(-0.0920431 0.0832453 7.56728e-06)
(0.000309353 -0.000312298 -1.17571e-07)
(1.96595e-05 0.000152832 -1.39999e-06)
(-0.00184424 0.00065091 -2.04496e-06)
(-0.00483218 0.00098693 -2.60528e-06)
(-0.00855125 0.00117752 -2.94082e-06)
(-0.0126608 0.00125945 -3.08195e-06)
(-0.0168785 0.00126009 -3.09787e-06)
(-0.0209672 0.00119297 -2.96451e-06)
(-0.0247177 0.00106539 -2.68631e-06)
(-0.0279532 0.000888925 -2.24285e-06)
(-0.000176655 -2.08954e-05 1.07192e-06)
(-0.00247976 0.0023914 -3.52889e-07)
(-0.00806157 0.00472658 1.13887e-06)
(-0.0159147 0.00641071 1.82893e-06)
(-0.0253102 0.00743824 2.17411e-06)
(-0.0355714 0.00789988 2.3784e-06)
(-0.0460595 0.00788208 2.32463e-06)
(-0.0561962 0.00744496 2.21938e-06)
(-0.065465 0.00664389 1.95974e-06)
(-0.0734413 0.00556766 1.69382e-06)
(-0.000762264 0.0019697 1.91097e-06)
(-0.00519338 0.00808989 -1.78817e-06)
(-0.014271 0.0135192 -1.08144e-07)
(-0.0262805 0.0174906 5.09639e-08)
(-0.0402472 0.0199632 -1.10512e-07)
(-0.055302 0.0210647 -1.05382e-07)
(-0.0705767 0.020938 -1.23043e-07)
(-0.0852508 0.0197065 -1.56271e-07)
(-0.0985695 0.0175178 -2.03128e-07)
(-0.109899 0.0146208 -1.24727e-07)
(-0.00123122 0.00537959 2.80063e-06)
(-0.00745682 0.0165742 -2.49789e-06)
(-0.0194866 0.0258117 -1.02251e-08)
(-0.0348852 0.0324757 2.02027e-07)
(-0.0524509 0.0366004 -8.10817e-08)
(-0.0711806 0.0383711 -1.12803e-07)
(-0.0900493 0.0379731 -1.44007e-07)
(-0.108055 0.0355768 -2.23536e-07)
(-0.124235 0.0314253 -3.75919e-07)
(-0.137733 0.0259696 -3.29558e-07)
(-0.00155252 0.00987885 3.42925e-06)
(-0.00907451 0.0272515 -2.92887e-06)
(-0.0232725 0.0408309 3.14207e-07)
(-0.0411369 0.0504335 7.03511e-07)
(-0.0612806 0.0562954 4.22431e-07)
(-0.0826054 0.0586957 4.04195e-07)
(-0.10398 0.0578471 3.60817e-07)
(-0.12426 0.053931 2.10099e-07)
(-0.142285 0.0472511 -2.38154e-07)
(-0.156909 0.0384611 -4.5982e-07)
(-0.0017201 0.0150758 3.71266e-06)
(-0.00995828 0.0393853 -3.24318e-06)
(-0.0253828 0.0576835 4.16186e-07)
(-0.0446446 0.0703897 8.99186e-07)
(-0.0662409 0.0780368 6.23152e-07)
(-0.0890219 0.0810302 6.21089e-07)
(-0.111799 0.0795915 6.08284e-07)
(-0.133333 0.0738548 4.89314e-07)
(-0.152283 0.0640987 -4.05633e-07)
(-0.167096 0.0510936 -1.27223e-06)
(-0.00173459 0.0205465 3.60861e-06)
(-0.0100738 0.052122 -3.33983e-06)
(-0.0256952 0.0753067 4.45691e-07)
(-0.0451734 0.0911847 9.85462e-07)
(-0.0669716 0.100633 7.52684e-07)
(-0.0899343 0.104205 7.83829e-07)
(-0.112872 0.102113 8.70314e-07)
(-0.134524 0.094366 1.04514e-06)
(-0.153455 0.0810654 -5.30746e-07)
(-0.167586 0.0628346 -3.22652e-06)
(-0.00160268 0.0258661 3.43091e-06)
(-0.0094369 0.0645735 -3.18666e-06)
(-0.0242132 0.0925657 4.10612e-07)
(-0.0426735 0.111549 9.61277e-07)
(-0.0633121 0.122743 7.87993e-07)
(-0.0849957 0.126861 8.03751e-07)
(-0.106578 0.124104 9.11878e-07)
(-0.126862 0.114291 1.61964e-06)
(-0.144547 0.0971352 -1.56099e-06)
(-0.157047 0.0725372 -1.12334e-05)
(-0.00134461 0.0306371 2.88371e-06)
(-0.00813687 0.0758897 -2.87894e-06)
(-0.0211157 0.108337 2.8594e-07)
(-0.0373773 0.130167 8.07704e-07)
(-0.0554711 0.142891 7.43289e-07)
(-0.074259 0.147392 8.07933e-07)
(-0.0926068 0.14391 1.08797e-06)
(-0.10939 0.132103 3.80394e-06)
(-0.123789 0.111223 1.12627e-06)
(-0.133223 0.0796323 -2.52163e-05)
(-0.00099907 0.0345347 2.096e-06)
(-0.00635801 0.0853554 -2.48272e-06)
(-0.016814 0.121628 4.7611e-08)
(-0.029927 0.1458 4.61157e-07)
(-0.0442745 0.159551 4.92153e-07)
(-0.0585995 0.163902 7.25613e-07)
(-0.0715732 0.159192 1.5443e-06)
(-0.0817729 0.14508 9.4856e-06)
(-0.0887882 0.120643 2.21673e-05)
(-0.0920431 0.0832453 -7.56645e-06)
(0.000304407 -0.000307764 6.74844e-07)
(1.25818e-05 0.000158718 -0.000216143)
(-0.00184795 0.000664875 -0.000442565)
(-0.00483479 0.00100662 -0.000609719)
(-0.00855277 0.00120036 -0.000673812)
(-0.0126614 0.00128378 -0.000614534)
(-0.0168783 0.00128435 -0.00042565)
(-0.020966 0.00121604 -0.000107718)
(-0.0247154 0.00108609 0.000333183)
(-0.0279498 0.000906578 0.000884099)
(-0.000183998 -1.35587e-05 0.000216819)
(-0.00248275 0.00239341 -4.62128e-06)
(-0.00805404 0.00473779 -0.000172453)
(-0.01591 0.00642703 -0.000271793)
(-0.025308 0.00745638 -0.000284595)
(-0.0355709 0.00791888 -0.000194969)
(-0.0460604 0.00790095 3.73802e-06)
(-0.0561979 0.00746264 0.000313864)
(-0.0654668 0.00665951 0.000734022)
(-0.0734423 0.00558116 0.00125762)
(-0.000778227 0.00197526 0.000448603)
(-0.0052046 0.00808333 0.000156212)
(-0.0142641 0.013516 -1.25111e-05)
(-0.0262783 0.0174874 -9.02889e-05)
(-0.0402472 0.019958 -8.56863e-05)
(-0.0553022 0.0210586 1.01569e-05)
(-0.0705774 0.0209317 0.000201517)
(-0.0852518 0.0196998 0.000492184)
(-0.0985695 0.0175109 0.000885231)
(-0.109896 0.0146151 0.00138024)
(-0.00125412 0.00538439 0.000605161)
(-0.00747309 0.0165701 0.000226816)
(-0.0194774 0.0258125 3.41986e-05)
(-0.0348832 0.0324783 -4.56759e-05)
(-0.0524519 0.0366026 -4.33436e-05)
(-0.0711813 0.038373 4.40772e-05)
(-0.0900506 0.0379746 0.000219173)
(-0.108057 0.0355772 0.000488329)
(-0.124235 0.0314235 0.000860867)
(-0.137728 0.0259675 0.00134504)
(-0.00157994 0.00988174 0.000611942)
(-0.00909293 0.027249 0.000159002)
(-0.0232598 0.0408329 -5.90601e-05)
(-0.0411338 0.0504376 -0.000151402)
(-0.0612814 0.0562999 -0.00016454)
(-0.0826064 0.0587004 -9.90956e-05)
(-0.103982 0.0578516 4.83798e-05)
(-0.124264 0.0539342 0.000289757)
(-0.142287 0.0472498 0.000644445)
(-0.156901 0.0384576 0.00113622)
(-0.0017499 0.0150762 0.000419681)
(-0.00997753 0.0393838 -8.88387e-05)
(-0.0253678 0.0576844 -0.000327996)
(-0.0446403 0.0703921 -0.000440069)
(-0.0662414 0.0780399 -0.000481107)
(-0.0890227 0.0810337 -0.000452532)
(-0.111802 0.0795956 -0.000346798)
(-0.13334 0.0738584 -0.000142674)
(-0.15229 0.0640941 0.00019494)
(-0.167082 0.0510816 0.000720278)
(-0.00176439 0.0205453 4.61395e-06)
(-0.0100924 0.0521217 -0.000537502)
(-0.0256789 0.0753068 -0.000790206)
(-0.0451683 0.0911855 -0.000927144)
(-0.0669714 0.100635 -0.00100795)
(-0.0899343 0.104207 -0.0010328)
(-0.112875 0.102116 -0.00098705)
(-0.134537 0.0943708 -0.000836262)
(-0.153473 0.0810547 -0.000523781)
(-0.167556 0.0627962 6.57697e-05)
(-0.00163093 0.0258633 -0.00063357)
(-0.00945435 0.0645743 -0.00118739)
(-0.0241972 0.0925648 -0.00144483)
(-0.0426678 0.111548 -0.0016102)
(-0.0633112 0.122742 -0.0017419)
(-0.0849946 0.126862 -0.00183829)
(-0.106578 0.124109 -0.00187623)
(-0.126885 0.114306 -0.00180604)
(-0.1446 0.0971392 -0.00154884)
(-0.157 0.0724761 -0.000872215)
(-0.0013693 0.0306322 -0.00147267)
(-0.00815198 0.0758909 -0.00201904)
(-0.0211012 0.108334 -0.00227221)
(-0.0373715 0.130163 -0.00246717)
(-0.055469 0.142887 -0.00265781)
(-0.0742544 0.147388 -0.00284195)
(-0.0925956 0.143912 -0.00298877)
(-0.109407 0.132137 -0.00303271)
(-0.123895 0.111298 -0.00288461)
(-0.133174 0.0796626 -0.00210659)
(-0.00101885 0.0345287 -0.00247035)
(-0.00637024 0.0853567 -0.0029956)
(-0.0168026 0.121624 -0.0032357)
(-0.0299228 0.145792 -0.00345729)
(-0.044273 0.159538 -0.00370854)
(-0.0585927 0.163879 -0.00399174)
(-0.0715399 0.159148 -0.00427791)
(-0.0817314 0.145015 -0.00449764)
(-0.0888774 0.12058 -0.00461919)
(-0.0919641 0.0831264 -0.00401949)
(-0.0305568 0.000702946 -0.00152431)
(-0.0325227 0.00050931 -0.00222835)
(-0.0339233 0.000348535 -0.00297333)
(-0.0348786 0.000228449 -0.00374202)
(-0.0355134 0.000146816 -0.00452298)
(-0.0359365 9.69327e-05 -0.00530959)
(-0.0362346 7.16225e-05 -0.00609867)
(-0.0364742 6.51542e-05 -0.0068895)
(-0.0367058 7.36122e-05 -0.00768317)
(-0.0369686 9.44025e-05 -0.00848237)
(-0.0372926 0.000125315 -0.00929146)
(-0.0376976 0.00016333 -0.0101166)
(-0.0381893 0.000203255 -0.0109657)
(-0.0387507 0.000236299 -0.0118483)
(-0.0393319 0.000248871 -0.0127746)
(-0.0398371 0.00022223 -0.0137539)
(-0.0401154 0.000134336 -0.0147915)
(-0.0399586 -3.44009e-05 -0.0158849)
(-0.0391205 -0.000295801 -0.0170183)
(-0.0373636 -0.000638063 -0.0181596)
(-0.0798667 0.00437933 -0.00187087)
(-0.0847254 0.00323846 -0.00255396)
(-0.0882159 0.00228134 -0.00328838)
(-0.0906298 0.00155225 -0.00405882)
(-0.0922633 0.00104186 -0.00485351)
(-0.0933733 0.000715507 -0.00566423)
(-0.0941639 0.000533811 -0.00648582)
(-0.0947902 0.000462863 -0.00731565)
(-0.0953681 0.000476613 -0.00815319)
(-0.0959833 0.000554657 -0.00899974)
(-0.0966948 0.000677656 -0.0098583)
(-0.0975335 0.000821561 -0.0107335)
(-0.0984927 0.000951328 -0.0116312)
(-0.0995127 0.00101502 -0.0125585)
(-0.10046 0.000939964 -0.0135224)
(-0.101103 0.000634127 -0.0145287)
(-0.101101 -2.56407e-06 -0.0155795)
(-0.100006 -0.00105234 -0.0166705)
(-0.0973076 -0.00254158 -0.0177876)
(-0.0925248 -0.00438773 -0.0189034)
(-0.118853 0.0114243 -0.00196796)
(-0.12547 0.00843043 -0.00262817)
(-0.130116 0.00594246 -0.00334337)
(-0.133267 0.0040581 -0.0040989)
(-0.135368 0.00274008 -0.0048828)
(-0.136779 0.00189177 -0.00568627)
(-0.137772 0.0014081 -0.00650339)
(-0.138545 0.00119922 -0.00733068)
(-0.139241 0.00119507 -0.00816672)
(-0.13996 0.00133924 -0.00901186)
(-0.140767 0.00157782 -0.00986799)
(-0.141691 0.00184586 -0.0107384)
(-0.142715 0.00205314 -0.0116275)
(-0.143756 0.00207138 -0.0125406)
(-0.144641 0.00172683 -0.0134834)
(-0.145077 0.000804996 -0.0144608)
(-0.144629 -0.000922098 -0.0154756)
(-0.142717 -0.0036378 -0.0165261)
(-0.138657 -0.00738556 -0.0176029)
(-0.131775 -0.0119548 -0.0186855)
(-0.148006 0.0200058 -0.00193539)
(-0.155203 0.0145307 -0.00260204)
(-0.159981 0.0100935 -0.00332444)
(-0.163055 0.00680895 -0.00408684)
(-0.165008 0.00455307 -0.00487652)
(-0.166267 0.00311764 -0.00568447)
(-0.167122 0.00229896 -0.00650476)
(-0.167767 0.00193226 -0.00733382)
(-0.168333 0.00189334 -0.00816995)
(-0.168907 0.00208469 -0.00901292)
(-0.169544 0.0024153 -0.00986371)
(-0.170267 0.00277795 -0.0107244)
(-0.17106 0.00302582 -0.0115981)
(-0.171851 0.00295104 -0.0124888)
(-0.172483 0.0022704 -0.0134014)
(-0.172681 0.000628781 -0.0143416)
(-0.172005 -0.0023625 -0.0153151)
(-0.169822 -0.00703495 -0.0163258)
(-0.16531 -0.0135037 -0.0173732)
(-0.157542 -0.0214509 -0.0184474)
(-0.167308 0.0288885 -0.00176606)
(-0.173839 0.0203846 -0.00247443)
(-0.177671 0.013772 -0.00323349)
(-0.179844 0.00906383 -0.00402577)
(-0.18106 0.00593476 -0.00483794)
(-0.181752 0.00399245 -0.00566184)
(-0.182171 0.00289981 -0.00649276)
(-0.18246 0.00240598 -0.00732807)
(-0.1827 0.00233344 -0.00816646)
(-0.182941 0.00255029 -0.00900753)
(-0.183213 0.00293879 -0.0098515)
(-0.183533 0.00336332 -0.0106992)
(-0.183901 0.0036378 -0.0115522)
(-0.184287 0.00349366 -0.012413)
(-0.184607 0.00255317 -0.0132856)
(-0.184682 0.00031955 -0.0141768)
(-0.184168 -0.00379187 -0.015096)
(-0.182473 -0.0103442 -0.0160558)
(-0.178667 -0.0196592 -0.017069)
(-0.171453 -0.0314436 -0.0181461)
(-0.176359 0.0368527 -0.00145296)
(-0.180827 0.0248257 -0.00225289)
(-0.182602 0.0160497 -0.00308331)
(-0.183127 0.010159 -0.00392888)
(-0.18314 0.00643549 -0.00477826)
(-0.182984 0.00421366 -0.00562696)
(-0.182794 0.00299782 -0.00647364)
(-0.182609 0.0024554 -0.00731801)
(-0.182432 0.00237048 -0.00815999)
(-0.182254 0.00259489 -0.00899941)
(-0.182072 0.00300491 -0.00983584)
(-0.181893 0.00346176 -0.0106687)
(-0.181736 0.0037721 -0.0114978)
(-0.181634 0.00364565 -0.0123233)
(-0.181617 0.00265038 -0.0131478)
(-0.181678 0.000172577 -0.0139779)
(-0.181685 -0.00459242 -0.0148271)
(-0.181234 -0.0125537 -0.0157173)
(-0.179411 -0.0244847 -0.0166801)
(-0.174424 -0.0404502 -0.0177651)
(-0.174225 0.0424089 -0.00101637)
(-0.174981 0.0265276 -0.00197632)
(-0.17364 0.0160284 -0.00291276)
(-0.172005 0.00957179 -0.00382826)
(-0.170617 0.00577867 -0.00472111)
(-0.169568 0.00364359 -0.00559605)
(-0.168788 0.00252571 -0.00645821)
(-0.168172 0.00204482 -0.00731096)
(-0.167624 0.00197928 -0.00815601)
(-0.167073 0.00219202 -0.00899356)
(-0.166476 0.00257879 -0.00982251)
(-0.165824 0.00302686 -0.0106407)
(-0.165146 0.00337475 -0.0114455)
(-0.164528 0.00336468 -0.0122342)
(-0.164123 0.00258019 -0.0130061)
(-0.164142 0.000363006 -0.0137655)
(-0.164778 -0.00427696 -0.014528)
(-0.16605 -0.0126805 -0.0153239)
(-0.167393 -0.0264222 -0.0162067)
(-0.166569 -0.0466442 -0.0172984)
(-0.158918 0.0433948 -0.000513576)
(-0.154023 0.023896 -0.00171704)
(-0.148903 0.0129612 -0.00278147)
(-0.145168 0.00708675 -0.00376706)
(-0.14266 0.00399003 -0.0046948)
(-0.141017 0.00239101 -0.00558658)
(-0.139906 0.00160883 -0.00645698)
(-0.139074 0.00129537 -0.00731344)
(-0.138345 0.00127325 -0.00815913)
(-0.1376 0.00144671 -0.00899424)
(-0.136766 0.00175194 -0.00981668)
(-0.135807 0.00212381 -0.0106225)
(-0.134747 0.00246491 -0.011406)
(-0.133686 0.00260511 -0.012161)
(-0.132845 0.00223633 -0.0128817)
(-0.132616 0.000797359 -0.0135672)
(-0.133548 -0.00271608 -0.0142324)
(-0.136326 -0.00997853 -0.0149102)
(-0.141433 -0.0236778 -0.0156704)
(-0.146937 -0.0474541 -0.0167467)
(-0.126023 0.0372986 -0.000234182)
(-0.113758 0.0160223 -0.00170767)
(-0.10559 0.00707987 -0.00281938)
(-0.101029 0.00328913 -0.00381224)
(-0.0984301 0.00163546 -0.00473253)
(-0.096901 0.000904858 -0.00561475)
(-0.0959373 0.000591954 -0.00647831)
(-0.0952363 0.00048768 -0.00733074)
(-0.0946149 0.000505585 -0.00817409)
(-0.0939552 0.000608566 -0.00900717)
(-0.0931777 0.000777646 -0.00982626)
(-0.0922344 0.000995931 -0.0106251)
(-0.091117 0.00123535 -0.011395)
(-0.0898831 0.00143697 -0.0121246)
(-0.0887115 0.00147077 -0.0128007)
(-0.0879929 0.00104407 -0.0134122)
(-0.0884082 -0.000520249 -0.0139671)
(-0.0912624 -0.00483453 -0.0144707)
(-0.0990249 -0.015449 -0.0149669)
(-0.112775 -0.0403494 -0.0158497)
(-0.0641614 0.0228631 -0.000882604)
(-0.0478637 0.00658946 -0.00234691)
(-0.0411889 0.0020079 -0.00309954)
(-0.0387724 0.000644201 -0.00384742)
(-0.0377249 0.000221235 -0.00461186)
(-0.037191 9.18338e-05 -0.00538929)
(-0.0368736 5.72004e-05 -0.00617741)
(-0.0366339 5.65806e-05 -0.00697104)
(-0.0363982 7.31069e-05 -0.00776515)
(-0.0361182 0.00010346 -0.00855475)
(-0.0357553 0.000148428 -0.00933369)
(-0.0352754 0.000209927 -0.0100934)
(-0.0346507 0.000289403 -0.0108218)
(-0.0338681 0.000384553 -0.0115013)
(-0.03295 0.00047901 -0.0121066)
(-0.0320065 0.000510744 -0.0126025)
(-0.031379 0.000256266 -0.0129416)
(-0.0320251 -0.00113726 -0.0130877)
(-0.0376181 -0.00638462 -0.0129208)
(-0.0562294 -0.0255734 -0.0130706)
(-0.0305606 0.000688482 1.68626e-06)
(-0.0325258 0.000498095 1.17994e-06)
(-0.0339256 0.000340253 7.81564e-07)
(-0.0348801 0.000222539 4.93906e-07)
(-0.0355142 0.000142671 3.03641e-07)
(-0.0359369 9.39924e-05 1.89113e-07)
(-0.0362348 6.94096e-05 1.29591e-07)
(-0.0364741 6.32846e-05 1.09382e-07)
(-0.0367056 7.17862e-05 1.17801e-07)
(-0.0369682 9.23954e-05 1.48142e-07)
(-0.0372921 0.000122977 1.95752e-07)
(-0.0376971 0.000160604 2.55622e-07)
(-0.0381887 0.00020021 3.20184e-07)
(-0.0387501 0.000233184 3.76942e-07)
(-0.0393315 0.000246178 4.05115e-07)
(-0.0398371 0.000220749 3.71038e-07)
(-0.0401162 0.000135128 2.32305e-07)
(-0.0399606 -3.01563e-05 -3.66254e-08)
(-0.0391243 -0.000286848 -5.10355e-07)
(-0.0373691 -0.000623663 -1.22377e-06)
(-0.0798659 0.00436736 -1.50006e-06)
(-0.0847239 0.00322866 -1.25315e-06)
(-0.0882141 0.00227385 -9.91731e-07)
(-0.090628 0.00154678 -7.58162e-07)
(-0.0922617 0.00103798 -5.67463e-07)
(-0.0933721 0.000712784 -4.27166e-07)
(-0.0941631 0.000531841 -3.37004e-07)
(-0.0947897 0.000461313 -2.91171e-07)
(-0.095368 0.000475219 -2.8163e-07)
(-0.0959833 0.000553211 -2.98984e-07)
(-0.0966949 0.000676007 -3.31652e-07)
(-0.0975334 0.000819617 -3.64455e-07)
(-0.0984922 0.000949082 -3.76782e-07)
(-0.0995115 0.00101259 -3.41285e-07)
(-0.100457 0.000937675 -2.24297e-07)
(-0.1011 0.000632542 9.40222e-09)
(-0.101097 -2.63651e-06 3.83108e-07)
(-0.100001 -0.00104992 8.87524e-07)
(-0.0973033 -0.00253559 1.49207e-06)
(-0.0925223 -0.00437811 2.06069e-06)
(-0.118856 0.0114263 -1.82374e-07)
(-0.12547 0.00843083 -3.21083e-07)
(-0.130115 0.00594243 -3.53132e-07)
(-0.133266 0.00405799 -3.36306e-07)
(-0.135367 0.00274008 -2.87755e-07)
(-0.136778 0.00189194 -2.30085e-07)
(-0.137771 0.00140844 -1.7777e-07)
(-0.138545 0.00119975 -1.36298e-07)
(-0.139241 0.00119578 -1.06402e-07)
(-0.13996 0.00134013 -8.616e-08)
(-0.140767 0.00157887 -7.19926e-08)
(-0.141691 0.00184698 -5.94532e-08)
(-0.142714 0.00205419 -4.33547e-08)
(-0.143755 0.00207216 -1.72448e-08)
(-0.144639 0.00172708 2.75304e-08)
(-0.145075 0.00080446 9.81128e-08)
(-0.144627 -0.000923684 1.90375e-07)
(-0.142714 -0.00364039 2.98332e-07)
(-0.138656 -0.00738902 4.09403e-07)
(-0.131778 -0.0119606 3.4817e-07)
(-0.148011 0.0200023 -2.91945e-07)
(-0.155205 0.0145268 -4.73229e-07)
(-0.15998 0.010091 -4.70818e-07)
(-0.163053 0.00680756 -4.19092e-07)
(-0.165007 0.00455253 -3.33916e-07)
(-0.166266 0.00311765 -2.47361e-07)
(-0.167121 0.00229925 -1.7554e-07)
(-0.167766 0.00193269 -1.21089e-07)
(-0.168333 0.00189383 -8.22804e-08)
(-0.168907 0.00208518 -5.61059e-08)
(-0.169544 0.00241575 -3.92292e-08)
(-0.170267 0.0027783 -2.86567e-08)
(-0.17106 0.00302598 -2.16702e-08)
(-0.17185 0.00295091 -1.39167e-08)
(-0.172482 0.00226994 5.75745e-09)
(-0.17268 0.000628075 4.94501e-08)
(-0.172003 -0.00236329 1.0291e-07)
(-0.16982 -0.00703494 2.03733e-07)
(-0.165309 -0.0135014 3.96339e-07)
(-0.157548 -0.0214481 3.49752e-07)
(-0.167316 0.0288796 -7.99064e-07)
(-0.173838 0.0203771 -8.96619e-07)
(-0.177668 0.0137684 -7.26785e-07)
(-0.179841 0.00906249 -5.68648e-07)
(-0.181057 0.00593473 -4.00607e-07)
(-0.18175 0.00399302 -2.63441e-07)
(-0.18217 0.00290054 -1.68375e-07)
(-0.182459 0.00240668 -1.06979e-07)
(-0.182699 0.00233404 -6.99887e-08)
(-0.18294 0.00255076 -5.03103e-08)
(-0.183213 0.00293913 -4.29034e-08)
(-0.183533 0.00336351 -4.44381e-08)
(-0.183901 0.00363777 -5.25469e-08)
(-0.184286 0.00349336 -6.234e-08)
(-0.184606 0.00255264 -5.43674e-08)
(-0.184681 0.000319013 -1.54096e-09)
(-0.184165 -0.00379193 5.1501e-08)
(-0.182467 -0.0103421 2.01397e-07)
(-0.178664 -0.0196507 6.96749e-07)
(-0.171463 -0.0314308 9.97444e-07)
(-0.176375 0.0368348 -1.70964e-06)
(-0.180823 0.0248136 -1.45904e-06)
(-0.182595 0.016046 -9.14223e-07)
(-0.183122 0.0101588 -6.12414e-07)
(-0.183136 0.00643663 -3.60413e-07)
(-0.182982 0.00421512 -1.90123e-07)
(-0.182793 0.00299913 -9.41308e-08)
(-0.182609 0.00245644 -4.32296e-08)
(-0.182431 0.00237128 -1.83697e-08)
(-0.182253 0.00259551 -8.90748e-09)
(-0.182072 0.00300538 -9.52373e-09)
(-0.181893 0.00346209 -1.83338e-08)
(-0.181736 0.00377226 -3.5498e-08)
(-0.181634 0.00364555 -6.02523e-08)
(-0.181616 0.00265002 -7.46144e-08)
(-0.181676 0.000172273 -4.38067e-08)
(-0.18168 -0.00459188 -2.25841e-08)
(-0.181223 -0.0125499 1.12407e-07)
(-0.179401 -0.0244684 1.19771e-06)
(-0.174441 -0.0404228 2.5312e-06)
(-0.174257 0.0423841 -4.5523e-06)
(-0.174966 0.0265196 -3.00506e-06)
(-0.173625 0.0160321 -1.38854e-06)
(-0.171997 0.00957613 -7.23908e-07)
(-0.170612 0.00578221 -3.07553e-07)
(-0.169566 0.00364621 -9.49695e-08)
(-0.168787 0.00252751 -1.14543e-08)
(-0.168172 0.0020461 1.59925e-08)
(-0.167624 0.00198027 1.94077e-08)
(-0.167073 0.00219291 1.17497e-08)
(-0.166477 0.00257967 -2.58335e-09)
(-0.165824 0.00302775 -2.31683e-08)
(-0.165146 0.00337558 -5.10081e-08)
(-0.164528 0.00336524 -8.86215e-08)
(-0.164123 0.00258019 -1.17465e-07)
(-0.164139 0.000362441 -6.10175e-08)
(-0.164772 -0.00427849 7.30857e-08)
(-0.16603 -0.012683 3.64084e-07)
(-0.167368 -0.0264108 2.89323e-06)
(-0.166601 -0.0466087 6.95502e-06)
(-0.158978 0.0433536 -7.73494e-06)
(-0.153991 0.0239063 -3.14125e-06)
(-0.148884 0.0129829 -6.3685e-07)
(-0.145163 0.00709902 -2.42178e-07)
(-0.142658 0.0039963 3.1534e-08)
(-0.141017 0.00239441 1.27938e-07)
(-0.139907 0.00161078 1.20994e-07)
(-0.139074 0.00129671 9.95825e-08)
(-0.138345 0.00127448 8.2594e-08)
(-0.1376 0.00144811 7.06312e-08)
(-0.136766 0.00175365 6.07607e-08)
(-0.135808 0.00212588 4.835e-08)
(-0.134748 0.00246726 2.61775e-08)
(-0.133686 0.0026073 -2.61102e-08)
(-0.132846 0.00223748 -1.02731e-07)
(-0.132616 0.000795941 -3.39298e-08)
(-0.133547 -0.00272455 9.69379e-08)
(-0.136305 -0.0100009 -3.56522e-07)
(-0.141387 -0.023691 2.55885e-06)
(-0.146996 -0.0473984 1.11137e-05)
(-0.126096 0.0371023 -9.66623e-06)
(-0.11369 0.0159629 4.28328e-06)
(-0.105578 0.00706886 4.79329e-06)
(-0.101039 0.00328197 2.0463e-06)
(-0.0984355 0.00163014 1.0586e-06)
(-0.0969037 0.000901538 6.4251e-07)
(-0.0959387 0.000589774 4.03945e-07)
(-0.0952368 0.000486052 3.06026e-07)
(-0.0946148 0.000504169 2.9404e-07)
(-0.0939548 0.000607133 3.30792e-07)
(-0.0931772 0.000776049 3.96873e-07)
(-0.092234 0.000994117 4.75519e-07)
(-0.0911173 0.00123341 5.37325e-07)
(-0.0898847 0.00143527 5.06435e-07)
(-0.0887151 0.00147005 2.85776e-07)
(-0.0880016 0.00104531 -7.34828e-08)
(-0.0884273 -0.000516949 -1.29078e-06)
(-0.0912588 -0.00482728 -5.94877e-06)
(-0.0989352 -0.0153848 -8.0686e-06)
(-0.112827 -0.0400943 1.20242e-05)
(-0.064204 0.0227184 -5.36924e-05)
(-0.0477052 0.00652075 -9.12297e-06)
(-0.0411441 0.00198021 -6.57467e-07)
(-0.0387681 0.00062857 -1.46582e-06)
(-0.0377219 0.000212133 -9.52264e-07)
(-0.0371889 8.67111e-05 -4.47004e-07)
(-0.0368728 5.40799e-05 -2.52853e-07)
(-0.0366336 5.43065e-05 -1.79263e-07)
(-0.0363981 7.10403e-05 -1.58946e-07)
(-0.0361184 0.000101216 -1.74968e-07)
(-0.0357556 0.00014577 -2.1665e-07)
(-0.0352757 0.000206758 -2.7353e-07)
(-0.0346511 0.000285854 -3.30786e-07)
(-0.0338681 0.00038121 -3.6234e-07)
(-0.0329489 0.000477215 -2.78077e-07)
(-0.0320055 0.000512717 1.66212e-07)
(-0.0313815 0.000265589 6.00542e-07)
(-0.0319834 -0.00111375 -1.98155e-06)
(-0.037403 -0.00631079 3.95026e-06)
(-0.0562164 -0.0253794 6.78711e-05)
(-0.0305606 0.000688482 -1.68617e-06)
(-0.0325258 0.000498095 -1.17965e-06)
(-0.0339256 0.000340253 -7.81258e-07)
(-0.0348801 0.000222539 -4.93602e-07)
(-0.0355142 0.000142671 -3.03332e-07)
(-0.0359369 9.39923e-05 -1.8882e-07)
(-0.0362348 6.94094e-05 -1.29325e-07)
(-0.0364741 6.32844e-05 -1.0917e-07)
(-0.0367055 7.1786e-05 -1.17727e-07)
(-0.0369682 9.23952e-05 -1.48182e-07)
(-0.0372921 0.000122977 -1.95835e-07)
(-0.0376971 0.000160604 -2.55752e-07)
(-0.0381887 0.000200209 -3.20344e-07)
(-0.0387501 0.000233184 -3.77032e-07)
(-0.0393315 0.000246178 -4.05034e-07)
(-0.0398371 0.000220749 -3.70754e-07)
(-0.0401162 0.000135128 -2.31855e-07)
(-0.0399606 -3.01562e-05 3.71913e-08)
(-0.0391243 -0.000286848 5.11012e-07)
(-0.0373691 -0.000623663 1.22452e-06)
(-0.0798658 0.00436736 1.50027e-06)
(-0.0847239 0.00322866 1.25353e-06)
(-0.0882141 0.00227385 9.92126e-07)
(-0.0906279 0.00154678 7.5856e-07)