/*--------------------------------*- C++ -*----------------------------------*\
| =========                 |                                                 |
| \\      /  F ield         | OpenFOAM: The Open Source CFD Toolbox           |
|  \\    /   O peration     | Version:  2.4.0                                 |
|   \\  /    A nd           | Web:      www.OpenFOAM.org                      |
|    \\/     M anipulation  |                                                 |
\*---------------------------------------------------------------------------*/
FoamFile
{
    version     2.0;
    format      ascii;
    class       volScalarField;
    location    "0.003";
    object      T;
}
// * * * * * * * * * * * * * * * * * * * * * * * * * * * * * * * * * * * * * //

dimensions      [0 0 0 1 0 0 0];

internalField   nonuniform List<scalar> 
4800
(
100.192
100.576
100.96
101.343
101.725
102.102
102.472
102.828
103.165
103.477
100.576
101.728
102.881
104.033
105.18
106.316
107.43
108.505
109.523
110.463
100.96
102.881
104.804
106.729
108.65
110.557
112.43
114.243
115.962
117.549
101.343
104.033
106.729
109.433
112.14
114.837
117.496
120.081
122.539
124.808
101.725
105.18
108.65
112.14
115.648
119.16
122.646
126.055
129.313
132.323
102.102
106.316
110.556
114.836
119.16
123.519
127.883
132.192
136.343
140.191
102.472
107.429
112.429
117.495
122.645
127.883
133.187
138.497
143.686
148.539
102.828
108.504
114.241
120.08
126.054
132.19
138.496
144.934
151.378
157.53
103.165
109.521
115.96
122.536
129.31
136.34
143.684
151.376
159.37
167.368
103.476
110.461
117.547
124.805
132.32
140.188
148.536
157.528
167.367
178.158
100.192
100.576
100.96
101.343
101.725
102.102
102.472
102.828
103.165
103.477
100.576
101.728
102.881
104.033
105.18
106.316
107.43
108.505
109.522
110.463
100.96
102.881
104.804
106.729
108.65
110.557
112.43
114.243
115.962
117.549
101.343
104.033
106.729
109.433
112.14
114.837
117.496
120.081
122.539
124.808
101.725
105.18
108.65
112.14
115.648
119.16
122.646
126.055
129.312
132.323
102.102
106.316
110.556
114.836
119.16
123.519
127.883
132.192
136.343
140.191
102.472
107.429
112.429
117.495
122.646
127.883
133.187
138.497
143.686
148.539
102.828
108.504
114.241
120.08
126.054
132.191
138.496
144.934
151.378
157.53
103.165
109.521
115.96
122.537
129.31
136.341
143.685
151.377
159.37
167.368
103.476
110.461
117.547
124.806
132.32
140.188
148.536
157.529
167.368
178.158
100.192
100.576
100.96
101.343
101.725
102.102
102.472
102.828
103.165
103.477
100.576
101.728
102.881
104.033
105.18
106.316
107.43
108.505
109.522
110.463
100.96
102.881
104.804
106.729
108.65
110.557
112.43
114.243
115.962
117.549
101.343
104.033
106.729
109.433
112.14
114.837
117.496
120.081
122.539
124.808
101.725
105.18
108.65
112.14
115.648
119.16
122.646
126.055
129.312
132.323
102.102
106.316
110.556
114.836
119.16
123.519
127.883
132.192
136.343
140.191
102.472
107.429
112.429
117.495
122.646
127.883
133.187
138.497
143.686
148.539
102.828
108.504
114.241
120.08
126.054
132.191
138.496
144.934
151.378
157.53
103.165
109.521
115.96
122.537
129.31
136.341
143.685
151.377
159.37
167.368
103.476
110.461
117.547
124.806
132.32
140.188
148.536
157.529
167.368
178.158
100.192
100.576
100.96
101.343
101.725
102.102
102.472
102.828
103.165
103.477
100.576
101.728
102.881
104.033
105.18
106.316
107.43
108.505
109.523
110.463
100.96
102.881
104.804
106.729
108.65
110.557
112.43
114.243
115.962
117.549
101.343
104.033
106.729
109.433
112.14
114.837
117.496
120.081
122.539
124.808
101.725
105.18
108.65
112.14
115.648
119.16
122.646
126.055
129.313
132.323
102.102
106.316
110.556
114.836
119.16
123.519
127.883
132.192
136.343
140.191
102.472
107.429
112.429
117.495
122.645
127.883
133.187
138.497
143.686
148.539
102.828
108.504
114.241
120.08
126.054
132.19
138.496
144.934
151.378
157.53
103.165
109.521
115.96
122.536
129.31
136.34
143.684
151.376
159.37
167.368
103.476
110.461
117.547
124.805
132.32
140.188
148.536
157.528
167.367
178.158
103.756
104.001
104.207
104.377
104.512
104.616
104.694
104.749
104.783
104.8
104.8
104.783
104.749
104.694
104.616
104.512
104.377
104.207
104.001
103.756
111.306
112.041
112.66
113.166
113.568
113.877
114.106
114.267
114.369
114.418
114.418
114.369
114.267
114.106
113.877
113.567
113.165
112.659
112.04
111.306
118.97
120.2
121.229
122.063
122.72
123.221
123.59
123.848
124.01
124.089
124.088
124.01
123.847
123.589
123.22
122.719
122.062
121.228
120.199
118.969
126.831
128.566
129.999
131.144
132.033
132.703
133.191
133.529
133.741
133.842
133.842
133.74
133.528
133.19
132.701
132.031
131.142
129.997
128.564
126.83
134.989
137.242
139.064
140.489
141.571
142.373
142.948
143.342
143.587
143.704
143.704
143.587
143.341
142.947
142.371
141.569
140.487
139.062
137.239
134.988
143.571
146.356
148.536
150.184
151.399
152.276
152.894
153.312
153.569
153.691
153.691
153.568
153.311
152.893
152.274
151.397
150.181
148.534
146.353
143.569
152.757
156.083
158.549
160.32
161.572
162.447
163.049
163.448
163.692
163.807
163.807
163.691
163.447
163.047
162.445
161.57
160.318
158.547
156.081
152.756
162.846
166.68
169.265
170.982
172.128
172.897
173.412
173.748
173.95
174.045
174.045
173.949
173.747
173.411
172.896
172.127
170.98
169.263
166.678
162.844
174.423
178.532
180.854
182.222
183.067
183.608
183.96
184.185
184.32
184.383
184.383
184.32
184.185
183.959
183.607
183.066
182.221
180.854
178.532
174.422
188.951
192.177
193.403
193.987
194.313
194.512
194.638
194.717
194.765
194.787
194.787
194.765
194.717
194.638
194.511
194.313
193.987
193.403
192.177
188.951
103.756
104.001
104.207
104.377
104.512
104.616
104.694
104.748
104.783
104.8
104.8
104.783
104.748
104.694
104.616
104.511
104.376
104.206
104
103.756
111.306
112.041
112.66
113.166
113.568
113.877
114.106
114.267
114.368
114.418
114.417
114.368
114.266
114.105
113.876
113.566
113.164
112.658
112.039
111.305
118.97
120.2
121.229
122.063
122.72
123.221
123.59
123.847
124.01
124.088
124.088
124.009
123.846
123.588
123.219
122.718
122.061
121.226
120.197
118.968
126.831
128.566
129.999
131.144
132.032
132.702
133.19
133.528
133.74
133.842
133.841
133.739
133.527
133.189
132.7
132.03
131.141
129.996
128.563
126.828
134.989
137.241
139.064
140.489
141.571
142.372
142.948
143.342
143.586
143.704
143.703
143.586
143.34
142.946
142.37
141.568
140.485
139.061
137.238
134.986
143.571
146.356
148.536
150.183
151.398
152.276
152.894
153.311
153.568
153.69
153.69
153.567
153.309
152.892
152.273
151.395
150.18
148.532
146.352
143.567
152.757
156.083
158.549
160.319
161.571
162.446
163.048
163.448
163.691
163.806
163.806
163.69
163.446
163.046
162.444
161.568
160.316
158.545
156.08
152.754
162.846
166.679
169.264
170.982
172.128
172.897
173.411
173.747
173.949
174.044
174.044
173.948
173.746
173.41
172.895
172.125
170.979
169.261
166.676
162.843
174.423
178.532
180.854
182.221
183.066
183.607
183.959
184.185
184.319
184.382
184.382
184.319
184.184
183.958
183.606
183.065
182.219
180.852
178.53
174.421
188.951
192.177
193.403
193.987
194.313
194.511
194.637
194.717
194.764
194.786
194.786
194.764
194.717
194.637
194.511
194.312
193.986
193.402
192.176
188.95
103.756
104.001
104.207
104.377
104.512
104.616
104.694
104.748
104.783
104.8
104.8
104.783
104.748
104.694
104.616
104.511
104.376
104.206
104
103.756
111.306
112.041
112.66
113.166
113.568
113.877
114.106
114.267
114.368
114.418
114.417
114.368
114.266
114.105
113.876
113.566
113.164
112.658
112.039
111.305
118.97
120.2
121.229
122.063
122.72
123.221
123.59
123.847
124.01
124.088
124.088
124.009
123.846
123.588
123.219
122.718
122.061
121.226
120.197
118.968
126.831
128.566
129.999
131.144
132.032
132.702
133.19
133.528
133.74
133.842
133.841
133.739
133.527
133.189
132.7
132.03
131.141
129.996
128.563
126.828
134.989
137.241
139.064
140.489
141.571
142.372
142.948
143.342
143.586
143.704
143.703
143.586
143.34
142.946
142.37
141.568
140.485
139.061
137.238
134.986
143.571
146.356
148.536
150.183
151.398
152.276
152.894
153.311
153.568
153.69
153.69
153.567
153.309
152.892
152.273
151.395
150.18
148.532
146.352
143.567
152.757
156.083
158.549
160.319
161.571
162.446
163.048
163.448
163.691
163.806
163.806
163.69
163.446
163.046
162.444
161.568
160.316
158.545
156.08
152.754
162.846
166.679
169.264
170.982
172.128
172.897
173.411
173.747
173.949
174.044
174.044
173.948
173.746
173.41
172.895
172.125
170.979
169.261
166.676
162.843
174.423
178.532
180.854
182.221
183.066
183.607
183.959
184.185
184.319
184.382
184.382
184.319
184.184
183.958
183.606
183.065
182.219
180.852
178.53
174.421
188.951
192.177
193.403
193.987
194.313
194.511
194.637
194.717
194.764
194.786
194.786
194.764
194.717
194.637
194.511
194.312
193.986
193.402
192.176
188.95
103.756
104.001
104.207
104.377
104.512
104.616
104.694
104.749
104.783
104.8
104.8
104.783
104.749
104.694
104.616
104.512
104.377
104.207
104.001
103.756
111.307
112.041
112.66
113.166
113.568
113.877
114.106
114.267
114.369
114.418
114.418
114.369
114.267
114.106
113.877
113.567
113.165
112.659
112.04
111.306
118.97
120.2
121.229
122.063
122.72
123.221
123.59
123.848
124.01
124.089
124.088
124.01
123.847
123.589
123.22
122.719
122.062
121.228
120.199
118.969
126.831
128.566
129.999
131.144
132.033
132.703
133.191
133.529
133.741
133.842
133.842
133.74
133.528
133.19
132.701
132.031
131.142
129.997
128.564
126.83
134.989
137.242
139.064
140.489
141.571
142.373
142.948
143.342
143.587
143.704
143.704
143.587
143.341
142.947
142.371
141.569
140.487
139.062
137.239
134.988
143.571
146.356
148.536
150.184
151.399
152.276
152.894
153.312
153.569
153.691
153.691
153.568
153.311
152.893
152.274
151.397
150.181
148.534
146.353
143.569
152.757
156.083
158.549
160.32
161.572
162.447
163.049
163.448
163.692
163.807
163.807
163.691
163.447
163.047
162.445
161.57
160.318
158.547
156.081
152.756
162.846
166.68
169.265
170.982
172.128
172.897
173.412
173.748
173.95
174.045
174.045
173.949
173.747
173.411
172.896
172.127
170.98
169.263
166.678
162.844
174.423
178.532
180.854
182.222
183.067
183.608
183.96
184.185
184.32
184.383
184.383
184.32
184.185
183.959
183.607
183.066
182.221
180.854
178.532
174.422
188.951
192.177
193.403
193.987
194.313
194.512
194.638
194.717
194.765
194.787
194.787
194.765
194.717
194.638
194.511
194.313
193.987
193.403
192.177
188.951
103.477
103.165
102.828
102.472
102.103
101.725
101.344
100.96
100.576
100.192
110.462
109.522
108.505
107.43
106.317
105.181
104.033
102.881
101.728
100.576
117.548
115.961
114.243
112.43
110.557
108.651
106.73
104.805
102.881
100.96
124.807
122.538
120.081
117.497
114.837
112.141
109.434
106.73
104.033
101.344
132.322
129.312
126.055
122.647
119.161
115.649
112.141
108.651
105.181
101.725
140.19
136.342
132.192
127.884
123.52
119.161
114.837
110.557
106.317
102.103
148.538
143.686
138.497
133.188
127.884
122.647
117.497
112.43
107.43
102.472
157.53
151.378
144.935
138.498
132.192
126.056
120.081
114.243
108.505
102.828
167.369
159.371
151.378
143.687
136.343
129.313
122.539
115.962
109.523
103.165
178.159
167.369
157.531
148.539
140.191
132.323
124.808
117.549
110.463
103.477
103.476
103.165
102.827
102.471
102.102
101.725
101.343
100.959
100.575
100.192
110.461
109.521
108.503
107.429
106.315
105.179
104.032
102.88
101.727
100.575
117.547
115.96
114.241
112.429
110.556
108.649
106.728
104.803
102.88
100.959
124.806
122.537
120.079
117.495
114.835
112.139
109.432
106.728
104.032
101.343
132.32
129.31
126.054
122.645
119.159
115.647
112.139
108.649
105.18
101.725
140.188
136.34
132.19
127.882
123.518
119.159
114.835
110.556
106.316
102.102
148.536
143.684
138.495
133.186
127.882
122.645
117.495
112.429
107.429
102.471
157.528
151.376
144.933
138.496
132.19
126.054
120.08
114.241
108.504
102.827
167.367
159.369
151.376
143.685
136.341
129.311
122.537
115.96
109.521
103.165
178.157
167.367
157.529
148.537
140.189
132.321
124.806
117.547
110.461
103.476
103.476
103.165
102.827
102.471
102.102
101.725
101.343
100.959
100.575
100.192
110.461
109.521
108.503
107.429
106.315
105.179
104.032
102.88
101.727
100.575
117.547
115.96
114.241
112.429
110.556
108.649
106.728
104.803
102.88
100.959
124.806
122.537
120.079
117.495
114.835
112.139
109.432
106.728
104.032
101.343
132.32
129.31
126.054
122.645
119.159
115.647
112.139
108.649
105.18
101.725
140.188
136.34
132.19
127.882
123.518
119.159
114.835
110.556
106.316
102.102
148.536
143.684
138.495
133.186
127.882
122.645
117.495
112.429
107.429
102.471
157.528
151.376
144.933
138.496
132.19
126.054
120.08
114.241
108.504
102.827
167.367
159.369
151.376
143.685
136.341
129.311
122.537
115.96
109.521
103.165
178.157
167.367
157.529
148.537
140.189
132.321
124.806
117.547
110.461
103.476
103.477
103.165
102.828
102.472
102.103
101.725
101.344
100.96
100.576
100.192
110.462
109.522
108.505
107.43
106.317
105.181
104.033
102.881
101.728
100.576
117.548
115.961
114.243
112.43
110.557
108.651
106.73
104.805
102.881
100.96
124.807
122.538
120.081
117.497
114.837
112.141
109.434
106.73
104.033
101.344
132.322
129.312
126.055
122.647
119.161
115.649
112.141
108.651
105.181
101.725
140.19
136.342
132.192
127.884
123.52
119.161
114.837
110.557
106.317
102.103
148.538
143.686
138.497
133.188
127.884
122.647
117.497
112.43
107.43
102.472
157.53
151.378
144.935
138.498
132.192
126.056
120.081
114.243
108.505
102.828
167.369
159.371
151.378
143.687
136.343
129.313
122.539
115.962
109.523
103.165
178.159
167.369
157.531
148.539
140.191
132.323
124.808
117.549
110.463
103.477
188.952
174.424
162.846
152.757
143.571
134.989
126.831
118.97
111.307
103.757
192.178
178.533
166.68
156.083
146.356
137.241
128.566
120.2
112.041
104.001
193.404
180.855
169.265
158.549
148.536
139.064
129.999
121.229
112.66
104.207
193.988
182.223
170.983
160.321
150.185
140.49
131.145
122.064
113.167
104.377
194.314
183.069
172.131
161.574
151.402
141.574
132.035
122.722
113.569
104.513
194.513
183.611
172.902
162.452
152.282
142.379
132.708
123.225
113.88
104.618
194.64
183.966
173.421
163.059
152.905
142.959
133.201
123.598
114.111
104.696
194.721
184.195
173.762
163.466
153.331
143.361
133.545
123.861
114.276
104.752
194.77
184.336
173.973
163.721
153.6
143.618
133.768
124.032
114.383
104.788
194.796
184.408
174.083
163.854
153.742
143.754
133.887
124.123
114.441
104.808
194.801
184.422
174.105
163.881
153.771
143.783
133.912
124.143
114.453
104.812
194.786
184.381
174.042
163.806
153.692
143.707
133.847
124.093
114.422
104.802
194.75
184.279
173.89
163.623
153.499
143.524
133.689
123.972
114.346
104.776
194.688
184.104
173.63
163.313
153.176
143.22
133.428
123.774
114.223
104.734
194.59
183.829
173.228
162.844
152.696
142.774
133.051
123.489
114.046
104.674
194.435
183.407
172.63
162.166
152.019
142.157
132.536
123.105
113.809
104.594
194.181
182.751
171.746
161.205
151.091
141.334
131.863
122.609
113.506
104.492
193.726
181.695
170.431
159.861
149.849
140.267
131.01
121.989
113.131
104.367
192.762
179.903
168.467
158.013
148.233
138.929
129.965
121.243
112.684
104.218
190.199
176.735
165.583
155.561
146.214
137.316
128.735
120.378
112.17
104.047
188.951
174.421
162.844
152.755
143.569
134.987
126.829
118.968
111.305
103.756
192.176
178.53
166.678
156.081
146.353
137.239
128.564
120.198
112.039
104
193.402
180.853
169.263
158.547
148.534
139.062
129.997
121.227
112.659
104.207
193.986
182.22
170.98
160.318
150.182
140.488
131.143
122.062
113.165
104.376
194.312
183.066
172.128
161.572
151.399
141.572
132.033
122.72
113.568
104.512
194.511
183.609
172.899
162.45
152.28
142.376
132.706
123.223
113.878
104.617
194.638
183.963
173.417
163.056
152.903
142.956
133.198
123.596
114.11
104.695
194.719
184.192
173.759
163.463
153.328
143.358
133.543
123.859
114.274
104.751
194.768
184.332
173.97
163.718
153.597
143.616
133.766
124.03
114.381
104.787
194.794
184.405
174.079
163.851
153.739
143.752
133.884
124.121
114.439
104.807
194.798
184.419
174.101
163.877
153.768
143.78
133.909
124.14
114.451
104.811
194.784
184.377
174.039
163.802
153.689
143.704
133.844
124.091
114.42
104.8
194.748
184.276
173.886
163.619
153.496
143.521
133.686
123.97
114.344
104.775
194.686
184.1
173.626
163.309
153.173
143.217
133.425
123.771
114.22
104.733
194.587
183.825
173.224
162.841
152.693
142.771
133.048
123.486
114.043
104.673
194.432
183.403
172.626
162.163
152.015
142.154
132.533
123.102
113.807
104.593
194.179
182.748
171.742
161.202
151.087
141.33
131.86
122.606
113.503
104.491
193.723
181.691
170.426
159.857
149.845
140.264
131.006
121.987
113.129
104.366
192.759
179.899
168.463
158.009
148.23
138.925
129.962
121.241
112.682
104.217
190.196
176.731
165.579
155.557
146.21
137.313
128.732
120.375
112.167
104.046
188.951
174.421
162.844
152.755
143.569
134.987
126.829
118.968
111.305
103.756
192.176
178.53
166.678
156.081
146.353
137.239
128.564
120.198
112.039
104
193.402
180.853
169.263
158.547
148.534
139.062
129.997
121.227
112.659
104.207
193.986
182.22
170.98
160.318
150.182
140.488
131.143
122.062
113.165
104.376
194.312
183.066
172.128
161.572
151.399
141.572
132.033
122.72
113.568
104.512
194.511
183.609
172.899
162.45
152.28
142.376
132.706
123.223
113.878
104.617
194.638
183.963
173.417
163.056
152.903
142.956
133.198
123.596
114.11
104.695
194.719
184.192
173.759
163.463
153.328
143.358
133.543
123.859
114.274
104.751
194.768
184.332
173.97
163.718
153.597
143.616
133.766
124.03
114.381
104.787
194.794
184.405
174.079
163.851
153.739
143.752
133.884
124.121
114.439
104.807
194.798
184.419
174.101
163.877
153.768
143.78
133.909
124.14
114.451
104.811
194.784
184.377
174.039
163.802
153.689
143.704
133.844
124.091
114.42
104.8
194.748
184.276
173.886
163.619
153.496
143.521
133.686
123.97
114.344
104.775
194.686
184.1
173.626
163.309
153.173
143.217
133.425
123.771
114.22
104.733
194.587
183.825
173.224
162.841
152.693
142.771
133.048
123.486
114.043
104.673
194.432
183.403
172.626
162.163
152.015
142.154
132.533
123.102
113.807
104.593
194.179
182.748
171.742
161.202
151.087
141.33
131.86
122.606
113.503
104.491
193.723
181.691
170.426
159.857
149.845
140.264
131.006
121.987
113.129
104.366
192.759
179.899
168.463
158.009
148.23
138.925
129.962
121.241
112.682
104.217
190.196
176.731
165.579
155.557
146.21
137.313
128.732
120.375
112.167
104.046
188.952
174.424
162.846
152.757
143.571
134.989
126.831
118.97
111.307
103.757
192.178
178.533
166.68
156.083
146.356
137.241
128.566
120.2
112.041
104.001
193.404
180.855
169.265
158.549
148.536
139.064
129.999
121.229
112.66
104.207
193.988
182.223
170.983
160.321
150.185
140.49
131.145
122.064
113.167
104.377
194.314
183.069
172.131
161.574
151.402
141.574
132.035
122.722
113.569
104.513
194.513
183.611
172.902
162.452
152.282
142.379
132.708
123.225
113.88
104.618
194.64
183.966
173.421
163.059
152.905
142.959
133.2
123.598
114.111
104.696
194.721
184.195
173.762
163.466
153.331
143.361
133.545
123.861
114.276
104.752
194.77
184.336
173.973
163.721
153.6
143.618
133.768
124.032
114.383
104.788
194.796
184.408
174.083
163.854
153.742
143.754
133.887
124.123
114.441
104.808
194.801
184.422
174.105
163.881
153.771
143.783
133.912
124.143
114.453
104.812
194.786
184.381
174.042
163.806
153.692
143.707
133.847
124.093
114.422
104.802
194.75
184.279
173.89
163.623
153.499
143.524
133.689
123.972
114.346
104.776
194.688
184.104
173.63
163.313
153.176
143.22
133.428
123.774
114.223
104.734
194.59
183.829
173.228
162.844
152.696
142.774
133.051
123.489
114.046
104.674
194.435
183.407
172.63
162.166
152.019
142.157
132.536
123.105
113.809
104.594
194.181
182.751
171.746
161.205
151.091
141.334
131.863
122.609
113.506
104.492
193.726
181.695
170.431
159.861
149.849
140.267
131.01
121.989
113.131
104.367
192.762
179.903
168.467
158.013
148.233
138.929
129.965
121.243
112.684
104.218
190.199
176.735
165.583
155.561
146.214
137.316
128.735
120.378
112.17
104.047
181.524
171.323
161.652
152.526
143.833
135.469
127.351
119.414
111.601
103.859
173.455
165.488
157.29
149.176
141.236
133.474
125.869
118.388
110.997
103.66
166.627
160.032
152.993
145.799
138.594
131.441
124.359
117.344
110.384
103.458
160.927
155.214
149.038
142.609
136.062
129.476
122.893
116.329
109.787
103.261
156.203
151.096
145.561
139.742
133.752
127.667
121.535
115.386
109.232
103.077
152.354
147.681
142.623
137.282
131.745
126.081
120.338
114.55
108.738
102.914
149.32
144.962
140.256
135.277
130.094
124.767
119.341
113.852
108.325
102.778
147.065
142.929
138.473
133.755
128.833
123.757
118.572
113.312
108.005
102.672
145.571
141.578
137.282
132.734
127.983
123.075
118.052
112.946
107.786
102.6
144.826
140.903
136.686
132.222
127.555
122.731
117.789
112.762
107.677
102.568
181.52
171.319
161.648
152.523
143.83
135.465
127.348
119.411
111.598
103.858
173.451
165.485
157.286
149.173
141.232
133.471
125.865
118.385
110.995
103.659
166.624
160.029
152.99
145.796
138.591
131.438
124.355
117.341
110.382
103.456
160.924
155.211
149.035
142.606
136.058
129.473
122.89
116.326
109.785
103.259
156.2
151.093
145.558
139.739
133.749
127.664
121.532
115.382
109.228
103.075
152.352
147.679
142.621
137.279
131.742
126.078
120.335
114.547
108.735
102.912
149.317
144.959
140.253
135.274
130.091
124.763
119.337
113.848
108.321
102.775
147.063
142.927
138.47
133.752
128.83
123.754
118.568
113.308
108
102.669
145.568
141.575
137.28
132.731
127.98
123.071
118.047
112.941
107.781
102.595
144.824
140.9
136.684
132.219
127.552
122.728
117.784
112.756
107.67
102.562
181.52
171.319
161.648
152.523
143.83
135.465
127.348
119.411
111.598
103.858
173.451
165.485
157.286
149.173
141.232
133.471
125.865
118.385
110.995
103.659
166.624
160.029
152.99
145.796
138.591
131.438
124.355
117.341
110.382
103.456
160.924
155.212
149.035
142.606
136.058
129.473
122.89
116.326
109.784
103.259
156.2
151.093
145.558
139.739
133.749
127.664
121.532
115.382
109.228
103.075
152.352
147.679
142.621
137.279
131.742
126.078
120.335
114.547
108.735
102.912
149.317
144.959
140.253
135.274
130.091
124.763
119.337
113.848
108.321
102.775
147.063
142.927
138.471
133.752
128.83
123.754
118.568
113.308
108
102.669
145.568
141.575
137.28
132.731
127.98
123.071
118.047
112.941
107.781
102.595
144.824
140.9
136.684
132.219
127.552
122.728
117.784
112.756
107.67
102.562
181.524
171.323
161.652
152.526
143.833
135.469
127.351
119.414
111.601
103.859
173.455
165.488
157.29
149.176
141.236
133.474
125.869
118.388
110.997
103.66
166.627
160.032
152.993
145.799
138.594
131.441
124.359
117.344
110.384
103.458
160.927
155.214
149.038
142.609
136.062
129.476
122.893
116.329
109.787
103.261
156.203
151.096
145.561
139.742
133.752
127.667
121.535
115.386
109.232
103.077
152.354
147.681
142.623
137.282
131.745
126.081
120.338
114.55
108.738
102.914
149.32
144.962
140.256
135.277
130.094
124.767
119.341
113.852
108.325
102.778
147.065
142.929
138.473
133.755
128.833
123.757
118.572
113.312
108.005
102.672
145.571
141.578
137.282
132.734
127.983
123.075
118.052
112.946
107.786
102.6
144.826
140.903
136.686
132.222
127.555
122.731
117.789
112.762
107.677
102.568
191.202
194.211
195.435
196.07
196.458
196.714
196.89
197.008
197.082
197.117
197.117
197.082
197.009
196.891
196.715
196.459
196.071
195.435
194.21
191.2
180.322
184.46
186.935
188.501
189.545
190.267
190.77
191.112
191.326
191.429
191.429
191.327
191.114
190.772
190.269
189.547
188.502
186.936
184.458
180.318
172.291
176.491
179.467
181.573
183.078
184.163
184.938
185.472
185.808
185.971
185.972
185.81
185.474
184.94
184.165
183.081
181.575
179.468
176.49
172.287
165.907
169.938
173.063
175.441
177.233
178.571
179.551
180.237
180.674
180.886
180.887
180.675
180.24
179.554
178.575
177.238
175.445
173.067
169.939
165.907
160.72
164.545
167.669
170.161
172.114
173.615
174.737
175.535
176.048
176.299
176.299
176.05
175.54
174.743
173.622
172.121
170.169
167.677
164.551
160.725
156.53
160.164
163.228
165.751
167.783
169.381
170.596
171.471
172.038
172.317
172.318
172.042
171.477
170.605
169.391
167.795
165.764
163.242
160.177
156.542
153.239
156.713
159.703
162.216
164.281
165.931
167.203
168.128
168.731
169.029
169.031
168.736
168.136
167.214
165.945
164.297
162.235
159.724
156.735
153.26
150.797
154.149
157.07
159.56
161.632
163.308
164.612
165.567
166.194
166.504
166.506
166.2
165.578
164.626
163.326
161.654
159.586
157.098
154.179
150.828
149.178
152.448
155.319
157.786
159.856
161.543
162.863
163.836
164.475
164.793
164.796
164.483
163.848
162.881
161.565
159.883
157.817
155.353
152.485
149.218
148.371
151.599
154.444
156.898
158.966
160.655
161.983
162.962
163.608
163.93
163.932
163.616
162.976
162.002
160.68
158.995
156.933
154.482
151.641
148.416
191.204
194.212
195.436
196.072
196.459
196.715
196.891
197.009
197.082
197.117
197.117
197.082
197.008
196.89
196.715
196.458
196.07
195.434
194.209
191.198
180.325
184.462
186.938
188.503
189.547
190.269
190.771
191.113
191.326
191.429
191.429
191.326
191.113
190.771
190.268
189.545
188.5
186.934
184.456
180.316
172.294
176.494
179.47
181.575
183.08
184.164
184.939
185.473
185.809
185.971
185.971
185.809
185.473
184.939
184.164
183.079
181.573
179.466
176.488
172.285
165.911
169.941
173.066
175.443
177.235
178.573
179.552
180.238
180.674
180.886
180.886
180.675
180.239
179.553
178.574
177.236
175.443
173.064
169.937
165.904
160.723
164.547
167.672
170.164
172.116
173.617
174.738
175.536
176.048
176.299
176.299
176.05
175.539
174.742
173.62
172.12
170.167
167.674
164.549
160.723
156.533
160.166
163.231
165.753
167.785
169.383
170.597
171.472
172.038
172.317
172.318
172.041
171.477
170.603
169.39
167.793
165.762
163.24
160.175
156.54
153.242
156.716
159.705
162.218
164.282
165.932
167.204
168.128
168.731
169.029
169.03
168.735
168.135
167.213
165.944
164.296
162.234
159.722
156.733
153.258
150.8
154.151
157.073
159.562
161.634
163.309
164.613
165.568
166.194
166.504
166.506
166.199
165.577
164.625
163.325
161.653
159.584
157.096
154.177
150.826
149.181
152.45
155.321
157.788
159.858
161.544
162.864
163.836
164.475
164.793
164.796
164.482
163.847
162.88
161.564
159.882
157.816
155.351
152.483
149.215
148.374
151.601
154.446
156.9
158.967
160.657
161.983
162.963
163.608
163.929
163.932
163.616
162.975
162.001
160.679
158.994
156.931
154.48
151.639
148.414
191.204
194.212
195.436
196.072
196.459
196.715
196.891
197.009
197.082
197.117
197.117
197.082
197.008
196.89
196.715
196.458
196.07
195.434
194.209
191.198
180.325
184.462
186.938
188.503
189.547
190.269
190.771
191.113
191.326
191.429
191.429
191.326
191.113
190.771
190.268
189.545
188.5
186.934
184.456
180.316
172.294
176.494
179.47
181.575
183.08
184.164
184.939
185.473
185.809
185.971
185.971
185.809
185.473
184.939
184.164
183.079
181.573
179.466
176.487
172.285
165.91
169.941
173.066
175.443
177.235
178.573
179.552
180.238
180.674
180.886
180.886
180.675
180.239
179.553
178.574
177.236
175.443
173.064
169.937
165.904
160.723
164.548
167.672
170.164
172.116
173.617
174.738
175.536
176.048
176.299
176.299
176.05
175.539
174.742
173.62
172.12
170.167
167.674
164.549
160.723
156.533
160.167
163.231
165.753
167.785
169.383
170.597
171.472
172.038
172.317
172.318
172.041
171.477
170.603
169.39
167.793
165.762
163.24
160.175
156.54
153.242
156.716
159.705
162.219
164.282
165.932
167.204
168.128
168.731
169.029
169.03
168.735
168.135
167.213
165.944
164.296
162.234
159.722
156.733
153.258
150.8
154.151
157.073
159.562
161.634
163.309
164.613
165.568
166.194
166.504
166.506
166.199
165.577
164.625
163.325
161.653
159.584
157.096
154.177
150.826
149.181
152.45
155.321
157.788
159.858
161.544
162.864
163.836
164.475
164.793
164.796
164.482
163.847
162.88
161.564
159.882
157.816
155.351
152.483
149.215
148.374
151.601
154.446
156.9
158.967
160.657
161.984
162.963
163.608
163.929
163.932
163.616
162.975
162.001
160.679
158.994
156.931
154.48
151.639
148.414
191.202
194.211
195.435
196.07
196.458
196.714
196.89
197.008
197.082
197.117
197.117
197.082
197.009
196.891
196.715
196.459
196.071
195.435
194.21
191.2
180.322
184.46
186.936
188.501
189.545
190.267
190.77
191.112
191.326
191.429
191.429
191.327
191.114
190.772
190.269
189.547
188.502
186.936
184.458
180.318
172.291
176.491
179.467
181.573
183.078
184.163
184.938
185.472
185.808
185.971
185.972
185.81
185.474
184.94
184.165
183.081
181.575
179.468
176.49
172.287
165.907
169.938
173.063
175.441
177.233
178.571
179.551
180.237
180.674
180.886
180.887
180.675
180.24
179.554
178.575
177.237
175.445
173.067
169.939
165.907
160.72
164.545
167.669
170.161
172.114
173.615
174.737
175.535
176.048
176.299
176.299
176.05
175.54
174.743
173.622
172.121
170.169
167.677
164.551
160.725
156.53
160.164
163.228
165.751
167.783
169.381
170.596
171.472
172.038
172.317
172.318
172.042
171.478
170.605
169.391
167.795
165.764
163.242
160.177
156.543
153.239
156.713
159.703
162.217
164.281
165.931
167.203
168.128
168.731
169.029
169.031
168.736
168.136
167.214
165.945
164.298
162.236
159.724
156.735
153.261
150.797
154.149
157.07
159.56
161.632
163.308
164.612
165.567
166.194
166.504
166.506
166.2
165.578
164.626
163.326
161.654
159.586
157.098
154.179
150.828
149.178
152.448
155.319
157.786
159.856
161.543
162.863
163.835
164.475
164.793
164.796
164.483
163.848
162.881
161.565
159.883
157.817
155.353
152.485
149.218
148.371
151.599
154.444
156.898
158.965
160.655
161.982
162.962
163.608
163.929
163.932
163.616
162.976
162.002
160.68
158.995
156.933
154.482
151.641
148.416
103.86
111.606
119.424
127.365
135.486
143.851
152.544
161.667
171.335
181.529
103.661
111.003
118.398
125.883
133.491
141.254
149.194
157.305
165.5
173.463
103.459
110.389
117.354
124.372
131.457
138.611
145.815
153.007
160.043
166.634
103.262
109.791
116.337
122.903
129.488
136.074
142.62
149.048
155.221
160.93
103.077
109.233
115.39
121.542
127.674
133.758
139.747
145.563
151.096
156.2
102.913
108.738
114.551
120.339
126.081
131.743
137.278
142.616
147.672
152.343
102.775
108.322
113.848
119.334
124.757
130.082
135.262
140.238
144.942
149.299
102.668
107.998
113.302
118.557
123.738
128.809
133.729
138.444
142.899
147.034
102.595
107.778
112.928
118.027
123.045
127.949
132.697
137.243
141.537
145.53
102.554
107.666
112.739
117.759
122.696
127.515
132.178
136.641
140.857
144.78