/*--------------------------------*- C++ -*----------------------------------*\
| =========                 |                                                 |
| \\      /  F ield         | OpenFOAM: The Open Source CFD Toolbox           |
|  \\    /   O peration     | Version:  2.4.0                                 |
|   \\  /    A nd           | Web:      www.OpenFOAM.org                      |
|    \\/     M anipulation  |                                                 |
\*---------------------------------------------------------------------------*/
FoamFile
{
    version     2.0;
    format      ascii;
    class       volScalarField;
    location    "0.045";
    object      T;
}
// * * * * * * * * * * * * * * * * * * * * * * * * * * * * * * * * * * * * * //

dimensions      [0 0 0 1 0 0 0];

internalField   nonuniform List<scalar> 
1600
(
96.697
90.1189
83.6244
77.2677
71.1016
65.1761
59.5384
54.2322
49.2979
44.772
40.6876
37.0749
33.9608
31.3701
29.3258
27.8494
26.9616
26.6826
27.0326
28.0314
29.6991
32.0553
35.1189
38.9077
43.4372
48.72
54.7648
61.5751
69.1482
77.474
86.534
96.3009
106.737
117.795
129.418
141.537
154.076
166.952
180.072
193.341
96.6968
90.1184
83.6235
77.2664
71.0999
65.1741
59.536
54.2296
49.2951
44.7692
40.685
37.0725
33.9589
31.3689
29.3254
27.8501
26.9635
26.686
27.0375
28.0379
29.7073
32.0651
35.1303
38.9204
43.4511
48.7348
54.7801
61.5905
69.1634
77.4886
86.5478
96.3135
106.748
117.805
129.426
141.544
154.082
166.956
180.074
193.341
96.6965
90.1174
83.6218
77.264
71.0968
65.1703
59.5318
54.225
49.2903
44.7644
40.6804
37.0686
33.9559
31.3671
29.3253
27.8519
26.9677
26.6928
27.0471
28.0506
29.7231
32.0841
35.1523
38.9451
43.4781
48.7637
54.8102
61.6212
69.1939
77.5183
86.5759
96.3395
106.772
117.826
129.443
141.558
154.093
166.963
180.079
193.343
96.696
90.116
83.6194
77.2608
71.0927
65.1654
59.5262
54.2189
49.284
44.7582
40.6747
37.0637
33.9523
31.3654
29.3258
27.8552
26.9742
26.7029
27.0612
28.069
29.7459
32.1112
35.1837
38.9805
43.517
48.8053
54.8539
61.666
69.2388
77.5621
86.6178
96.3785
106.807
117.857
129.47
141.58
154.11
166.975
180.086
193.345
96.6956
90.1144
83.6169
77.2572
71.0881
65.1599
59.52
54.2123
49.2772
44.7516
40.6688
37.059
33.9492
31.3645
29.3277
27.8605
26.9834
26.7166
27.0798
28.0928
29.7752
32.1462
35.2241
39.026
43.5671
48.8592
54.9106
61.7244
69.2975
77.6199
86.6733
96.4305
106.855
117.899
129.506
141.609
154.133
166.992
180.096
193.349
96.6951
90.1129
83.6143
77.2536
71.0835
65.1545
59.5139
54.2058
49.2706
44.7454
40.6634
37.0548
33.947
31.3649
29.3313
27.868
26.9954
26.7337
27.1026
28.1218
29.8107
32.1882
35.2726
39.0807
43.6274
48.9243
54.9794
61.7954
69.3693
77.6909
86.7418
96.4949
106.914
117.951
129.551
141.646
154.162
167.012
180.108
193.353
96.6946
90.1115
83.612
77.2503
71.0794
65.1496
59.5084
54.2
49.265
44.7402
40.6592
37.0522
33.9465
31.3672
29.3372
27.878
27.0104
26.7544
27.1296
28.1556
29.8516
32.2365
35.3283
39.1436
43.6968
48.9994
55.0589
61.878
69.4531
77.774
86.8223
96.571
106.983
118.013
129.605
141.691
154.196
167.037
180.123
193.358
96.6943
90.1104
83.6102
77.2479
71.0763
65.1459
59.5045
54.196
49.2612
44.7371
40.6572
37.0519
33.9486
31.3722
29.3459
27.8913
27.0289
26.7788
27.1606
28.1938
29.8976
32.2904
35.3903
39.2134
43.7739
49.083
55.1478
61.9705
69.5475
77.8681
86.9139
96.6578
107.063
118.085
129.666
141.742
154.236
167.065
180.14
193.363
96.6942
90.1099
83.6095
77.2468
71.0749
65.1444
59.5028
54.1946
49.2603
44.737
40.6585
37.0551
33.9542
31.3809
29.3584
27.9083
27.0512
26.8072
27.1957
28.2363
29.9479
32.349
35.4573
39.2887
43.8571
49.1733
55.244
62.0711
69.6505
77.9713
87.0148
96.7539
107.153
118.165
129.735
141.799
154.28
167.097
180.159
193.369
96.6943
90.1103
83.61
77.2475
71.0759
65.1456
59.5045
54.1968
49.2633
44.7412
40.6642
37.0628
33.9644
31.3943
29.3756
27.9299
27.078
26.8398
27.2349
28.2826
30.002
32.4112
35.5279
39.3677
43.9442
49.2679
55.3452
62.1773
69.7598
78.0814
87.1231
96.8577
107.249
118.252
129.811
141.861
154.329
167.132
180.179
193.376
96.6948
90.1117
83.6124
77.2508
71.08
65.1506
59.5104
54.2038
49.2715
44.7509
40.6757
37.0764
33.9807
31.4136
29.3985
27.957
27.1099
26.8772
27.2783
28.3327
30.0592
32.476
35.6006
39.4485
44.033
49.3643
55.4483
62.286
69.8723
78.1955
87.2361
96.9668
107.351
118.344
129.891
141.928
154.382
167.169
180.202
193.384
96.6957
90.1145
83.617
77.2572
71.088
65.1603
59.5217
54.2168
49.2863
44.7676
40.6944
37.0974
34.0043
31.4402
29.4285
27.9908
27.148
26.9199
27.3263
28.3864
30.1191
32.5426
35.6741
39.5293
44.1212
49.4597
55.5505
62.394
69.9847
78.3103
87.3509
97.0786
107.457
118.441
129.976
141.999
154.437
167.209
180.226
193.392
96.6972
90.119
83.6244
77.2673
71.1009
65.1757
59.5397
54.2371
49.309
44.7927
40.722
37.1275
34.037
31.4758
29.467
28.0326
27.1933
26.9691
27.3796
28.4441
30.1816
32.6103
35.7475
39.6086
44.2068
49.5517
55.6487
62.4981
70.0936
78.4224
87.464
97.1899
107.563
118.539
130.063
142.072
154.495
167.25
180.25
193.4
96.6994
90.1254
83.6351
77.2821
71.1195
65.1981
59.5656
54.2664
49.3414
44.8281
40.7603
37.1686
34.0808
31.5221
29.516
28.0842
27.2475
27.0259
27.4392
28.5066
30.2472
32.6793
35.8202
39.6856
44.2884
49.6384
55.7408
62.5954
70.1958
78.5284
87.5721
97.2976
107.668
118.636
130.15
142.146
154.553
167.292
180.276
193.408
96.7024
90.1343
83.6497
77.3023
71.1451
65.2287
59.6009
54.3061
49.3853
44.8757
40.8113
37.2227
34.1376
31.5814
29.5774
28.1475
27.3124
27.0922
27.5067
28.5752
30.317
32.7504
35.893
39.7604
44.3659
49.7191
55.8254
62.6842
70.289
78.6256
87.6721
97.3986
107.767
118.731
130.235
142.219
154.612
167.334
180.301
193.416
96.7063
90.1459
83.6689
77.3288
71.1786
65.2688
59.6473
54.3582
49.4425
44.9376
40.8772
37.2921
34.2099
31.656
29.6537
28.2249
27.3903
27.1702
27.5842
28.6521
30.393
32.8255
35.9673
39.8344
44.4402
49.7945
55.9026
62.7642
70.3723
78.7124
87.7621
97.4906
107.859
118.819
130.317
142.291
154.669
167.376
180.327
193.425
96.7112
90.1607
83.6934
77.3627
71.2214
65.3201
59.7064
54.4245
49.5153
45.0161
40.9606
37.3794
34.3004
31.7487
29.7477
28.3192
27.4841
27.2626
27.6747
28.74
30.4779
32.9072
36.046
39.9102
44.5138
49.8666
55.9743
62.8366
70.4465
78.7891
87.8417
97.5725
107.942
118.901
130.394
142.359
154.725
167.418
180.352
193.433
96.7174
90.1793
83.724
77.405
71.275
65.3842
59.7803
54.5073
49.6061
45.1137
41.064
37.4875
34.4119
31.8624
29.8623
28.4335
27.597
27.373
27.7815
28.8424
30.5753
32.9993
36.1326
39.9916
44.5903
49.9391
56.0438
62.9044
70.5139
78.8575
87.9119
97.6448
108.015
118.974
130.465
142.423
154.779
167.457
180.376
193.441
96.725
90.202
83.7616
77.4571
71.3408
65.463
59.871
54.609
49.7174
45.2334
41.1906
37.6195
34.5477
32.0005
30.0012
28.5716
27.7328
27.5051
27.9087
28.9636
30.6896
33.1063
36.2318
40.0831
44.6745
50.0167
56.1159
62.9722
70.5789
78.9212
87.9757
97.7097
108.081
119.041
130.529
142.483
154.83
167.496
180.4
193.449
96.7342
90.2297
83.8073
77.5202
71.4207
65.5586
59.9811
54.7322
49.8522
45.3782
41.3436
37.7789
34.7117
32.1671
30.1684
28.7376
27.8958
27.6634
28.0609
29.1083
30.8259
33.2333
36.3491
40.1906
44.7723
50.1053
56.1962
63.0455
70.6467
78.9853
88.0376
97.7709
108.143
119.102
130.589
142.539
154.879
167.533
180.423
193.456
96.7453
90.263
83.8622
77.5962
71.5167
65.6734
60.1133
54.88
50.0139
45.5517
41.527
37.9698
34.9079
32.3663
30.3684
28.9362
28.0909
27.8531
28.2434
29.2822
30.9899
33.3863
36.4906
40.3201
44.8899
50.2114
56.2914
63.131
70.7239
79.0559
88.1034
97.8336
108.204
119.162
130.647
142.593
154.926
167.57
180.447
193.464
96.7586
90.3026
83.9277
77.6867
71.631
65.8101
60.2706
55.056
50.2063
45.7581
41.7449
38.1967
35.1411
32.6032
30.6064
29.1728
28.3236
28.0798
28.4621
29.4912
31.1876
33.5717
36.6627
40.4784
45.0342
50.3419
56.4087
63.2358
70.8175
79.1399
88.1797
97.904
108.27
119.224
130.706
142.648
154.974
167.608
180.471
193.472
96.7743
90.3496
84.0053
77.7939
71.7664
65.972
60.4567
55.264
50.4335
46.0019
42.0022
38.4647
35.4166
32.8832
30.888
29.4531
28.6001
28.3499
28.7235
29.742
31.4261
33.7964
36.8727
40.6729
45.2127
50.5044
56.5554
63.3675
70.9352
79.2449
88.2738
97.9888
108.347
119.295
130.772
142.707
155.026
167.649
180.497
193.481
96.7928
90.4051
84.0969
77.9204
71.926
66.1625
60.6757
55.5086
50.7007
46.2883
42.3045
38.7794
35.7404
33.2126
31.2197
29.7839
28.927
28.6701
29.0346
30.0417
31.7126
34.068
37.1281
40.9111
45.4332
50.7067
56.7397
63.5341
71.0849
79.3788
88.3932
98.0955
108.443
119.381
130.849
142.775
155.084
167.694
180.527
193.49
96.8147
90.4704
84.2046
78.069
72.1134
66.3861
60.9324
55.795
51.0133
46.6233
42.658
39.1475
36.1191
33.5982
31.6084
30.1723
29.3117
29.0481
29.4031
30.3983
32.055
34.3944
37.4369
41.2013
45.7037
50.9571
56.9697
63.7439
71.2748
79.5497
88.5462
98.2319
108.564
119.489
130.944
142.857
155.152
167.747
180.561
193.502
96.8403
90.547
84.331
78.2431
72.3328
66.6476
61.2323
56.1293
51.3778
47.0136
43.0696
39.576
36.5601
34.0474
32.0619
30.6261
29.7622
29.4919
29.8372
30.8199
32.4617
34.7842
37.8079
41.552
46.0331
51.2643
57.2543
64.0055
71.5137
79.7662
88.7411
98.4061
108.719
119.625
131.062
142.958
155.235
167.81
180.602
193.515
96.8704
90.6368
84.479
78.447
72.5893
66.9527
61.5818
56.5184
51.8014
47.4667
43.5472
40.0729
37.0716
34.5687
32.5885
31.1538
30.287
30.0103
30.3457
31.3155
32.9417
35.2462
38.25
41.9724
46.4304
51.6375
57.6024
64.3282
71.8106
80.0373
88.9866
98.6266
108.915
119.798
131.212
143.085
155.338
167.887
180.651
193.532
96.9058
90.7422
84.6524
78.6854
72.8887
67.3083
61.9883
56.9701
52.2925
47.9913
44.0994
40.6472
37.6624
35.171
33.1972
31.7644
30.8953
30.6122
30.9377
31.8943
33.5044
35.7901
38.7728
42.4721
46.9054
52.0863
58.0239
64.7214
72.175
80.3723
89.292
98.9023
109.161
120.014
131.399
143.243
155.465
167.982
180.711
193.552
96.9472
90.8657
84.8555
78.9641
73.238
67.7223
62.4604
57.4935
52.8603
48.5968
44.7359
41.3084
38.3423
35.8638
33.8977
32.4676
31.5966
31.3075
31.623
32.5661
34.1594
36.4256
39.3862
43.0611
47.4679
52.6207
58.5287
65.1954
72.6169
80.7812
89.667
99.2427
109.466
120.284
131.633
143.439
155.623
168.1
180.785
193.576
96.996
91.0108
85.0938
79.2904
73.6457
68.204
63.0081
58.099
53.5155
49.2938
45.4673
42.0669
39.1214
36.6574
34.7
33.2733
32.4009
32.1059
32.4115
33.3408
34.917
37.1629
40.1003
43.7496
48.1285
53.2513
59.1274
65.7605
73.1468
81.2744
90.122
99.658
109.84
120.616
131.92
143.681
155.818
168.244
180.875
193.607
97.0536
91.1819
85.3739
79.6728
74.1219
68.7644
63.643
58.7984
54.2699
50.094
46.3049
42.934
40.0108
37.5624
35.6146
34.192
33.3185
33.0177
33.3132
34.2286
35.7872
38.0122
40.9257
44.5482
48.8978
53.9888
59.831
66.4279
73.776
81.8632
90.6682
100.159
110.294
121.02
132.273
143.978
156.057
168.421
180.985
193.644
97.1219
91.3842
85.7044
80.1222
74.6789
69.4169
64.3786
59.6052
55.1366
51.0103
47.2611
43.9216
41.0219
38.59
36.6523
35.234
34.3595
34.053
34.3384
35.2396
36.7803
38.9838
41.8727
45.4675
49.7865
54.8443
60.6506
67.209
74.516
82.5594
91.3177
100.759
110.841
121.509
132.701
144.341
156.349
168.638
181.118
193.69
97.2034
91.6253
86.0966
80.6523
75.332
70.1772
65.2306
60.5347
56.1304
52.0564
48.3491
45.042
42.1665
39.7513
37.8238
36.4098
35.5343
35.2219
35.4969
36.3837
37.9061
40.0879
42.9515
46.518
50.8055
55.8288
61.5976
68.1156
75.3791
83.3758
92.0837
101.471
111.493
122.098
133.219
144.782
156.706
168.903
181.282
193.747
97.3017
91.9152
86.5653
81.2812
76.1002
71.0643
66.2175
61.6041
57.2671
53.2472
49.5825
46.308
43.4564
41.0576
39.1398
37.7296
36.8526
36.5339
36.7983
37.6703
39.1743
41.334
44.1721
47.7097
51.9652
56.9533
62.6837
69.16
76.3783
84.326
92.9808
102.31
112.268
122.802
133.844
145.32
157.144
169.23
181.484
193.818
97.4224
92.2687
87.1315
82.0323
77.0076
72.1013
67.3605
62.8327
58.5642
54.5983
50.9753
47.7324
44.9034
42.5197
40.6105
39.203
38.3238
37.9982
38.2515
39.1085
40.5938
42.7313
45.5439
49.0527
53.2761
58.2288
63.9206
70.3548
77.5273
85.4252
94.0255
103.294
113.186
123.644
134.6
145.976
157.685
169.638
181.739
193.91
97.5742
92.7091
87.8257
82.9378
78.0846
73.3156
68.6836
64.2415
60.0398
56.1255
52.5416
49.3274
46.5186
44.1478
42.2452
40.839
39.9562
39.6229
39.8646
40.7064
42.173
44.2886
47.076
50.5565
54.7485
59.6666
65.3205
71.7135
78.8412
86.6901
95.2367
104.446
114.271
124.652
135.517
146.783
158.36
170.155
182.065
194.028
97.7735
93.2752
88.693
84.0407
79.3692
74.7393
70.2136
65.8525
61.7123
57.8441
54.2943
51.1043
48.3118
45.9506
44.052
42.645
41.7573
41.4152
41.6448
42.4712
43.9195
46.0139
48.7772
52.2309
56.3931
61.2787
66.8972
73.2516
80.3374
88.1408
96.6372
105.791
115.552
125.858
136.633
147.787
159.217
170.827
182.492
194.183
98.0519
94.0343
89.8003
85.3974
80.9058
76.4066
71.9766
67.6858
63.5972
59.7665
56.2433
53.0714
50.29
47.9343
46.0366
44.6266
43.7324
43.3809
43.5981
44.4098
45.8409
47.9157
50.6573
54.0868
58.2227
63.0796
68.667
74.9879
82.0374
89.8013
98.2546
107.36
117.066
127.308
138.001
149.049
160.331
171.729
183.082
194.403
98.5224
95.1085
91.2348
87.0699
82.7374
78.3463
73.9913
69.7534
65.702
61.8971
58.3911
55.2299
52.454
50.0997
48.2001
46.7853
45.8839
45.5231
45.7292
46.528
47.9446
50.0032
52.7271
56.1374
60.2525
65.087
70.6504
76.9454
83.9672
91.7012
100.122
109.191
118.856
129.048
139.68
150.644
161.801
172.996
183.985
194.803
99.3917
96.7408
93.1646
89.1601
84.9235
80.5916
76.2747
72.0619
68.0271
64.2329
60.7331
57.5747
54.7991
52.4431
50.54
49.1205
48.2133
47.8456
48.044
48.8342
50.2414
52.29
55.0031
58.4017
62.5045
67.3258
72.875
79.1551
86.1609
93.8775
102.279
111.327
120.966
131.129
141.723
152.637
163.719
174.794
185.525
195.814
)
;

boundaryField
{
    carasuperior
    {
        type            fixedGradient;
        gradient        uniform 100;
    }
    lateralizquierda
    {
        type            fixedValue;
        value           uniform 100;
    }
    lateralderecha
    {
        type            fixedValue;
        value           uniform 200;
    }
    carainferior
    {
        type            zeroGradient;
    }
    frontAndBack
    {
        type            empty;
    }
}


// ************************************************************************* //
