/*--------------------------------*- C++ -*----------------------------------*\
| =========                 |                                                 |
| \\      /  F ield         | OpenFOAM: The Open Source CFD Toolbox           |
|  \\    /   O peration     | Version:  2.4.0                                 |
|   \\  /    A nd           | Web:      www.OpenFOAM.org                      |
|    \\/     M anipulation  |                                                 |
\*---------------------------------------------------------------------------*/
FoamFile
{
    version     2.0;
    format      ascii;
    class       volScalarField;
    location    "1.5";
    object      p;
}
// * * * * * * * * * * * * * * * * * * * * * * * * * * * * * * * * * * * * * //

dimensions      [0 2 -2 0 0 0 0];

internalField   nonuniform List<scalar> 
4800
(
-1.74544e-06
-0.0015115
-0.00301187
-0.00404621
-0.00431216
-0.0036711
-0.00208321
0.000442339
0.0038561
0.00805947
0.00150114
-3.2876e-05
-0.00108522
-0.00162699
-0.0015451
-0.000736837
0.000839419
0.00319343
0.00630804
0.01013
0.00302829
0.000976199
-8.03805e-05
-0.000478257
-0.000279922
0.000571527
0.00210387
0.00433657
0.00728078
0.0109221
0.00397963
0.00133871
0.000126698
-0.000282263
-9.29742e-05
0.000712534
0.002152
0.00426125
0.00709053
0.0106784
0.00385858
0.000760016
-0.000614037
-0.00109843
-0.000998783
-0.000319646
0.000962513
0.00291786
0.00566052
0.0093246
0.00234855
-0.00101388
-0.00251773
-0.00312032
-0.00318512
-0.00272152
-0.00168011
6.80557e-05
0.00273874
0.00665728
-0.000694001
-0.0041044
-0.00568724
-0.00643859
-0.00674122
-0.00659598
-0.00590934
-0.00446951
-0.00191605
0.00247023
-0.00525954
-0.00850545
-0.0101103
-0.0110333
-0.011646
-0.0119372
-0.0117605
-0.0108099
-0.00856299
-0.00351836
-0.0111936
-0.0140892
-0.0156601
-0.0167658
-0.0177471
-0.0185895
-0.0190999
-0.0188809
-0.0173129
-0.0114292
-0.0182127
-0.0206213
-0.0221059
-0.0233829
-0.0247575
-0.0262469
-0.0276773
-0.0286594
-0.0289711
-0.0241563
-4.58726e-06
-0.00153222
-0.00304211
-0.00408469
-0.00435546
-0.00371631
-0.00212839
0.000399105
0.003817
0.00802695
0.00151727
-3.72662e-05
-0.00106827
-0.00160063
-0.00151414
-0.000702991
0.000873293
0.0032249
0.00633564
0.0101538
0.00305707
0.000951455
-8.15336e-05
-0.000477295
-0.000281314
0.000570198
0.00210242
0.00433454
0.00727808
0.0109205
0.00402104
0.00130442
0.000126652
-0.000279559
-9.43177e-05
0.000710682
0.0021497
0.00425785
0.0070851
0.0106737
0.0039086
0.000720151
-0.000609729
-0.00108902
-0.0009934
-0.00031462
0.000966882
0.00292015
0.00565674
0.00931793
0.00240259
-0.0010577
-0.00251215
-0.00310844
-0.00317718
-0.00271371
-0.00167255
7.3976e-05
0.00273251
0.0066394
-0.000640092
-0.00414911
-0.00568132
-0.00642564
-0.00673157
-0.00658598
-0.00589825
-0.0044561
-0.00192415
0.00242546
-0.00520992
-0.00854819
-0.0101049
-0.0110207
-0.0116358
-0.0119268
-0.0117487
-0.0107888
-0.00858616
-0.00367505
-0.0111522
-0.0141278
-0.0156564
-0.0167551
-0.0177371
-0.0185783
-0.0190845
-0.0188281
-0.0172984
-0.0117809
-0.0181824
-0.0206547
-0.0221054
-0.0233768
-0.0247507
-0.0262361
-0.0276536
-0.028524
-0.0286589
-0.0242538
-5.34283e-06
-0.00153261
-0.00304229
-0.00408479
-0.00435552
-0.00371636
-0.00212844
0.000399063
0.00381696
0.00802692
0.00151688
-3.75071e-05
-0.00106841
-0.00160072
-0.00151421
-0.000703052
0.000873241
0.00322486
0.0063356
0.0101537
0.00305687
0.000951301
-8.16447e-05
-0.00047738
-0.000281388
0.000570132
0.00210237
0.00433449
0.00727803
0.0109204
0.00402091
0.0013043
0.000126554
-0.000279643
-9.43946e-05
0.000710611
0.00214964
0.00425779
0.00708505
0.0106737
0.00390848
0.000720048
-0.000609819
-0.00108911
-0.000993478
-0.000314692
0.000966817
0.00292009
0.00565669
0.00931788
0.00240248
-0.00105779
-0.00251224
-0.00310852
-0.00317726
-0.00271378
-0.00167262
7.3916e-05
0.00273246
0.00663935
-0.000640194
-0.0041492
-0.0056814
-0.00642572
-0.00673164
-0.00658605
-0.00589831
-0.00445616
-0.00192421
0.00242541
-0.00521001
-0.00854828
-0.010105
-0.0110207
-0.0116359
-0.0119268
-0.0117488
-0.0107888
-0.00858621
-0.00367509
-0.0111522
-0.0141279
-0.0156565
-0.0167552
-0.0177372
-0.0185783
-0.0190845
-0.0188282
-0.0172984
-0.011781
-0.0181825
-0.0206547
-0.0221054
-0.0233768
-0.0247507
-0.0262361
-0.0276537
-0.0285241
-0.0286589
-0.0242538
-4.61991e-06
-0.00151257
-0.00301234
-0.00404646
-0.00431232
-0.00367124
-0.00208333
0.000442235
0.003856
0.00805939
0.00150006
-3.35002e-05
-0.00108557
-0.00162723
-0.00154528
-0.000736991
0.000839283
0.00319331
0.00630793
0.0101299
0.00302778
0.000975816
-8.06594e-05
-0.00047848
-0.000280111
0.000571359
0.00210372
0.00433644
0.00728066
0.010922
0.0039793
0.00133842
0.000126453
-0.00028248
-9.31679e-05
0.000712356
0.00215184
0.0042611
0.0070904
0.0106783
0.0038583
0.000759758
-0.000614271
-0.00109865
-0.000998984
-0.000319833
0.000962342
0.00291771
0.00566039
0.00932449
0.00234828
-0.00101412
-0.00251795
-0.00312054
-0.00318533
-0.00272171
-0.00168028
6.79029e-05
0.00273861
0.00665717
-0.000694262
-0.00410464
-0.00568747
-0.00643881
-0.00674142
-0.00659617
-0.00590951
-0.00446966
-0.00191618
0.00247012
-0.00525979
-0.00850568
-0.0101106
-0.0110335
-0.0116462
-0.0119374
-0.0117607
-0.0108101
-0.00856311
-0.00351846
-0.0111938
-0.0140894
-0.0156603
-0.016766
-0.0177473
-0.0185896
-0.0191001
-0.018881
-0.017313
-0.0114293
-0.0182129
-0.0206215
-0.0221061
-0.0233831
-0.0247577
-0.0262471
-0.0276774
-0.0286595
-0.0289712
-0.0241564
0.0129
0.0181937
0.0237755
0.0295218
0.0353511
0.0412168
0.0470968
0.052986
0.0588914
0.0648301
0.0708298
0.0769292
0.0831785
0.0896378
0.096372
0.103439
0.110875
0.118647
0.12666
0.134696
0.0145588
0.0194564
0.0246943
0.0301677
0.0357968
0.0415269
0.0473237
0.05317
0.0590616
0.0650059
0.0710207
0.0771333
0.0833792
0.0897999
0.0964373
0.103325
0.11047
0.117851
0.125367
0.132845
0.0151879
0.0199382
0.0250509
0.0304256
0.0359823
0.0416625
0.0474275
0.0532544
0.0591337
0.0650668
0.0710646
0.0771464
0.0833387
0.0896729
0.0961822
0.102895
0.109824
0.116956
0.124226
0.131499
0.014973
0.0197728
0.0249351
0.0303535
0.0359447
0.0416499
0.0474312
0.0532657
0.0591426
0.0650599
0.0710234
0.0770454
0.0831445
0.0893446
0.0956754
0.102172
0.108857
0.11576
0.122867
0.130107
0.0138903
0.0189697
0.0243706
0.0299785
0.0357088
0.0415101
0.0473533
0.0532224
0.0591097
0.0650127
0.070933
0.0768759
0.0828508
0.0888732
0.0949675
0.101172
0.107549
0.114166
0.121097
0.128392
0.011903
0.0175839
0.0234431
0.0293862
0.0353462
0.0412972
0.0472331
0.0531534
0.0590587
0.0649486
0.0708213
0.076674
0.0825051
0.088318
0.0941283
0.0999769
0.105946
0.112168
0.118836
0.126245
0.0091302
0.0158572
0.0223953
0.0287763
0.0350031
0.0411112
0.0471368
0.0531035
0.0590232
0.0648984
0.0707233
0.0764857
0.08217
0.0877619
0.0932583
0.0986881
0.104147
0.109823
0.116061
0.123615
0.00594236
0.0142603
0.0216091
0.0284212
0.0348562
0.0410601
0.0471293
0.053113
0.0590321
0.064889
0.0706716
0.0763564
0.0819109
0.0872973
0.0924822
0.0974631
0.102337
0.107309
0.112844
0.120444
0.00424329
0.0143379
0.0219381
0.0287522
0.0351155
0.0412442
0.047261
0.0532133
0.0591136
0.0649547
0.0707142
0.0763546
0.0818231
0.087051
0.091957
0.0964748
0.100651
0.104523
0.108402
0.114987
0.00869619
0.0193781
0.0249028
0.0303845
0.0360159
0.0417527
0.0475715
0.0534344
0.0593058
0.0651521
0.0709332
0.0765947
0.0820582
0.0872101
0.0918862
0.095855
0.0988051
0.100448
0.10009
0.102518
0.0128757
0.0181769
0.0237645
0.029515
0.035347
0.0412143
0.0470952
0.0529847
0.05889
0.0648283
0.0708274
0.076926
0.0831744
0.0896331
0.0963669
0.103435
0.110872
0.118648
0.126668
0.134714
0.0145798
0.0194739
0.0247081
0.0301781
0.0358045
0.0415325
0.0473281
0.0531736
0.059065
0.0650095
0.0710247
0.0771376
0.0833835
0.0898036
0.0964394
0.103324
0.110464
0.117839
0.125347
0.132817
0.0151905
0.0199428
0.0250558
0.0304303
0.0359862
0.0416656
0.0474299
0.0532562
0.0591351
0.0650679
0.0710655
0.0771472
0.0833392
0.089673
0.0961815
0.102894
0.109822
0.116952
0.124221
0.131494
0.0149771
0.0197793
0.0249415
0.0303592
0.0359492
0.0416533
0.0474335
0.0532673
0.0591437
0.0650606
0.0710239
0.0770458
0.0831447
0.0893447
0.095675
0.10217
0.108855
0.115756
0.122861
0.130102
0.0139014
0.018982
0.0243804
0.0299861
0.0357141
0.0415136
0.0473556
0.0532238
0.0591106
0.0650133
0.0709336
0.0768765
0.0828514
0.0888739
0.0949682
0.101172
0.107548
0.114163
0.121087
0.128379
0.0119271
0.0176041
0.0234555
0.0293945
0.035351
0.0412997
0.0472344
0.053154
0.059059
0.0649488
0.0708214
0.0766742
0.0825055
0.0883188
0.0941292
0.0999774
0.105946
0.112166
0.118819
0.126211
0.00919488
0.015899
0.0224142
0.0287861
0.0350072
0.0411124
0.0471369
0.0531032
0.0590229
0.0648982
0.0707233
0.076486
0.0821707
0.0877631
0.0932598
0.0986886
0.104145
0.109818
0.116021
0.12352
0.0060527
0.014304
0.0216176
0.0284245
0.0348558
0.0410584
0.0471277
0.0531117
0.0590311
0.064888
0.0706708
0.0763558
0.0819106
0.0872978
0.0924838
0.097464
0.102336
0.107314
0.112808
0.120292
0.00438187
0.0142771
0.0218711
0.0287243
0.0351013
0.0412357
0.0472558
0.0532095
0.05911
0.0649507
0.0707094
0.0763489
0.0818166
0.087045
0.0919541
0.096477
0.100669
0.104605
0.108511
0.114818
0.00949572
0.0195083
0.0249107
0.0304055
0.0360295
0.0417589
0.0475749
0.0534367
0.0593078
0.0651542
0.0709359
0.076598
0.0820622
0.0872145
0.0918892
0.0958511
0.0987953
0.100475
0.10003
0.101527
0.0128757
0.0181768
0.0237645
0.0295149
0.035347
0.0412143
0.0470952
0.0529847
0.05889
0.0648283
0.0708274
0.076926
0.0831745
0.0896331
0.0963669
0.103435
0.110872
0.118648
0.126668
0.134714
0.0145798
0.0194739
0.0247081
0.0301781
0.0358045
0.0415325
0.0473281
0.0531736
0.059065
0.0650095
0.0710247
0.0771376
0.0833836
0.0898037
0.0964395
0.103324
0.110464
0.117839
0.125347
0.132817
0.0151905
0.0199427
0.0250558
0.0304303
0.0359862
0.0416656
0.0474299
0.0532562
0.0591351
0.0650679
0.0710655
0.0771472
0.0833392
0.089673
0.0961815
0.102894
0.109822
0.116952
0.124221
0.131494
0.014977
0.0197793
0.0249415
0.0303592
0.0359492
0.0416533
0.0474335
0.0532673
0.0591437
0.0650606
0.0710239
0.0770458
0.0831447
0.0893447
0.095675
0.10217
0.108855
0.115756
0.122861
0.130102
0.0139014
0.018982
0.0243804
0.0299861
0.0357141
0.0415136
0.0473556
0.0532238
0.0591106
0.0650133
0.0709336
0.0768765
0.0828514
0.0888739
0.0949682
0.101172
0.107548
0.114163
0.121087
0.128379
0.011927
0.017604
0.0234555
0.0293944
0.035351
0.0412997
0.0472344
0.053154
0.059059
0.0649488
0.0708214
0.0766742
0.0825056
0.0883188
0.0941292
0.0999774
0.105946
0.112166
0.118819
0.126211
0.00919485
0.015899
0.0224141
0.0287861
0.0350072
0.0411124
0.0471369
0.0531032
0.0590229
0.0648982
0.0707233
0.076486
0.0821707
0.0877631
0.0932598
0.0986886
0.104146
0.109818
0.116021
0.12352
0.00605267
0.0143039
0.0216176
0.0284245
0.0348558
0.0410584
0.0471277
0.0531117
0.0590311
0.0648881
0.0706708
0.0763558
0.0819106
0.0872978
0.0924838
0.097464
0.102337
0.107314
0.112808
0.120292
0.00438185
0.014277
0.0218711
0.0287242
0.0351013
0.0412357
0.0472558
0.0532095
0.05911
0.0649508
0.0707094
0.0763489
0.0818166
0.087045
0.0919541
0.096477
0.100669
0.104605
0.108511
0.114818
0.00949569
0.0195083
0.0249107
0.0304055
0.0360294
0.0417589
0.0475749
0.0534367
0.0593078
0.0651542
0.0709359
0.076598
0.0820622
0.0872145
0.0918892
0.0958512
0.0987954
0.100475
0.10003
0.101527
0.0128999
0.0181936
0.0237755
0.0295218
0.0353511
0.0412168
0.0470968
0.052986
0.0588914
0.0648301
0.0708298
0.0769292
0.0831785
0.0896379
0.096372
0.103439
0.110875
0.118647
0.12666
0.134696
0.0145587
0.0194563
0.0246943
0.0301676
0.0357968
0.0415268
0.0473237
0.05317
0.0590616
0.0650059
0.0710208
0.0771333
0.0833792
0.0897999
0.0964373
0.103325
0.11047
0.117851
0.125367
0.132845
0.0151878
0.0199381
0.0250508
0.0304256
0.0359823
0.0416625
0.0474275
0.0532544
0.0591337
0.0650668
0.0710646
0.0771465
0.0833387
0.089673
0.0961822
0.102895
0.109824
0.116956
0.124226
0.131499
0.0149729
0.0197727
0.024935
0.0303535
0.0359447
0.0416499
0.0474312
0.0532657
0.0591426
0.0650599
0.0710234
0.0770455
0.0831445
0.0893446
0.0956754
0.102172
0.108857
0.11576
0.122867
0.130107
0.0138902
0.0189696
0.0243705
0.0299784
0.0357087
0.0415101
0.0473533
0.0532224
0.0591097
0.0650127
0.070933
0.0768759
0.0828508
0.0888732
0.0949676
0.101172
0.107549
0.114166
0.121097
0.128392
0.0119029
0.0175838
0.0234431
0.0293862
0.0353461
0.0412972
0.0472331
0.0531534
0.0590587
0.0649486
0.0708213
0.076674
0.0825051
0.088318
0.0941283
0.099977
0.105946
0.112168
0.118836
0.126245
0.00913011
0.0158571
0.0223952
0.0287763
0.035003
0.0411112
0.0471368
0.0531034
0.0590232
0.0648984
0.0707233
0.0764857
0.0821701
0.087762
0.0932584
0.0986882
0.104147
0.109823
0.116061
0.123615
0.00594228
0.0142602
0.0216091
0.0284212
0.0348562
0.0410601
0.0471293
0.053113
0.0590321
0.064889
0.0706716
0.0763565
0.0819109
0.0872974
0.0924823
0.0974632
0.102337
0.107309
0.112844
0.120444
0.00424322
0.0143378
0.0219381
0.0287522
0.0351154
0.0412441
0.047261
0.0532133
0.0591136
0.0649547
0.0707142
0.0763547
0.0818231
0.087051
0.0919571
0.0964749
0.100651
0.104523
0.108402
0.114987
0.00869612
0.0193781
0.0249028
0.0303844
0.0360159
0.0417527
0.0475715
0.0534344
0.0593058
0.0651521
0.0709332
0.0765947
0.0820582
0.0872101
0.0918863
0.0958551
0.0988052
0.100448
0.10009
0.102518
0.142424
0.149444
0.15538
0.159948
0.162993
0.164505
0.164628
0.163677
0.162148
0.160642
0.140017
0.14655
0.152135
0.156538
0.15963
0.161406
0.161986
0.161624
0.160614
0.159134
0.138532
0.144979
0.15053
0.154955
0.158126
0.160032
0.160774
0.160567
0.159562
0.157634
0.137255
0.143872
0.149606
0.154203
0.157523
0.159548
0.160366
0.16017
0.159021
0.1566
0.135879
0.14289
0.148992
0.153899
0.157458
0.159648
0.160556
0.16037
0.159105
0.156336
0.134389
0.142046
0.148699
0.154043
0.157922
0.160328
0.161363
0.161225
0.159916
0.156979
0.132957
0.141533
0.148873
0.154728
0.158963
0.161611
0.162806
0.162761
0.161497
0.158572
0.131973
0.141748
0.14982
0.156165
0.16071
0.163568
0.164919
0.164999
0.163858
0.161105
0.131659
0.143311
0.152061
0.158715
0.16338
0.166313
0.167753
0.167952
0.166983
0.16453
0.136468
0.149184
0.157096
0.163095
0.167297
0.16998
0.171349
0.171604
0.17082
0.168751
0.142455
0.149486
0.15543
0.160002
0.163047
0.164555
0.164669
0.163705
0.162165
0.160641
0.139983
0.146511
0.152092
0.156493
0.159586
0.161366
0.161952
0.161599
0.16061
0.159113
0.138533
0.144982
0.150535
0.154961
0.158132
0.160036
0.160774
0.160566
0.159579
0.157604
0.137261
0.143883
0.149619
0.154216
0.157535
0.159557
0.160368
0.160171
0.159048
0.156562
0.135886
0.1429
0.149002
0.153909
0.157466
0.159653
0.160555
0.160369
0.159136
0.156292
0.1344
0.142057
0.14871
0.154053
0.15793
0.160333
0.161362
0.161223
0.15995
0.156934
0.132981
0.141549
0.148885
0.154739
0.15897
0.161615
0.162803
0.16276
0.161531
0.158527
0.132108
0.141801
0.149841
0.156179
0.160716
0.16357
0.164915
0.164997
0.16389
0.161061
0.131971
0.143325
0.152038
0.158707
0.163374
0.166309
0.167748
0.167949
0.167011
0.164491
0.13637
0.148832
0.15694
0.16305
0.167279
0.169973
0.171344
0.171603
0.170844
0.168718
0.142455
0.149486
0.15543
0.160002
0.163047
0.164555
0.164669
0.163705
0.162165
0.160641
0.139983
0.146511
0.152092
0.156493
0.159586
0.161366
0.161952
0.161599
0.16061
0.159113
0.138533
0.144982
0.150535
0.154961
0.158132
0.160036
0.160774
0.160566
0.159579
0.157604
0.137261
0.143883
0.149619
0.154216
0.157535
0.159557
0.160368
0.160171
0.159048
0.156562
0.135886
0.1429
0.149002
0.153909
0.157466
0.159653
0.160555
0.160369
0.159136
0.156292
0.1344
0.142057
0.14871
0.154053
0.15793
0.160333
0.161362
0.161223
0.15995
0.156934
0.132981
0.141549
0.148885
0.154739
0.15897
0.161615
0.162803
0.16276
0.161531
0.158527
0.132108
0.141801
0.149841
0.156179
0.160716
0.16357
0.164915
0.164997
0.16389
0.161061
0.131971
0.143325
0.152038
0.158707
0.163374
0.166309
0.167748
0.167949
0.167011
0.164491
0.136371
0.148832
0.15694
0.16305
0.167279
0.169973
0.171344
0.171603
0.170844
0.168718
0.142424
0.149444
0.15538
0.159948
0.162993
0.164505
0.164628
0.163676
0.162148
0.160642
0.140017
0.146549
0.152135
0.156538
0.15963
0.161406
0.161986
0.161624
0.160614
0.159134
0.138532
0.144978
0.15053
0.154955
0.158126
0.160032
0.160774
0.160567
0.159562
0.157634
0.137255
0.143872
0.149606
0.154203
0.157523
0.159548
0.160366
0.16017
0.159021
0.1566
0.135879
0.14289
0.148992
0.153899
0.157458
0.159648
0.160556
0.16037
0.159105
0.156336
0.134389
0.142046
0.148699
0.154043
0.157922
0.160328
0.161363
0.161225
0.159916
0.156979
0.132957
0.141533
0.148873
0.154728
0.158963
0.161611
0.162806
0.162761
0.161497
0.158572
0.131973
0.141748
0.14982
0.156165
0.16071
0.163568
0.164919
0.164999
0.163858
0.161105
0.131659
0.143311
0.152062
0.158715
0.16338
0.166313
0.167753
0.167952
0.166983
0.16453
0.136468
0.149184
0.157097
0.163095
0.167297
0.16998
0.171349
0.171604
0.17082
0.168751
0.169283
0.164832
0.16654
0.169745
0.17254
0.174549
0.175653
0.175885
0.175268
0.173617
0.179919
0.174894
0.174837
0.17646
0.178217
0.179633
0.180464
0.180654
0.180191
0.178945
0.185392
0.18246
0.182162
0.182984
0.184072
0.185039
0.185639
0.185787
0.185459
0.184571
0.190816
0.189239
0.188952
0.189353
0.190011
0.190651
0.191069
0.191181
0.190964
0.190371
0.196386
0.195572
0.195373
0.195573
0.195969
0.196383
0.196667
0.196752
0.196621
0.19626
0.202067
0.201687
0.201579
0.201686
0.201923
0.202182
0.202367
0.202429
0.202364
0.202179
0.207855
0.207724
0.207684
0.20774
0.207869
0.208015
0.208122
0.208161
0.208141
0.20809
0.213732
0.213766
0.21376
0.213772
0.213813
0.213861
0.213893
0.2139
0.213904
0.213961
0.219723
0.219859
0.219861
0.219816
0.219762
0.219704
0.219649
0.219606
0.219613
0.219749
0.225862
0.22606
0.226035
0.225902
0.225723
0.225531
0.225359
0.225237
0.22522
0.225406
0.232214
0.232428
0.232329
0.232059
0.231705
0.231329
0.230994
0.230752
0.230673
0.230872
0.238872
0.239029
0.238789
0.238313
0.237713
0.237086
0.236525
0.236108
0.235917
0.23607
0.245956
0.245936
0.245458
0.244683
0.24375
0.242788
0.241928
0.241268
0.240895
0.240912
0.253619
0.253211
0.25236
0.251175
0.249808
0.248424
0.247185
0.246207
0.245564
0.24531
0.262057
0.260871
0.259474
0.25776
0.255863
0.253983
0.252297
0.250927
0.249911
0.249184
0.271391
0.268909
0.266696
0.264335
0.261849
0.259447
0.257288
0.255471
0.253956
0.252516
0.281727
0.277
0.273691
0.270641
0.267614
0.264774
0.262208
0.259946
0.257816
0.255335
0.292703
0.284368
0.279751
0.276164
0.272845
0.269856
0.267123
0.264534
0.261709
0.257799
0.304136
0.290029
0.283719
0.279975
0.276945
0.274435
0.272075
0.269494
0.265998
0.260239
0.316082
0.290867
0.282492
0.279922
0.278655
0.277938
0.277009
0.275157
0.27124
0.26324
0.170083
0.16497
0.166651
0.16981
0.172564
0.17456
0.175657
0.175888
0.175289
0.173592
0.180049
0.174834
0.17488
0.176502
0.178237
0.179645
0.180471
0.180658
0.180209
0.178928
0.1854
0.182393
0.182171
0.183003
0.184084
0.185048
0.185645
0.185792
0.185472
0.18456
0.190837
0.189212
0.188956
0.189363
0.19002
0.190658
0.191075
0.191186
0.190974
0.190365
0.196399
0.19556
0.195373
0.195577
0.195974
0.196388
0.196672
0.196755
0.196627
0.196256
0.202072
0.201681
0.201578
0.201688
0.201925
0.202186
0.202371
0.202432
0.202367
0.202178
0.207857
0.207722
0.207683
0.20774
0.20787
0.208018
0.208124
0.208163
0.208142
0.20809
0.213732
0.213767
0.213759
0.213771
0.213814
0.213862
0.213895
0.213901
0.213903
0.213962
0.219721
0.219862
0.21986
0.219815
0.219762
0.219705
0.21965
0.219606
0.21961
0.219751
0.225859
0.226064
0.226035
0.225902
0.225723
0.225531
0.225359
0.225237
0.225216
0.22541
0.23221
0.232433
0.232329
0.232058
0.231705
0.231329
0.230994
0.230752
0.230668
0.230877
0.238866
0.239034
0.238788
0.238311
0.237713
0.237085
0.236526
0.236108
0.235912
0.236075
0.24595
0.245938
0.245455
0.244681
0.243748
0.242787
0.241928
0.241269
0.240892
0.240917
0.253614
0.253207
0.252356
0.251172
0.249805
0.248423
0.247185
0.246209
0.245566
0.245314
0.262055
0.260854
0.259467
0.257756
0.255859
0.253981
0.252297
0.25093
0.249919
0.249186
0.271402
0.268872
0.266688
0.264332
0.261845
0.259445
0.257288
0.255476
0.253976
0.252513
0.281781
0.276934
0.273685
0.270641
0.267608
0.264772
0.262209
0.259955
0.257853
0.255321
0.292788
0.2842
0.279728
0.276162
0.272837
0.269855
0.267126
0.264548
0.261771
0.257771
0.30427
0.289693
0.283715
0.280015
0.276958
0.274447
0.272083
0.269515
0.266095
0.260191
0.317428
0.290951
0.282783
0.280109
0.278724
0.277972
0.277026
0.275187
0.27138
0.263165
0.170083
0.16497
0.166651
0.16981
0.172564
0.17456
0.175657
0.175888
0.175289
0.173592
0.180049
0.174834
0.17488
0.176502
0.178237
0.179645
0.180471
0.180658
0.180209
0.178928
0.1854
0.182393
0.182171
0.183003
0.184084
0.185048
0.185646
0.185792
0.185472
0.18456
0.190837
0.189212
0.188956
0.189363
0.19002
0.190658
0.191075
0.191186
0.190974
0.190365
0.196399
0.19556
0.195373
0.195577
0.195974
0.196388
0.196672
0.196755
0.196627
0.196256
0.202072
0.201681
0.201578
0.201688
0.201925
0.202186
0.202371
0.202432
0.202367
0.202178
0.207857
0.207722
0.207683
0.20774
0.20787
0.208018
0.208124
0.208163
0.208142
0.20809
0.213732
0.213767
0.213759
0.213771
0.213814
0.213862
0.213895
0.213901
0.213903
0.213962
0.219721
0.219862
0.21986
0.219815
0.219762
0.219705
0.21965
0.219606
0.21961
0.219751
0.225859
0.226064
0.226035
0.225902
0.225723
0.225531
0.225359
0.225237
0.225216
0.22541
0.23221
0.232433
0.232329
0.232058
0.231705
0.231329
0.230994
0.230752
0.230668
0.230877
0.238866
0.239034
0.238788
0.238311
0.237713
0.237085
0.236525
0.236108
0.235912
0.236075
0.24595
0.245938
0.245455
0.244681
0.243748
0.242787
0.241928
0.241269
0.240892
0.240917
0.253614
0.253207
0.252356
0.251172
0.249805
0.248423
0.247185
0.246209
0.245566
0.245314
0.262055
0.260854
0.259467
0.257756
0.255859
0.253981
0.252297
0.25093
0.249919
0.249186
0.271402
0.268872
0.266688
0.264332
0.261845
0.259445
0.257288
0.255476
0.253976
0.252512
0.281781
0.276934
0.273685
0.270641
0.267608
0.264772
0.262209
0.259955
0.257853
0.255321
0.292788
0.2842
0.279728
0.276162
0.272837
0.269855
0.267126
0.264548
0.261771
0.257771
0.30427
0.289693
0.283715
0.280015
0.276958
0.274447
0.272083
0.269515
0.266095
0.260191
0.317428
0.290951
0.282783
0.280109
0.278724
0.277972
0.277026
0.275187
0.27138
0.263165
0.169284
0.164832
0.16654
0.169745
0.17254
0.174549
0.175653
0.175885
0.175269
0.173617
0.179919
0.174894
0.174837
0.17646
0.178217
0.179633
0.180464
0.180654
0.180191
0.178945
0.185393
0.18246
0.182162
0.182984
0.184072
0.185039
0.185639
0.185787
0.185459
0.184571
0.190816
0.189239
0.188952
0.189353
0.190011
0.190651
0.191069
0.191181
0.190964
0.190371
0.196386
0.195572
0.195373
0.195573
0.195969
0.196383
0.196667
0.196752
0.196621
0.19626
0.202067
0.201687
0.201579
0.201686
0.201923
0.202182
0.202368
0.202429
0.202364
0.202179
0.207855
0.207724
0.207684
0.20774
0.207869
0.208015
0.208122
0.208161
0.208141
0.20809
0.213732
0.213766
0.21376
0.213772
0.213813
0.213861
0.213893
0.2139
0.213904
0.213961
0.219723
0.219859
0.219861
0.219816
0.219762
0.219704
0.219649
0.219606
0.219613
0.219749
0.225862
0.22606
0.226035
0.225902
0.225723
0.225531
0.225359
0.225237
0.22522
0.225406
0.232214
0.232428
0.232329
0.232059
0.231705
0.231329
0.230994
0.230752
0.230673
0.230872
0.238872
0.239029
0.238789
0.238313
0.237713
0.237086
0.236525
0.236108
0.235917
0.23607
0.245956
0.245936
0.245458
0.244683
0.24375
0.242788
0.241928
0.241268
0.240895
0.240912
0.253618
0.253211
0.25236
0.251175
0.249808
0.248424
0.247185
0.246207
0.245564
0.24531
0.262057
0.260871
0.259474
0.25776
0.255863
0.253983
0.252297
0.250927
0.249911
0.249184
0.271391
0.268909
0.266696
0.264335
0.261849
0.259447
0.257288
0.255471
0.253956
0.252516
0.281727
0.277
0.273691
0.270641
0.267614
0.264774
0.262208
0.259946
0.257816
0.255335
0.292703
0.284368
0.279751
0.276164
0.272845
0.269856
0.267123
0.264534
0.261709
0.257799
0.304136
0.290029
0.283719
0.279975
0.276945
0.274435
0.272075
0.269494
0.265998
0.260239
0.316082
0.290867
0.282493
0.279922
0.278655
0.277938
0.277009
0.275157
0.27124
0.26324
0.254167
0.262873
0.26861
0.272871
0.276475
0.27972
0.28189
0.281991
0.278266
0.267769
0.225117
0.241285
0.252772
0.262408
0.271485
0.280078
0.287054
0.290752
0.28832
0.27537
0.207833
0.223406
0.236879
0.25038
0.26477
0.279629
0.293137
0.302545
0.303207
0.288479
0.194355
0.208259
0.22243
0.238747
0.258029
0.279691
0.301385
0.319087
0.325598
0.311032
0.184424
0.196963
0.211444
0.229948
0.253681
0.28241
0.313838
0.342932
0.359463
0.349516
0.178347
0.190408
0.205553
0.226217
0.254266
0.29033
0.333065
0.377422
0.410421
0.414103
0.176011
0.188693
0.2053
0.228651
0.261357
0.305366
0.361325
0.425894
0.4851
0.519226
0.176598
0.190697
0.209395
0.235906
0.273743
0.32662
0.398267
0.488746
0.588727
0.692186
0.178453
0.193718
0.213857
0.242407
0.283845
0.344128
0.431633
0.554634
0.723343
1.00307
0.179974
0.194721
0.213695
0.240289
0.279237
0.337951
0.430486
0.584416
0.87059
1.48758
0.254493
0.262399
0.268483
0.272857
0.276471
0.279728
0.281895
0.282025
0.27846
0.267657
0.225556
0.241233
0.252717
0.262376
0.271464
0.280073
0.287047
0.290789
0.288583
0.275217
0.208097
0.223425
0.236851
0.250342
0.264733
0.279604
0.293108
0.302581
0.303549
0.288283
0.194448
0.208245
0.222382
0.238681
0.257958
0.279626
0.301313
0.319105
0.326013
0.310792
0.184452
0.196932
0.211376
0.229853
0.253568
0.282289
0.3137
0.34291
0.359903
0.349258
0.178354
0.190371
0.205473
0.226099
0.254108
0.29013
0.332821
0.377305
0.410783
0.414049
0.176025
0.188671
0.205231
0.228528
0.261159
0.305052
0.360892
0.425568
0.485072
0.519702
0.176642
0.19073
0.209415
0.235905
0.273689
0.326417
0.397898
0.488443
0.587372
0.691849
0.178524
0.193829
0.214039
0.242695
0.284273
0.344686
0.432376
0.555239
0.720095
1.00077
0.180025
0.194763
0.213718
0.240296
0.279254
0.33803
0.430849
0.584856
0.866903
1.49683
0.254494
0.262399
0.268483
0.272857
0.276471
0.279728
0.281895
0.282025
0.27846
0.267657
0.225556
0.241233
0.252717
0.262376
0.271464
0.280073
0.287047
0.290789
0.288583
0.275217
0.208097
0.223425
0.236851
0.250342
0.264733
0.279604
0.293108
0.302581
0.303549
0.288283
0.194448
0.208245
0.222382
0.238681
0.257958
0.279626
0.301313
0.319105
0.326013
0.310792
0.184452
0.196932
0.211376
0.229854
0.253568
0.282289
0.3137
0.34291
0.359903
0.349258
0.178354
0.190371
0.205473
0.226099
0.254108
0.29013
0.332821
0.377305
0.410783
0.414049
0.176025
0.188671
0.205232
0.228528
0.261159
0.305052
0.360892
0.425568
0.485072
0.519702
0.176642
0.19073
0.209415
0.235905
0.273689
0.326417
0.397898
0.488443
0.587372
0.691849
0.178524
0.193829
0.214039
0.242695
0.284273
0.344686
0.432376
0.555239
0.720095
1.00077
0.180025
0.194763
0.213718
0.240296
0.279254
0.33803
0.430849
0.584856
0.866903
1.49683
0.254167
0.262873
0.26861
0.272871
0.276475
0.27972
0.28189
0.281991
0.278266
0.267769
0.225117
0.241285
0.252772
0.262408
0.271485
0.280078
0.287054
0.290752
0.28832
0.27537
0.207833
0.223406
0.236879
0.25038
0.26477
0.279629
0.293137
0.302545
0.303207
0.288479
0.194355
0.208259
0.22243
0.238747
0.258029
0.279691
0.301385
0.319087
0.325598
0.311033
0.184424
0.196964
0.211444
0.229948
0.253681
0.28241
0.313838
0.342932
0.359463
0.349516
0.178347
0.190408
0.205553
0.226217
0.254266
0.29033
0.333065
0.377422
0.410421
0.414103
0.176012
0.188693
0.2053
0.228651
0.261357
0.305366
0.361325
0.425894
0.4851
0.519226
0.176598
0.190697
0.209395
0.235906
0.273743
0.32662
0.398267
0.488746
0.588727
0.692186
0.178454
0.193718
0.213857
0.242407
0.283845
0.344128
0.431633
0.554634
0.723343
1.00307
0.179974
0.194721
0.213695
0.240289
0.279237
0.337951
0.430486
0.584416
0.870591
1.48758
-0.150971
-0.130487
-0.112713
-0.0962526
-0.079755
-0.0630376
-0.0461067
-0.0290067
-0.0118042
0.00542502
0.022601
0.0396459
0.0564777
0.0730514
0.0893798
0.105638
0.122298
0.140378
0.163153
0.200711
-0.137598
-0.124138
-0.109694
-0.0945057
-0.0786338
-0.062287
-0.0455996
-0.02867
-0.0115847
0.00557899
0.0227515
0.03987
0.0568966
0.0738215
0.0907146
0.107781
0.12542
0.144262
0.165843
0.193802
-0.134672
-0.122627
-0.108924
-0.0940814
-0.0784151
-0.0621813
-0.0455488
-0.0286379
-0.0115423
0.00566241
0.0229133
0.0401585
0.0573625
0.0745152
0.0916541
0.108898
0.126468
0.144674
0.164107
0.185768
-0.136042
-0.123647
-0.109728
-0.0947254
-0.0789359
-0.0625914
-0.0458552
-0.028844
-0.0116437
0.00567955
0.0230724
0.0404885
0.0578857
0.0752273
0.0924859
0.109651
0.126732
0.143737
0.160746
0.177896
-0.138976
-0.125842
-0.111383
-0.0959654
-0.0798595
-0.0632689
-0.0463366
-0.0291612
-0.0118121
0.00565967
0.0232114
0.0407999
0.0583718
0.0758555
0.0931521
0.110129
0.126615
0.142404
0.157325
0.17134
-0.141711
-0.127881
-0.112891
-0.0970666
-0.0806529
-0.0638298
-0.0467188
-0.0293999
-0.0119264
0.00566326
0.0233336
0.0410402
0.0587163
0.0762573
0.0935063
0.110244
0.126191
0.141045
0.154583
0.166847
-0.142549
-0.128404
-0.113216
-0.097261
-0.0807623
-0.0638817
-0.046729
-0.0293758
-0.0118695
0.00575435
0.0234595
0.0411952
0.0588808
0.0763887
0.093529
0.110044
0.125625
0.139969
0.152915
0.164658
-0.140566
-0.126721
-0.11186
-0.0962049
-0.0799583
-0.0632775
-0.046277
-0.0290367
-0.011613
0.00594849
0.0236015
0.0412837
0.0589024
0.0763184
0.0933338
0.109693
0.125112
0.139349
0.152344
0.164435
-0.135755
-0.122999
-0.109065
-0.0941535
-0.0784785
-0.0622235
-0.0455335
-0.0285171
-0.0112561
0.00618412
0.0237425
0.0413432
0.0588845
0.0762261
0.0931771
0.109502
0.124953
0.139345
0.152688
0.165385
-0.1278
-0.117283
-0.105045
-0.0913787
-0.0765932
-0.0609598
-0.0446976
-0.0279733
-0.0109107
0.00639507
0.0238625
0.0414131
0.0589469
0.0763276
0.0933756
0.109868
0.125564
0.140267
0.153942
0.166894
-0.151308
-0.130361
-0.112697
-0.0962737
-0.079767
-0.0630449
-0.0461119
-0.02901
-0.0118059
0.0054247
0.0226016
0.0396467
0.0564778
0.0730488
0.0893703
0.105618
0.122275
0.140331
0.162819
0.200054
-0.137541
-0.123976
-0.109621
-0.0944701
-0.0786079
-0.0622688
-0.0455871
-0.0286616
-0.0115794
0.00558217
0.0227536
0.0398725
0.0569016
0.0738319
0.0907337
0.107813
0.125481
0.144339
0.165749
0.193535
-0.134729
-0.122601
-0.108899
-0.0940631
-0.0784003
-0.0621708
-0.0455415
-0.0286328
-0.0115388
0.00566478
0.0229149
0.0401595
0.0573632
0.0745154
0.0916526
0.108893
0.126462
0.144657
0.164015
0.185676
-0.136082