/*--------------------------------*- C++ -*----------------------------------*\
| =========                 |                                                 |
| \\      /  F ield         | OpenFOAM: The Open Source CFD Toolbox           |
|  \\    /   O peration     | Version:  2.4.0                                 |
|   \\  /    A nd           | Web:      www.OpenFOAM.org                      |
|    \\/     M anipulation  |                                                 |
\*---------------------------------------------------------------------------*/
FoamFile
{
    version     2.0;
    format      ascii;
    class       surfaceScalarField;
    location    "1.5";
    object      phi;
}
// * * * * * * * * * * * * * * * * * * * * * * * * * * * * * * * * * * * * * //

dimensions      [0 3 -1 0 0 0 0];

internalField   nonuniform List<scalar> 
12720
(
1.14983e-07
-1.14781e-07
2.22156e-10
-5.79696e-07
6.92972e-07
1.70517e-09
-2.05361e-06
1.47143e-06
2.48853e-09
-4.06704e-06
2.01026e-06
3.16697e-09
-6.39761e-06
2.32701e-06
3.56339e-09
-8.86397e-06
2.46264e-06
3.72e-09
-1.1317e-05
2.44928e-06
3.71772e-09
-1.36271e-05
2.30659e-06
3.55792e-09
-1.56812e-05
2.0509e-06
3.21756e-09
1.70929e-06
2.67598e-09
-1.73932e-05
-7.21103e-07
6.0765e-07
-1.32748e-09
-3.19071e-06
3.16219e-06
3.81387e-10
-7.1761e-06
5.4583e-06
-1.47263e-09
-1.22731e-05
7.10956e-06
-2.29037e-09
-1.80624e-05
8.11901e-06
-2.68944e-09
-2.41555e-05
8.55865e-06
-2.94025e-09
-3.02008e-05
8.4975e-06
-2.94273e-09
-3.58807e-05
7.98924e-06
-2.73392e-09
-4.09208e-05
7.09344e-06
-2.39802e-09
5.91076e-06
-2.06841e-09
-4.51202e-05
-1.61505e-06
2.22507e-06
-2.36817e-09
-5.7972e-06
7.3422e-06
2.14959e-09
-1.19665e-05
1.16275e-05
1.00175e-10
-1.95624e-05
1.47056e-05
-8.35245e-11
-2.80417e-05
1.65982e-05
1.20905e-10
-3.68901e-05
1.74069e-05
1.15489e-10
-4.56216e-05
1.72289e-05
1.255e-10
-5.37801e-05
1.61475e-05
1.76739e-10
-6.09613e-05
1.42744e-05
2.34751e-10
1.18152e-05
1.38935e-10
-6.68659e-05
-2.32797e-06
4.55644e-06
-3.40779e-09
-7.92766e-06
1.29389e-05
2.97886e-09
-1.58715e-05
1.95713e-05
3.99024e-12
-2.54335e-05
2.42678e-05
-2.34888e-10
-3.59713e-05
2.71359e-05
1.16711e-10
-4.68862e-05
2.83217e-05
1.60917e-10
-5.75976e-05
2.79401e-05
1.99911e-10
-6.75371e-05
2.60867e-05
2.94864e-10
-7.61758e-05
2.29126e-05
4.7217e-10
1.87402e-05
4.08303e-10
-8.31012e-05
-2.81804e-06
7.3786e-06
-4.11589e-09
-9.4297e-06
1.95471e-05
3.46319e-09
-1.86442e-05
2.87862e-05
-3.74321e-10
-2.96007e-05
3.52251e-05
-8.17003e-10
-4.15832e-05
3.91189e-05
-4.6768e-10
-5.3937e-05
4.06759e-05
-4.36646e-10
-6.60133e-05
4.00168e-05
-3.79538e-10
-7.71443e-05
3.7218e-05
-1.99182e-10
-8.66611e-05
3.2429e-05
3.28621e-10
2.60628e-05
5.7987e-10
-9.39843e-05
-3.0732e-06
1.04562e-05
-4.44703e-09
-1.02328e-05
2.67029e-05
3.80688e-09
-2.01443e-05
3.86982e-05
-4.84523e-10
-3.18683e-05
4.69501e-05
-1.03193e-09
-4.46491e-05
5.19003e-05
-6.90452e-10
-5.78054e-05
5.38329e-05
-6.78851e-10
-7.06482e-05
5.28603e-05
-6.56975e-10
-8.24257e-05
4.8996e-05
-5.14313e-10
-9.23052e-05
4.2308e-05
5.41139e-10
3.31921e-05
1.55386e-09
-9.94361e-05
-3.09178e-06
1.35525e-05
-4.4364e-09
-1.03095e-05
3.39167e-05
3.88398e-09
-2.02994e-05
4.86886e-05
-5.14703e-10
-3.21065e-05
5.87584e-05
-1.12516e-09
-4.49721e-05
6.47668e-05
-8.38353e-10
-5.82208e-05
6.70824e-05
-8.69001e-10
-7.11612e-05
6.58017e-05
-9.63974e-10
-8.29943e-05
6.08302e-05
-1.1651e-09
-9.27244e-05
5.20374e-05
7.03529e-10
3.95367e-05
3.8895e-09
-9.90729e-05
-2.88314e-06
1.64397e-05
-4.08361e-09
-9.6752e-06
4.0705e-05
3.71222e-09
-1.9112e-05
5.81259e-05
-4.69548e-10
-3.02754e-05
6.99229e-05
-1.09672e-09
-4.24287e-05
7.6921e-05
-8.87995e-10
-5.49247e-05
7.95793e-05
-9.07557e-10
-6.711e-05
7.7988e-05
-1.02651e-09
-7.82068e-05
7.19289e-05
-1.83546e-09
-8.71356e-05
6.09642e-05
2.01287e-09
4.4403e-05
1.36123e-08
-9.20156e-05
-2.47558e-06
1.89187e-05
-3.41214e-09
-8.40837e-06
4.66344e-05
3.35482e-09
-1.67024e-05
6.64202e-05
-3.25647e-10
-2.65027e-05
7.97241e-05
-9.28699e-10
-3.70898e-05
8.75089e-05
-8.65412e-10
-4.7827e-05
9.03175e-05
-9.71895e-10
-5.80979e-05
8.82603e-05
-1.34095e-09
-6.71981e-05
8.10337e-05
-4.58403e-09
-7.41723e-05
6.79397e-05
-1.26409e-09
4.67602e-05
3.05586e-08
-7.65601e-05
-1.92541e-06
-2.49245e-09
2.08466e-05
-6.67609e-06
2.8987e-09
5.13822e-05
-1.3365e-05
-4.76217e-11
7.31092e-05
-2.11984e-05
-5.31316e-10
8.7558e-05
-2.9427e-05
-5.95061e-10
9.57381e-05
-3.73244e-05
-9.40253e-10
9.82159e-05
-4.41591e-05
-2.05581e-09
9.5097e-05
-4.90854e-05
-1.17588e-08
8.59718e-05
-5.10354e-05
-2.71199e-08
6.99168e-05
8.46569e-09
-4.87858e-05
4.45022e-05
1.16594e-07
-1.16432e-07
6.05675e-11
-5.80232e-07
6.985e-07
3.06608e-11
-2.05431e-06
1.47655e-06
1.42926e-11
-4.06715e-06
2.016e-06
7.79467e-12
-6.39746e-06
2.33387e-06
5.90891e-12
-8.8638e-06
2.47006e-06
4.86535e-12
-1.13169e-05
2.45679e-06
4.0131e-12
-1.36272e-05
2.31385e-06
3.72063e-12
-1.56815e-05
2.05755e-06
3.49305e-12
1.71483e-06
3.00857e-12
-1.73937e-05
-7.2604e-07
6.08249e-07
3.07698e-11
-3.19594e-06
3.16877e-06
2.06949e-11
-7.18067e-06
5.4598e-06
1.20315e-11
-1.22762e-05
7.10924e-06
7.83386e-12
-1.80638e-05
8.11878e-06
6.51985e-12
-2.41554e-05
8.5587e-06
5.73012e-12
-3.01995e-05
8.49793e-06
4.91617e-12
-3.58786e-05
7.9902e-06
4.49214e-12
-4.09184e-05
7.09494e-06
4.14265e-12
5.91214e-06
3.58107e-12
-4.51178e-05
-1.62027e-06
2.22613e-06
1.63903e-11
-5.79793e-06
7.34855e-06
1.35474e-11
-1.19671e-05
1.16291e-05
1.00051e-11
-1.95633e-05
1.47053e-05
7.70903e-12
-2.80421e-05
1.65977e-05
6.96807e-12
-3.68899e-05
1.74067e-05
6.30315e-12
-4.5621e-05
1.72291e-05
5.48892e-12
-5.37792e-05
1.61486e-05
5.0108e-12
-6.09606e-05
1.42766e-05
4.60029e-12
1.18171e-05
3.97671e-12
-6.68655e-05
-2.33436e-06
4.55707e-06
1.16244e-11
-7.92659e-06
1.29438e-05
1.08502e-11
-1.58703e-05
1.95728e-05
9.17745e-12
-2.54331e-05
2.42678e-05
7.81911e-12
-3.5971e-05
2.71357e-05
7.36775e-12
-4.68859e-05
2.83217e-05
6.7728e-12
-5.75971e-05
2.79406e-05
5.95808e-12
-6.75365e-05
2.60883e-05
5.41186e-12
-7.61758e-05
2.29163e-05
4.9346e-12
1.87438e-05
4.26075e-12
-8.3102e-05
-2.82593e-06
7.37887e-06
9.81174e-12
-9.4284e-06
1.95497e-05
9.58324e-12
-1.86426e-05
2.87867e-05
8.52939e-12
-2.96002e-05
3.52245e-05
7.66933e-12
-4.15829e-05
3.9118e-05
7.41262e-12
-5.39367e-05
4.0675e-05
6.86537e-12
-6.60128e-05
4.00162e-05
6.10057e-12
-7.71434e-05
3.72187e-05
5.57146e-12
-8.66609e-05
3.24341e-05
5.08501e-12
2.60695e-05
4.37517e-12
-9.39861e-05
-3.08185e-06
1.04563e-05
9.33213e-12
-1.02314e-05
2.6703e-05
9.09883e-12
-2.01428e-05
3.86976e-05
8.31722e-12
-3.18681e-05
4.69488e-05
7.74346e-12
-4.46493e-05
5.18985e-05
7.53219e-12
-5.78057e-05
5.38308e-05
6.97752e-12
-7.06483e-05
5.28581e-05
6.24815e-12
-8.24247e-05
4.89946e-05
5.72546e-12
-9.23049e-05
4.23148e-05
5.22637e-12
3.32059e-05
4.44176e-12
-9.94397e-05
-3.10048e-06
1.35523e-05
9.10913e-12
-1.03082e-05
3.39146e-05
8.94242e-12
-2.02981e-05
4.86869e-05
8.31383e-12
-3.21068e-05
5.87564e-05
7.88102e-12
-4.49733e-05
6.47641e-05
7.59488e-12
-5.82225e-05
6.70792e-05
6.99814e-12
-7.11628e-05
6.57974e-05
6.28726e-12
-8.29938e-05
6.08245e-05
5.73728e-12
-9.27229e-05
5.20447e-05
5.23002e-12
3.95673e-05
4.40506e-12
-9.90805e-05
-2.8912e-06
1.64394e-05
8.53598e-12
-9.67405e-06
4.07012e-05
8.53485e-12
-1.91111e-05
5.81235e-05
7.99306e-12
-3.02764e-05
6.99206e-05
7.6414e-12
-4.2431e-05
7.69178e-05
7.29909e-12
-5.49281e-05
7.95753e-05
6.71544e-12
-6.71136e-05
7.79818e-05
6.03459e-12
-7.82061e-05
7.19152e-05
5.41132e-12
-8.71232e-05
6.09638e-05
4.86576e-12
4.44815e-05
4.04367e-12
-9.20238e-05
-2.48237e-06
1.89184e-05
7.80231e-12
-8.40732e-06
4.66295e-05
7.91228e-12
-1.67018e-05
6.64176e-05
7.42271e-12
-2.65044e-05
7.97223e-05
7.15558e-12
-3.70941e-05
8.75066e-05
6.8464e-12
-4.78347e-05
9.03149e-05
6.37869e-12
-5.81111e-05
8.82568e-05
5.73942e-12
-6.72159e-05
8.10154e-05
4.9566e-12
-7.41488e-05
6.78955e-05
4.26558e-12
4.68724e-05
3.41996e-12
-7.65092e-05
-1.93039e-06
7.04695e-12
2.08463e-05
-6.67478e-06
7.22295e-12
5.13767e-05
-1.33639e-05
6.81098e-12
7.31067e-05
-2.11993e-05
6.6346e-12
8.75571e-05
-2.94315e-05
6.42633e-12
9.57382e-05
-3.73357e-05
6.17688e-12
9.82182e-05
-4.41864e-05
5.68636e-12
9.51055e-05
-4.91688e-05
4.81589e-12
8.5986e-05
-5.11678e-05
4.1532e-12
6.98674e-05
3.47923e-12
-4.85694e-05
4.42825e-05
1.16571e-07
-1.16454e-07
-5.65137e-11
-5.80243e-07
6.98491e-07
-1.64874e-09
-2.05431e-06
1.47655e-06
-2.46489e-09
-4.06714e-06
2.016e-06
-3.15425e-09
-6.39745e-06
2.33386e-06
-3.55506e-09
-8.86378e-06
2.47005e-06
-3.71315e-09
-1.13169e-05
2.45679e-06
-3.71176e-09
-1.36272e-05
2.31385e-06
-3.5528e-09
-1.56815e-05
2.05755e-06
-3.21285e-09
1.71483e-06
-2.67172e-09
-1.73936e-05
-7.26045e-07
6.08239e-07
1.38418e-09
-3.19594e-06
3.16876e-06
-3.48085e-10
-7.18066e-06
5.45979e-06
1.4912e-09
-1.22762e-05
7.10923e-06
2.30312e-09
-1.80638e-05
8.11877e-06
2.69909e-09
-2.41554e-05
8.55869e-06
2.94837e-09
-3.01994e-05
8.49792e-06
2.95005e-09
-3.58785e-05
7.99019e-06
2.74047e-09
-4.09183e-05
7.09494e-06
2.40388e-09
5.91213e-06
2.07353e-09
-4.51177e-05
-1.62027e-06
2.22613e-06
2.39366e-09
-5.79791e-06
7.34854e-06
-2.12965e-09
-1.19671e-05
1.16291e-05
-8.55937e-11
-1.95632e-05
1.47052e-05
9.55477e-11
-2.8042e-05
1.65977e-05
-1.10948e-10
-3.68899e-05
1.74067e-05
-1.06612e-10
-4.56209e-05
1.72291e-05
-1.17332e-10
-5.37791e-05
1.61486e-05
-1.69457e-10
-6.09605e-05
1.42765e-05
-2.28308e-10
1.18171e-05
-1.33325e-10
-6.68653e-05
-2.33435e-06
4.55706e-06
3.42414e-09
-7.92657e-06
1.29437e-05
-2.96417e-09
-1.58703e-05
1.95728e-05
8.72289e-12
-2.5433e-05
2.42678e-05
2.46465e-10
-3.59709e-05
2.71357e-05
-1.06568e-10
-4.68858e-05
2.83217e-05
-1.51569e-10
-5.7597e-05
2.79405e-05
-1.91238e-10
-6.75364e-05
2.60882e-05
-2.87133e-10
-7.61756e-05
2.29162e-05
-4.65371e-10
1.87437e-05
-4.02406e-10
-8.31018e-05
-2.82591e-06
7.37886e-06
4.13012e-09
-9.42837e-06
1.95497e-05
-3.44968e-09
-1.86426e-05
2.87867e-05
3.8675e-10
-2.96001e-05
3.52244e-05
8.28753e-10
-4.15828e-05
3.91179e-05
4.78303e-10
-5.39366e-05
4.0675e-05
4.46569e-10
-6.60126e-05
4.00162e-05
3.88716e-10
-7.71433e-05
3.72187e-05
2.07284e-10
-8.66608e-05
3.24341e-05
-3.21583e-10
2.60695e-05
-5.73825e-10
-9.39859e-05
-3.08184e-06
1.04562e-05
4.46059e-09
-1.02314e-05
2.6703e-05
-3.79375e-09
-2.01427e-05
3.86975e-05
4.96765e-10
-3.1868e-05
4.69487e-05
1.04363e-09
-4.46492e-05
5.18984e-05
7.01185e-10
-5.78056e-05
5.38308e-05
6.88889e-10
-7.06481e-05
5.2858e-05
6.66193e-10
-8.24246e-05
4.89946e-05
5.22377e-10
-9.23047e-05
4.23148e-05
-5.3428e-10
3.32058e-05
-1.54805e-09
-9.94396e-05
-3.10047e-06
1.35523e-05
4.44945e-09
-1.03082e-05
3.39145e-05
-3.8713e-09
-2.0298e-05
4.86869e-05
5.26667e-10
-3.21068e-05
5.87563e-05
1.13662e-09
-4.49732e-05
6.4764e-05
8.48923e-10
-5.82224e-05
6.70791e-05
8.78847e-10
-7.11627e-05
6.57973e-05
9.72951e-10
-8.29937e-05
6.08244e-05
1.1729e-09
-9.27228e-05
5.20446e-05
-6.97052e-10
3.95673e-05
-3.88413e-09
-9.90804e-05
-2.89119e-06
1.64394e-05
4.09607e-09
-9.67403e-06
4.07011e-05
-3.70006e-09
-1.91111e-05
5.81234e-05
4.81144e-10
-3.02763e-05
6.99205e-05
1.10776e-09
-4.2431e-05
7.69177e-05
8.98214e-10
-5.4928e-05
7.95752e-05
9.17035e-10
-6.71135e-05
7.79818e-05
1.03513e-09
-7.82061e-05
7.19151e-05
1.84296e-09
-8.71232e-05
6.09638e-05
-2.00669e-09
4.44815e-05
-1.36073e-08
-9.20238e-05
-2.48236e-06
1.89183e-05
3.42354e-09
-8.4073e-06
4.66294e-05
-3.34348e-09
-1.67017e-05
6.64176e-05
3.36541e-10
-2.65044e-05
7.97222e-05
9.38989e-10
-3.70941e-05
8.75066e-05
8.74956e-10
-4.78347e-05
9.03149e-05
9.80737e-10
-5.8111e-05
8.82568e-05
1.34903e-09
-6.72158e-05
8.10153e-05
4.59124e-09
-7.41488e-05
6.78955e-05
1.27024e-09
4.68724e-05
-3.05535e-08
-7.65092e-05
-1.93039e-06
2.50255e-09
2.08462e-05
-6.67477e-06
-2.88844e-09
5.13767e-05
-1.33639e-05
5.75452e-11
7.31066e-05
-2.11993e-05
5.40655e-10
8.7557e-05
-2.94314e-05
6.03808e-10
9.57382e-05
-3.73357e-05
9.48347e-10
9.82181e-05
-4.41864e-05
2.06326e-09
9.51055e-05
-4.91688e-05
1.17658e-08
8.5986e-05
-5.11678e-05
2.71263e-08
6.98674e-05
-8.46014e-09
-4.85694e-05
4.42825e-05
1.14853e-07
-1.1491e-07
-5.79738e-07
6.92937e-07
-2.05362e-06
1.47142e-06
-4.06703e-06
2.01026e-06
-6.39759e-06
2.327e-06
-8.86393e-06
2.46263e-06
-1.13169e-05
2.44928e-06
-1.36271e-05
2.30659e-06
-1.56812e-05
2.0509e-06
1.70928e-06
-1.73931e-05
-7.21128e-07
6.07608e-07
-3.19071e-06
3.16217e-06
-7.17607e-06
5.45827e-06
-1.2273e-05
7.10953e-06
-1.80623e-05
8.11899e-06
-2.41554e-05
8.55863e-06
-3.02006e-05
8.49748e-06
-3.58805e-05
7.98922e-06
-4.09206e-05
7.09342e-06
5.91075e-06
-4.512e-05
-1.61505e-06
2.22505e-06
-5.79717e-06
7.34216e-06
-1.19664e-05
1.16274e-05
-1.95623e-05
1.47056e-05
-2.80416e-05
1.65981e-05
-3.68899e-05
1.74069e-05
-4.56214e-05
1.72288e-05
-5.37799e-05
1.61475e-05
-6.0961e-05
1.42744e-05
1.18152e-05
-6.68656e-05
-2.32795e-06
4.55642e-06
-7.9276e-06
1.29389e-05
-1.58714e-05
1.95712e-05
-2.54333e-05
2.42677e-05
-3.59711e-05
2.71358e-05
-4.6886e-05
2.83216e-05
-5.75974e-05
2.794e-05
-6.75368e-05
2.60867e-05
-7.61755e-05
2.29126e-05
1.87401e-05
-8.31008e-05
-2.81802e-06
7.37857e-06
-9.42964e-06
1.9547e-05
-1.86441e-05
2.87861e-05
-2.96005e-05
3.52249e-05
-4.1583e-05
3.91187e-05
-5.39367e-05
4.06758e-05
-6.6013e-05
4.00167e-05
-7.7144e-05
3.72179e-05
-8.66607e-05
3.24289e-05
2.60627e-05
-9.39839e-05
-3.07317e-06
1.04562e-05
-1.02327e-05
2.67027e-05
-2.01442e-05
3.86981e-05
-3.18682e-05
4.695e-05
-4.46489e-05
5.19002e-05
-5.78051e-05
5.38327e-05
-7.06479e-05
5.28602e-05
-8.24254e-05
4.89959e-05
-9.23049e-05
4.23079e-05
3.31921e-05
-9.94357e-05
-3.09175e-06
1.35524e-05
-1.03094e-05
3.39165e-05
-2.02993e-05
4.86885e-05
-3.21064e-05
5.87582e-05
-4.49719e-05
6.47666e-05
-5.82206e-05
6.70823e-05
-7.1161e-05
6.58015e-05
-8.29941e-05
6.08301e-05
-9.27241e-05
5.20373e-05
3.95367e-05
-9.90726e-05
-2.88311e-06
1.64396e-05
-9.67514e-06
4.07048e-05
-1.91119e-05
5.81257e-05
-3.02753e-05
6.99226e-05
-4.24285e-05
7.69208e-05
-5.49245e-05
7.95792e-05
-6.71098e-05
7.79879e-05
-7.82066e-05
7.19288e-05
-8.71355e-05
6.09641e-05
4.4403e-05
-9.20154e-05
-2.47555e-06
1.89186e-05
-8.40832e-06
4.66343e-05
-1.67023e-05
6.642e-05
-2.65026e-05
7.97239e-05
-3.70897e-05
8.75087e-05
-4.78269e-05
9.03173e-05
-5.80978e-05
8.82602e-05
-6.7198e-05
8.10336e-05
-7.41722e-05
6.79396e-05
4.67602e-05
-7.656e-05
-1.9254e-06
2.08465e-05
-6.67606e-06
5.1382e-05
-1.33649e-05
7.3109e-05
-2.11983e-05
8.75578e-05
-2.94269e-05
9.57379e-05
-3.73244e-05
9.82157e-05
-4.4159e-05
9.50969e-05
-4.90854e-05
8.59717e-05
-5.10354e-05
6.99168e-05
-4.87858e-05
4.45022e-05
-1.87249e-05
1.32966e-06
1.99873e-09
-1.96975e-05
9.71216e-07
1.38565e-09
-2.03714e-05
6.73002e-07
9.06868e-10
-2.08202e-05
4.4824e-07
5.63733e-10
-2.11133e-05
2.9277e-07
3.38422e-10
-2.1308e-05
1.9452e-07
2.03518e-10
-2.14484e-05
1.40263e-07
1.33169e-10
-2.15675e-05
1.18947e-07
1.08067e-10
-2.169e-05
1.2242e-07
1.15237e-10
-2.18348e-05
1.44676e-07
1.46665e-10
-2.20154e-05
1.80378e-07
1.96941e-10
-2.22387e-05
2.23013e-07
2.60833e-10
-2.25019e-05
2.62854e-07
3.30245e-10
-2.27872e-05
2.84982e-07
3.91082e-10
-2.30555e-05
2.67862e-07
4.22056e-10
-2.32397e-05
1.83777e-07
3.94983e-10
-2.32374e-05
-2.56957e-09
2.43171e-10
-2.29269e-05
-3.10389e-07
-7.97263e-11
-2.21685e-05
-7.57755e-07
-6.46248e-10
-1.31854e-06
-1.47733e-09
-2.08485e-05
-4.83968e-05
4.60805e-06
-1.82762e-09
-5.08081e-05
3.38402e-06
-1.52053e-09
-5.25001e-05
2.36622e-06
-1.19488e-09
-5.3647e-05
1.59601e-06
-9.04253e-10
-5.44118e-05
1.05823e-06
-6.67181e-10
-5.49292e-05
7.12442e-07
-4.92295e-10
-5.53029e-05
5.14374e-07
-3.78449e-10
-5.561e-05
4.26331e-07
-3.17691e-10
-5.59067e-05
4.19405e-07
-2.99536e-10
-5.62328e-05
4.71151e-07
-3.12181e-10
-5.66131e-05
5.61e-07
-3.42176e-10
-5.70543e-05
6.64614e-07
-3.72206e-10
-5.7539e-05
7.47848e-07
-3.78675e-10
-5.80148e-05
7.61149e-07
-3.29756e-10
-5.83827e-05
6.35968e-07
-1.87924e-10
-5.8485e-05
2.86024e-07
7.74569e-11
-5.81057e-05
-3.82399e-07
5.0789e-10
-5.69721e-05
-1.44506e-06
1.08155e-09
-5.48067e-05
-2.92498e-06
1.7781e-09
-4.74075e-06
2.42407e-09
-5.13869e-05
-7.13824e-05
9.12485e-06
-2.34207e-10
-7.4634e-05
6.63601e-06
-3.97454e-10
-7.68698e-05
4.60245e-06
-4.29387e-10
-7.836e-05
3.08658e-06
-4.04149e-10
-7.93408e-05
2.0394e-06
-3.42521e-10
-7.9997e-05
1.36891e-06
-2.71376e-10
-8.04644e-05
9.81955e-07
-2.07814e-10
-8.08399e-05
8.01986e-07
-1.57908e-10
-8.11916e-05
7.7123e-07
-1.22076e-10
-8.15655e-05
8.45117e-07
-9.7425e-11
-8.19876e-05
9.83212e-07
-7.95251e-11
-8.24616e-05
1.13867e-06
-6.29339e-11
-8.29609e-05
1.24721e-06
-4.11268e-11
-8.34166e-05
1.21683e-06
-5.38239e-12
-8.37015e-05
9.20806e-07
5.71405e-11
-8.36144e-05
1.98804e-07
1.49433e-10
-8.28735e-05
-1.12358e-06
2.41313e-10
-8.11221e-05
-3.19678e-06
3.70061e-10
-7.79763e-05
-6.07128e-06
5.02891e-10
-9.60209e-06
4.24872e-10
-7.31154e-05
-8.81703e-05
1.41944e-05
-3.5306e-10
-9.16309e-05
1.00972e-05
-5.6766e-10
-9.38855e-05
6.85761e-06
-5.57917e-10
-9.53142e-05
4.51572e-06
-4.9352e-10
-9.6213e-05
2.9386e-06
-3.91439e-10
-9.6791e-05
1.94721e-06
-2.88821e-10
-9.71886e-05
1.37978e-06
-2.04539e-10
-9.74986e-05
1.11209e-06
-1.41168e-10
-9.77821e-05
1.0548e-06
-9.63839e-11
-9.80785e-05
1.1416e-06
-6.60573e-11
-9.84095e-05
1.3143e-06
-4.59244e-11
-9.87777e-05
1.50687e-06
-3.21141e-11
-9.91595e-05
1.62909e-06
-2.09471e-11
-9.94932e-05
1.55049e-06
-6.08537e-12
-9.96602e-05
1.08776e-06
3.5453e-11
-9.94598e-05
-1.71786e-09
1.43525e-10
-9.85946e-05
-1.98895e-06
1.64332e-10
-9.66502e-05
-5.14148e-06
2.76486e-10
-9.31315e-05
-9.59049e-06
5.01756e-10
-1.51694e-05
4.3717e-10
-8.75645e-05
-9.89031e-05
1.91142e-05
-9.64193e-10
-0.000101906
1.31012e-05
-1.07035e-09
-0.000103637
8.58916e-06
-8.54706e-10
-0.000104603
5.48225e-06
-6.64798e-10
-0.000105138
3.47442e-06
-4.66087e-10
-0.000105443
2.25234e-06
-3.04854e-10
-0.000105631
1.56802e-06
-1.94024e-10
-0.000105766
1.24754e-06
-1.22846e-10
-0.000105886
1.17448e-06
-8.0215e-11
-0.000106012
1.26779e-06
-5.73352e-11
-0.000106158
1.46003e-06
-4.80596e-11
-0.000106327
1.67657e-06
-4.83087e-11
-0.000106513
1.81446e-06
-5.47265e-11
-0.000106682
1.72037e-06
-6.18102e-11
-0.000106763
1.1687e-06
-5.92937e-11
-0.00010661
-1.55368e-07
-4.70213e-11
-0.000105953
-2.64589e-06
8.24013e-11
-0.000104359
-6.73507e-06
2.80847e-10
-0.000101202
-1.27483e-05
8.65896e-10
-2.06293e-05
1.20086e-09
-9.57438e-05
-0.000103421
2.31011e-05
-2.09546e-09
-0.00010524
1.49216e-05
-1.75292e-09
-0.000105912
9.26266e-06
-1.07478e-09
-0.000106068
5.63926e-06
-7.16599e-10
-0.000106029
3.43583e-06
-4.20054e-10
-0.000105935
2.1582e-06
-2.20233e-10
-0.000105835
1.46846e-06
-1.08718e-10
-0.000105742
1.15426e-06
-5.00229e-11
-0.000105653
1.086e-06
-2.16123e-11
-0.000105567
1.1809e-06
-1.08399e-11
-0.000105482
1.37516e-06
-1.13933e-11
-0.000105405
1.60041e-06
-2.10673e-11
-0.000105351
1.7604e-06
-3.99183e-11
-0.000105335
1.70452e-06
-6.67267e-11
-0.000105363
1.19583e-06
-8.08847e-11
-0.00010539
-1.27412e-07
-4.03407e-11
-0.000105262
-2.77394e-06
-3.22114e-13
-0.000104594
-7.40382e-06
1.75669e-10
-0.000102635
-1.47082e-05
1.46517e-09
-2.50482e-05
3.00755e-09
-9.82195e-05
-0.000101147
2.51812e-05
-5.61955e-09
-0.000100987
1.47649e-05
-3.63465e-09
-0.000100146
8.42342e-06
-1.64205e-09
-9.92869e-05
4.7808e-06
-8.53992e-10
-9.86035e-05
2.75285e-06
-3.61403e-10
-9.81021e-05
1.65686e-06
-1.098e-10
-9.77306e-05
1.09696e-06
-1.20459e-11
-9.74313e-05
8.5502e-07
1.98415e-11
-9.71576e-05
8.12235e-07
2.39172e-11
-9.68774e-05
9.00691e-07
1.54023e-11
-9.65755e-05
1.07325e-06
-6.41983e-13
-9.62567e-05
1.28169e-06
-2.40135e-11
-9.59521e-05
1.45581e-06
-5.62631e-11
-9.57252e-05
1.4777e-06
-9.94112e-11
-9.56733e-05
1.14411e-06
-1.2617e-10
-9.59065e-05
1.05764e-07
-4.00923e-11
-9.64751e-05
-2.20545e-06
1.13758e-10
-9.71978e-05
-6.68153e-06
4.72536e-10
-9.73301e-05
-1.45794e-05
3.48725e-09
-2.72894e-05
8.24903e-09
-9.50971e-05
-9.07864e-05
2.39616e-05
-9.58527e-09
-8.78828e-05
1.18652e-05
-3.79572e-09
-8.53571e-05
5.89841e-06
-7.33743e-10
-8.35779e-05
3.00193e-06
-2.8976e-10
-8.24144e-05
1.58933e-06
3.26134e-11
-8.16603e-05
9.02621e-07
1.47917e-10
-8.11442e-05
5.80703e-07
1.38883e-10
-8.0744e-05
4.54635e-07
1.13241e-10
-8.03769e-05
4.45083e-07
9.32817e-11
-7.99893e-05
5.12964e-07
7.94085e-11
-7.95511e-05
6.35056e-07
6.79927e-11
-7.90588e-05
7.89322e-07
5.3223e-11
-7.85449e-05
9.41847e-07
2.62875e-11
-7.80962e-05
1.0291e-06
-3.65911e-11
-7.78787e-05
9.2666e-07
-1.3403e-10
-7.81586e-05
3.85797e-07
-8.05794e-11
-7.92685e-05
-1.09566e-06
7.83363e-11
-8.14828e-05
-4.46677e-06
-4.23741e-10
-8.44793e-05
-1.15861e-05
3.11827e-09
-2.58148e-05
1.32609e-08
-8.59671e-05
-6.95635e-05
1.6977e-05
-1.20393e-08
-6.37211e-05
6.01751e-06
5.28528e-09
-6.0148e-05
2.31952e-06
5.82285e-09
-5.81127e-05
9.64187e-07
2.42662e-09
-5.69607e-05
4.3608e-07
1.23217e-09
-5.62835e-05
2.24771e-07
7.34216e-10
-5.58453e-05
1.42011e-07
4.46456e-10
-5.55089e-05
1.17861e-07
3.26443e-10
-5.51906e-05
1.26533e-07
3.07557e-10
-5.48365e-05
1.58461e-07
3.4472e-10
-5.44116e-05
2.09825e-07
4.15124e-10
-5.39006e-05
2.77836e-07
4.99493e-10
-5.33165e-05
3.57151e-07
5.64137e-10
-5.27222e-05
4.34258e-07
5.21323e-10
-5.22706e-05
4.74832e-07
2.52632e-10
-5.22813e-05
3.96716e-07
-1.93247e-10
-5.32864e-05
-8.90502e-08
-1.59819e-09
-5.62217e-05
-1.52427e-06
-7.13868e-09
-6.2086e-05
-5.71236e-06
-9.44974e-09
-1.80088e-05
1.46716e-08
-6.99067e-05
-3.1743e-05
-6.57959e-08
-2.57148e-05
-1.07112e-08
-2.33946e-05
-6.48356e-10
-2.24287e-05
-1.72992e-09
-2.19915e-05
-1.11201e-09
-2.17663e-05
-5.05261e-10
-2.1624e-05
-2.76581e-10
-2.15059e-05
-1.89604e-10
-2.13792e-05
-1.6286e-10
-2.12206e-05
-1.76467e-10
-2.10105e-05
-2.18202e-10
-2.07324e-05
-2.76331e-10
-2.03749e-05
-3.34121e-10
-1.99403e-05
-3.61434e-10
-1.94652e-05
-2.45784e-10
-1.90689e-05
3.17748e-10
-1.91587e-05
8.05654e-10
-2.06807e-05
-2.27356e-09
-2.6398e-05
4.98467e-09
8.15499e-08
-4.44884e-05
-1.87253e-05
1.33363e-06
2.45894e-12
-1.96978e-05
9.73878e-07
2.02233e-12
-2.03716e-05
6.74703e-07
1.67706e-12
-2.08203e-05
4.49268e-07
1.35558e-12
-2.11133e-05
2.93371e-07
9.87069e-13
-2.1308e-05
1.94878e-07
5.49796e-13
-2.14484e-05
1.40509e-07
1.08147e-13
-2.15674e-05
1.19169e-07
-2.45606e-13
-2.169e-05
1.22676e-07
-5.17201e-13
-2.18349e-05
1.45009e-07
-7.394e-13
-2.20155e-05
1.80819e-07
-9.20313e-13
-2.22388e-05
2.23575e-07
-1.06894e-12
-2.2502e-05
2.63533e-07
-1.13149e-12
-2.27874e-05
2.85742e-07
-1.09121e-12
-2.30555e-05
2.68617e-07
-9.7219e-13
-2.32395e-05
1.84329e-07
-7.49293e-13
-2.32371e-05
-2.12355e-09
-3.75293e-13
-2.29264e-05
-3.1076e-07
1.33343e-13
-2.2168e-05
-7.5905e-07
6.69472e-13
-1.32137e-06
1.27033e-12
-2.08481e-05
-4.83941e-05
4.60819e-06
2.95728e-12
-5.08054e-05
3.38362e-06
2.43052e-12
-5.24977e-05
2.36577e-06
1.99035e-12
-5.36449e-05
1.59562e-06
1.594e-12
-5.44102e-05
1.05795e-06
1.18817e-12
-5.49281e-05
7.12263e-07
7.45187e-13
-5.53022e-05
5.14265e-07
3.14471e-13
-5.56096e-05
4.26256e-07
-4.03062e-14
-5.59066e-05
4.1933e-07
-3.16548e-13
-5.62329e-05
4.71044e-07
-5.71634e-13
-5.66133e-05
5.60828e-07
-8.41638e-13
-5.70544e-05
6.64346e-07
-1.05593e-12
-5.75387e-05
7.47464e-07
-1.15468e-12
-5.80139e-05
7.6066e-07
-1.13883e-12
-5.8381e-05
6.35452e-07
-1.01908e-12
-5.84822e-05
2.85658e-07
-8.01244e-13
-5.81015e-05
-3.82335e-07
-4.79259e-13
-5.69669e-05
-1.4443e-06
-6.87042e-14
-5.4801e-05
-2.92318e-06
3.68968e-13
-4.73852e-06
8.2784e-13
-5.13814e-05
-7.13814e-05
9.12386e-06
3.29617e-12
-7.46323e-05
6.63418e-06
2.69474e-12
-7.68679e-05
4.60089e-06
2.13701e-12
-7.83581e-05
3.08545e-06
1.68518e-12
-7.93392e-05
2.03868e-06
1.30377e-12
-7.99957e-05
1.3685e-06
8.93234e-13
-8.04634e-05
9.81746e-07
4.98861e-13
-8.08392e-05
8.01875e-07
1.40254e-13
-8.11911e-05
7.71138e-07
-1.21832e-13
-8.15651e-05
8.44978e-07
-3.71594e-13
-8.19873e-05
9.82965e-07
-6.5687e-13
-8.24613e-05
1.13826e-06
-9.25748e-13
-8.29605e-05
1.24659e-06
-1.08088e-12
-8.34158e-05
1.216e-06
-1.08342e-12
-8.37002e-05
9.19879e-07
-9.84457e-13
-8.36125e-05
1.98157e-07
-8.56994e-13
-8.28708e-05
-1.12386e-06
-6.73332e-13
-8.11188e-05
-3.19584e-06
-4.24124e-13
-7.79732e-05
-6.06836e-06
-1.31878e-13
-9.59839e-06
1.51067e-13
-7.31129e-05
-8.81697e-05
1.41912e-05
3.53947e-12
-9.1629e-05
1.0093e-05
2.90677e-12
-9.38832e-05
6.85452e-06
2.25738e-12
-9.53119e-05
4.51368e-06
1.73687e-12
-9.62111e-05
2.9374e-06
1.3406e-12
-9.67894e-05
1.9466e-06
9.34174e-13
-9.71874e-05
1.37951e-06
5.43542e-13
-9.74977e-05
1.11198e-06
1.63107e-13
-9.77814e-05
1.05473e-06
-1.20125e-13
-9.80779e-05
1.14149e-06
-3.44275e-13
-9.84091e-05
1.31407e-06
-5.97791e-13
-9.87773e-05
1.50645e-06
-8.54769e-13
-9.91591e-05
1.62839e-06
-1.06907e-12
-9.94926e-05
1.54948e-06
-1.21551e-12
-9.96591e-05
1.08646e-06
-1.32665e-12
-9.94586e-05
-2.20485e-09
-1.4968e-12
-9.85926e-05
-1.98973e-06
-1.43398e-12
-9.66476e-05
-5.14055e-06
-1.31035e-12
-9.31293e-05
-9.58614e-06
-1.08486e-12
-1.51637e-05
-8.0733e-13
-8.75636e-05
-9.89018e-05
1.9106e-05
3.61416e-12
-0.000101903
1.30929e-05
2.99851e-12
-0.000103633
8.5842e-06
2.34371e-12
-0.0001046
5.47937e-06
1.76906e-12
-0.000105136
3.47292e-06
1.35309e-12
-0.000105441
2.25168e-06
9.60781e-13
-0.00010563
1.56778e-06
5.34623e-13
-0.000105765
1.24748e-06
1.13796e-13
-0.000105885
1.17446e-06
-2.68601e-13
-0.000106011
1.26772e-06
-5.23505e-13
-0.000106157
1.45982e-06
-7.22253e-13
-0.000106327
1.67614e-06
-9.07653e-13
-0.000106512
1.81371e-06
-1.09426e-12
-0.000106682
1.71921e-06
-1.31569e-12
-0.000106763
1.16719e-06
-1.52478e-12
-0.000106608
-1.56594e-07
-1.63316e-12
-0.000105951
-2.64722e-06
-1.81507e-12
-0.000104357
-6.73448e-06
-1.76961e-12
-0.0001012
-1.27417e-05
-1.52862e-12
-2.06188e-05
-1.17572e-12
-9.57439e-05
-0.000103418
2.30819e-05
3.54807e-12
-0.000105234
1.49074e-05
2.90684e-12
-0.000105907
9.25638e-06
2.32229e-12
-0.000106065
5.63635e-06
1.78098e-12
-0.000106027
3.43465e-06
1.39738e-12
-0.000105933
2.15787e-06
1.09533e-12
-0.000105834
1.46846e-06
7.00124e-13
-0.000105741
1.15435e-06
1.9123e-13
-0.000105653
1.08608e-06
-2.27937e-13
-0.000105566
1.1809e-06
-5.31478e-13
-0.000105481
1.37502e-06
-7.44295e-13
-0.000105405
1.60004e-06
-9.45618e-13
-0.000105351
1.75969e-06
-1.20374e-12
-0.000105335
1.70332e-06
-1.5411e-12
-0.000105362
1.19407e-06
-1.88529e-12
-0.00010539
-1.29016e-07
-2.15402e-12
-0.000105261
-2.77638e-06
-2.34105e-12
-0.00010459
-7.40455e-06
-2.35622e-12
-0.000102632
-1.46982e-05
-2.13231e-12
-2.50265e-05
-1.8214e-12
-9.82217e-05
-0.00010114
2.51359e-05
3.35284e-12
-0.000100977
1.47409e-05
2.71722e-12
-0.00010014
8.41719e-06
2.16438e-12
-9.92834e-05
4.77914e-06
1.63233e-12
-9.86017e-05
2.75265e-06
1.27314e-12
-9.81011e-05
1.65713e-06
1.04794e-12
-9.77299e-05
1.09726e-06
7.46197e-13
-9.74308e-05
8.55238e-07
3.05262e-13
-9.7157e-05
8.12358e-07
-1.04068e-13
-9.68768e-05
9.00707e-07
-4.28038e-13
-9.65749e-05
1.07313e-06
-6.92733e-13
-9.62563e-05
1.28135e-06
-9.75219e-13
-9.59518e-05
1.45514e-06
-1.35121e-12
-9.5725e-05
1.47648e-06
-1.82411e-12
-9.56732e-05
1.14211e-06
-2.29645e-12
-9.5906e-05
1.03725e-07
-2.67718e-12
-9.64732e-05
-2.20906e-06
-3.02097e-12
-9.71933e-05
-6.684e-06
-3.26988e-12
-9.73255e-05
-1.45625e-05
-3.33395e-12
-2.72381e-05
-3.42221e-12
-9.51056e-05
-9.07728e-05
2.38753e-05
3.0203e-12
-8.78731e-05
1.18374e-05
2.5014e-12
-8.53538e-05
5.89713e-06
2.03292e-12
-8.35775e-05
3.00261e-06
1.55731e-12
-8.24148e-05
1.58992e-06
1.16046e-12
-8.16606e-05
9.03128e-07
8.28652e-13
-8.11442e-05
5.81021e-07
4.86852e-13
-8.07437e-05
4.54806e-07
1.27339e-13
-8.03764e-05
4.45165e-07
-1.87997e-13
-7.99886e-05
5.12981e-07
-4.50442e-13
-7.95504e-05
6.35004e-07
-7.08614e-13
-7.90582e-05
7.8917e-07
-1.04626e-12
-7.85445e-05
9.41518e-07
-1.48969e-12
-7.80965e-05
1.02843e-06
-1.99463e-12
-7.78799e-05
9.25357e-07
-2.47086e-12
-7.81601e-05
3.83878e-07
-2.9321e-12
-7.92713e-05
-1.0978e-06
-3.49369e-12
-8.14845e-05
-4.47125e-06
-4.1281e-12
-8.44762e-05
-1.15676e-05
-4.70799e-12
-2.57198e-05
-5.20333e-12
-8.59813e-05
-6.95468e-05
1.69008e-05
2.48783e-12
-6.37285e-05
6.02437e-06
2.21713e-12
-6.01562e-05
2.3306e-06
1.96351e-12
-5.81186e-05
9.6743e-07
1.4818e-12
-5.6964e-05
4.3663e-07
1.09161e-12
-5.62851e-05
2.24911e-07
8.21672e-13
-5.58457e-05
1.42128e-07
4.63587e-13
-5.55086e-05
1.1803e-07
8.42424e-14
-5.519e-05
1.26795e-07
-2.35302e-13
-5.48355e-05
1.5886e-07
-4.9784e-13
-5.44105e-05
2.10414e-07
-7.98275e-13
-5.38995e-05
2.78684e-07
-1.20017e-12
-5.33158e-05
3.58341e-07
-1.66081e-12
-5.27227e-05
4.35898e-07
-2.10006e-12
-5.2274e-05
4.7689e-07
-2.48295e-12
-5.22872e-05
3.96857e-07
-2.96181e-12
-5.32998e-05
-8.67374e-08
-3.76661e-12
-5.62454e-05
-1.5328e-06
-4.83763e-12
-6.20989e-05
-5.72354e-06
-5.95665e-12
-1.79467e-05
-6.71992e-12
-6.98573e-05
-3.17344e-05
2.16017e-12
-2.57207e-05
1.53757e-12
-2.33907e-05
1.25027e-12
-2.2425e-05
1.23184e-12
-2.19895e-05
1.04411e-12
-2.17651e-05
7.68832e-13
-2.16233e-05
4.24902e-13
-2.15054e-05
9.02986e-14
-2.13788e-05
-1.81262e-13
-2.12201e-05
-4.48642e-13
-2.10099e-05
-8.0134e-13
-2.07315e-05
-1.23515e-12
-2.03735e-05
-1.62767e-12
-1.9938e-05
-1.9004e-12
-1.94613e-05
-2.24012e-12
-1.90641e-05
-2.99762e-12
-1.91501e-05
-4.24072e-12
-2.06851e-05
-5.57013e-12
-2.64037e-05
-7.14106e-12
-9.19219e-12
-4.42688e-05
-1.87253e-05
1.33363e-06
-1.99517e-09
-1.96978e-05
9.73877e-07
-1.38281e-09
-2.03716e-05
6.74703e-07
-9.04601e-10
-2.08203e-05
4.49268e-07
-5.61952e-10
-2.11133e-05
2.9337e-07
-3.37128e-10
-2.1308e-05
1.94878e-07
-2.0274e-10
-2.14483e-05
1.40509e-07
-1.32883e-10
-2.15674e-05
1.19168e-07
-1.08219e-10
-2.169e-05
1.22675e-07
-1.1585e-10
-2.18348e-05
1.45008e-07
-1.47705e-10
-2.20154e-05
1.80817e-07
-1.98381e-10
-2.22388e-05
2.23573e-07
-2.62534e-10
-2.2502e-05
2.63532e-07
-3.32027e-10
-2.27873e-05
2.8574e-07
-3.9278e-10
-2.30555e-05
2.68616e-07
-4.23479e-10
-2.32394e-05
1.84329e-07
-3.95953e-10
-2.32371e-05
-2.12309e-09
-2.43531e-10
-2.29264e-05
-3.10758e-07
8.01645e-11
-2.2168e-05
-7.59046e-07
6.4755e-10
-1.32137e-06
1.4795e-09
-2.08481e-05
-4.83941e-05
4.60819e-06
1.8319e-09
-5.08053e-05
3.38362e-06
1.52402e-09
-5.24976e-05
2.36576e-06
1.1977e-09
-5.36448e-05
1.59562e-06
9.06455e-10
-5.44101e-05
1.05795e-06
6.68818e-10
-5.4928e-05
7.12262e-07
4.93371e-10
-5.53021e-05
5.14263e-07
3.78957e-10
-5.56095e-05
4.26254e-07
3.17674e-10
-5.59065e-05