/*--------------------------------*- C++ -*----------------------------------*\
| =========                 |                                                 |
| \\      /  F ield         | OpenFOAM: The Open Source CFD Toolbox           |
|  \\    /   O peration     | Version:  2.4.0                                 |
|   \\  /    A nd           | Web:      www.OpenFOAM.org                      |
|    \\/     M anipulation  |                                                 |
\*---------------------------------------------------------------------------*/
FoamFile
{
    version     2.0;
    format      ascii;
    class       volVectorField;
    location    "1.5";
    object      U;
}
// * * * * * * * * * * * * * * * * * * * * * * * * * * * * * * * * * * * * * //

dimensions      [0 1 -1 0 0 0 0];

internalField   nonuniform List<vector> 
4800
(
(0.000270787 -0.000273749 4.05942e-07)
(-5.92148e-05 0.000178875 0.000205657)
(-0.00188246 0.000657355 0.000409053)
(-0.00475085 0.000975103 0.000549385)
(-0.0082924 0.00115252 0.00058565)
(-0.0121882 0.00122642 0.00049915)
(-0.0161745 0.00122258 0.000284568)
(-0.0200294 0.00115376 -5.68543e-05)
(-0.0235568 0.00102694 -0.000518452)
(-0.0265914 0.000853731 -0.00108692)
(-0.000202139 5.99314e-05 -0.000203946)
(-0.00244435 0.00236602 5.01015e-06)
(-0.00777302 0.00456554 0.000153821)
(-0.0152187 0.00613033 0.000230545)
(-0.0240809 0.00707236 0.000218517)
(-0.0337292 0.00748447 0.000102845)
(-0.0435707 0.00744817 -0.000122337)
(-0.0530674 0.00701894 -0.000458453)
(-0.0617374 0.00624841 -0.00090312)
(-0.0691841 0.00522084 -0.00144884)
(-0.000756263 0.00199596 -0.000411173)
(-0.00496447 0.00779658 -0.00013769)
(-0.0135034 0.0128701 1.15653e-05)
(-0.0247737 0.0165415 6.82537e-05)
(-0.0378403 0.0188037 4.00883e-05)
(-0.0519001 0.0197898 -8.15518e-05)
(-0.0661531 0.0196345 -0.000300449)
(-0.0798389 0.0184502 -0.000619365)
(-0.0922538 0.0163722 -0.00103992)
(-0.102804 0.0136334 -0.00156018)
(-0.0011863 0.00522455 -0.000540586)
(-0.00701091 0.0157713 -0.000188795)
(-0.0182037 0.024375 -1.80964e-05)
(-0.0325341 0.0305312 4.01301e-05)
(-0.0488574 0.034314 1.3378e-05)
(-0.0662551 0.0359137 -0.000101658)
(-0.0837897 0.0355031 -0.000307265)
(-0.100535 0.0332342 -0.000608507)
(-0.115593 0.0293249 -0.00101255)
(-0.128156 0.0241937 -0.00152516)
(-0.00147194 0.00942123 -0.000524809)
(-0.00843502 0.0256962 -0.000105726)
(-0.0215352 0.0383066 8.74119e-05)
(-0.0380502 0.0471739 0.000156246)
(-0.0566707 0.0525675 0.000142299)
(-0.0764013 0.0547647 4.53047e-05)
(-0.0962144 0.0539589 -0.000137814)
(-0.115056 0.0503027 -0.000417001)
(-0.131839 0.0440582 -0.000808376)
(-0.145472 0.0358254 -0.00133161)
(-0.0016145 0.01422 -0.000321023)
(-0.00918326 0.0368847 0.00014797)
(-0.023327 0.0538347 0.000359277)
(-0.0410446 0.0655688 0.000444912)
(-0.0609318 0.0726351 0.00045445)
(-0.0819576 0.075424 0.000388231)
(-0.103052 0.0741282 0.000239476)
(-0.123076 0.0688401 -1.01451e-05)
(-0.140767 0.0597748 -0.000390804)
(-0.154629 0.047627 -0.000949763)
(-0.0016185 0.019238 9.01414e-05)
(-0.00924189 0.0485629 0.000589536)
(-0.0235045 0.0699965 0.00081204)
(-0.0413584 0.0846665 0.000918874)
(-0.0613822 0.0934407 0.000962342)
(-0.0825519 0.0968398 0.000941569)
(-0.103807 0.0950336 0.000843399)
(-0.123998 0.0879758 0.000637543)
(-0.141763 0.0756756 0.0002743)
(-0.155065 0.0586581 -0.000349692)
(-0.00149235 0.0240979 0.000707396)
(-0.00863496 0.0599385 0.00121812)
(-0.022091 0.0857755 0.00144395)
(-0.0389752 0.103326 0.00157528)
(-0.0579089 0.113775 0.00166299)
(-0.0778993 0.117785 0.00170457)
(-0.097936 0.115499 0.00167923)
(-0.116946 0.106663 0.00154276)
(-0.133689 0.090872 0.00122494)
(-0.145548 0.0678897 0.000513815)
(-0.00125426 0.0284503 0.00150985)
(-0.00744438 0.0702591 0.0020155)
(-0.0192523 0.10017 0.0022369)
(-0.0341106 0.120364 0.00239435)
(-0.0507017 0.132301 0.00253459)
(-0.0680337 0.136793 0.00265484)
(-0.0851117 0.134001 0.00272746)
(-0.100956 0.123504 0.0026935)
(-0.114812 0.104415 0.00247223)
(-0.123886 0.0749141 0.00165787)
(-0.000938575 0.0320115 0.00245912)
(-0.00583372 0.0788941 0.00294828)
(-0.0153548 0.112298 0.00315795)
(-0.0273375 0.134665 0.00333998)
(-0.0404931 0.14762 0.0035363)
(-0.0537165 0.152095 0.00374879)
(-0.0658185 0.148315 0.00395221)
(-0.075546 0.135816 0.00408453)
(-0.0826209 0.113519 0.00411642)
(-0.0859842 0.0785763 0.00345786)
(0.000275411 -0.000278168 2.19353e-07)
(-5.25748e-05 0.000173162 1.35275e-06)
(-0.00187894 0.000643901 1.94979e-06)
(-0.0047484 0.000956291 2.47295e-06)
(-0.00829103 0.00113083 2.78004e-06)
(-0.0121877 0.00120338 2.90119e-06)
(-0.0161748 0.00119955 2.89881e-06)
(-0.0200305 0.00113201 2.77408e-06)
(-0.0235589 0.00100751 2.50878e-06)
(-0.0265946 0.000837218 2.0866e-06)
(-0.000195236 5.28345e-05 -1.00941e-06)
(-0.00244163 0.00236401 3.12911e-07)
(-0.00778014 0.00455482 -1.13602e-06)
(-0.015223 0.00611484 -1.7754e-06)
(-0.0240829 0.00705524 -2.08703e-06)
(-0.0337297 0.00746664 -2.28279e-06)
(-0.0435697 0.00743051 -2.28528e-06)
(-0.0530653 0.00700244 -2.12319e-06)
(-0.0617354 0.00623386 -1.86219e-06)
(-0.0691827 0.0052083 -1.60622e-06)
(-0.000741148 0.00199076 -1.83166e-06)
(-0.00495381 0.00780274 1.68231e-06)
(-0.0135098 0.0128733 8.54189e-08)
(-0.0247756 0.0165449 -5.92272e-08)
(-0.0378402 0.0188088 9.90238e-08)
(-0.0518997 0.0197959 9.42825e-08)
(-0.0661521 0.019641 1.01538e-07)
(-0.0798375 0.0184569 1.41032e-07)
(-0.0922533 0.0163789 1.85833e-07)
(-0.102806 0.0136389 1.10873e-07)
(-0.00116483 0.00522019 -2.6458e-06)
(-0.0069955 0.0157749 2.32485e-06)
(-0.018212 0.0243743 9.75012e-09)
(-0.0325356 0.0305289 -1.77039e-07)
(-0.0488562 0.0343121 9.5971e-08)
(-0.0662539 0.0359123 1.29926e-07)
(-0.0837881 0.0355021 1.59734e-07)
(-0.100533 0.0332341 2.33181e-07)
(-0.115593 0.0293267 3.70719e-07)
(-0.12816 0.0241958 3.20575e-07)
(-0.00144646 0.00941855 -3.19885e-06)
(-0.00841765 0.0256982 2.70051e-06)
(-0.0215465 0.0383047 -2.84999e-07)
(-0.0380527 0.0471701 -6.29899e-07)
(-0.0566695 0.0525633 -3.58487e-07)
(-0.0763999 0.0547604 -3.34728e-07)
(-0.0962119 0.0539547 -2.90808e-07)
(-0.115052 0.0502998 -1.50942e-07)
(-0.131836 0.0440594 2.59181e-07)
(-0.145478 0.0358286 4.54096e-07)
(-0.00158688 0.0142193 -3.45725e-06)
(-0.00916504 0.0368857 2.96741e-06)
(-0.0233403 0.0538336 -3.70899e-07)
(-0.041048 0.0655664 -7.97047e-07)
(-0.0609309 0.072632 -5.31674e-07)
(-0.0819563 0.0754204 -5.23031e-07)
(-0.103049 0.0741242 -5.06507e-07)
(-0.123069 0.0688366 -3.95967e-07)
(-0.14076 0.0597789 4.24534e-07)
(-0.154643 0.047638 1.21166e-06)
(-0.00159073 0.0192391 -3.4492e-06)
(-0.00922398 0.0485628 3.02721e-06)
(-0.0235187 0.0699961 -3.94422e-07)
(-0.0413627 0.0846655 -8.69513e-07)
(-0.0613819 0.0934389 -6.4669e-07)
(-0.0825514 0.0968372 -6.70936e-07)
(-0.103805 0.0950297 -7.45292e-07)
(-0.123986 0.087971 -9.02163e-07)
(-0.141745 0.0756853 5.50802e-07)
(-0.155093 0.0586938 3.0282e-06)
(-0.00146635 0.0241007 -3.17478e-06)
(-0.0086185 0.0599375 2.89333e-06)
(-0.022105 0.0857759 -3.59513e-07)
(-0.0389799 0.103326 -8.47558e-07)
(-0.0579094 0.113774 -6.85503e-07)
(-0.0778999 0.117783 -7.01123e-07)
(-0.0979349 0.115493 -7.94114e-07)
(-0.116924 0.106648 -1.42376e-06)
(-0.133639 0.0908672 1.56894e-06)
(-0.145592 0.0679463 1.05902e-05)
(-0.00123165 0.0284547 -2.65226e-06)
(-0.00743026 0.0702577 2.61493e-06)
(-0.0192651 0.100172 -2.47979e-07)
(-0.0341157 0.120367 -7.17224e-07)
(-0.0507035 0.132303 -6.68259e-07)
(-0.0680379 0.136794 -7.51419e-07)
(-0.085122 0.133997 -1.03889e-06)
(-0.10094 0.123471 -3.56182e-06)
(-0.114713 0.104342 -9.80149e-07)
(-0.123932 0.0748828 2.37703e-05)
(-0.000920422 0.0320168 -1.93644e-06)
(-0.00582228 0.0788926 2.25967e-06)
(-0.0153648 0.112301 -3.21831e-08)
(-0.0273412 0.134672 -4.08539e-07)
(-0.0404946 0.147631 -4.58308e-07)
(-0.0537234 0.152115 -7.26998e-07)
(-0.0658503 0.148355 -1.595e-06)
(-0.0755855 0.135876 -9.14233e-06)
(-0.0825383 0.113577 -2.10902e-05)
(-0.0860599 0.0786863 6.58696e-06)
(0.000275396 -0.000278183 1.99049e-09)
(-5.26023e-05 0.000173156 -1.25977e-06)
(-0.00187895 0.000643899 -1.90866e-06)
(-0.00474839 0.00095629 -2.45095e-06)
(-0.00829102 0.00113083 -2.76486e-06)
(-0.0121877 0.00120338 -2.88884e-06)
(-0.0161747 0.00119955 -2.88837e-06)
(-0.0200304 0.00113201 -2.7648e-06)
(-0.0235589 0.00100751 -2.50017e-06)
(-0.0265945 0.000837218 -2.07898e-06)
(-0.00019524 5.28094e-05 1.10283e-06)
(-0.00244164 0.002364 -2.54456e-07)
(-0.00778013 0.00455481 1.16918e-06)
(-0.0152229 0.00611483 1.79731e-06)
(-0.0240829 0.00705523 2.10405e-06)
(-0.0337297 0.00746663 2.29725e-06)
(-0.0435696 0.00743051 2.29799e-06)
(-0.0530652 0.00700243 2.13467e-06)
(-0.0617352 0.00623385 1.87262e-06)
(-0.0691826 0.0052083 1.61528e-06)
(-0.000741146 0.00199075 1.87755e-06)
(-0.0049538 0.00780273 -1.64598e-06)
(-0.0135098 0.0128733 -5.90676e-08)
(-0.0247755 0.0165448 8.00511e-08)
(-0.0378401 0.0188088 -8.13067e-08)
(-0.0518996 0.0197959 -7.84629e-08)
(-0.0661519 0.019641 -8.7331e-08)
(-0.0798373 0.0184568 -1.28231e-07)
(-0.0922532 0.0163789 -1.74324e-07)
(-0.102806 0.0136389 -1.00885e-07)
(-0.00116482 0.00522018 2.67591e-06)
(-0.00699548 0.0157749 -2.29751e-06)
(-0.018212 0.0243742 1.34311e-08)
(-0.0325356 0.0305289 1.97347e-07)
(-0.0488561 0.0343121 -7.76907e-08)
(-0.0662538 0.0359122 -1.13119e-07)
(-0.0837879 0.0355021 -1.44493e-07)
(-0.100533 0.033234 -2.19483e-07)
(-0.115592 0.0293267 -3.58479e-07)
(-0.12816 0.0241958 -3.09977e-07)
(-0.00144645 0.00941853 3.22436e-06)
(-0.00841762 0.0256982 -2.67617e-06)
(-0.0215465 0.0383047 3.06945e-07)
(-0.0380527 0.0471701 6.50133e-07)
(-0.0566694 0.0525633 3.77278e-07)
(-0.0763997 0.0547603 3.52217e-07)
(-0.0962117 0.0539547 3.06722e-07)
(-0.115052 0.0502997 1.65198e-07)
(-0.131836 0.0440593 -2.46533e-07)
(-0.145478 0.0358285 -4.43221e-07)
(-0.00158687 0.0142192 3.48133e-06)
(-0.00916501 0.0368856 -2.94419e-06)
(-0.0233402 0.0538335 3.92324e-07)
(-0.0410479 0.0655663 8.17279e-07)
(-0.0609307 0.0726319 5.5071e-07)
(-0.0819562 0.0754204 5.40767e-07)
(-0.103048 0.0741241 5.22624e-07)
(-0.123069 0.0688366 4.10347e-07)
(-0.14076 0.0597788 -4.11903e-07)
(-0.154643 0.0476379 -1.20094e-06)
(-0.00159072 0.019239 3.47241e-06)
(-0.00922395 0.0485627 -3.00468e-06)
(-0.0235187 0.0699959 4.15532e-07)
(-0.0413626 0.0846653 8.89646e-07)
(-0.0613818 0.0934387 6.65637e-07)
(-0.0825512 0.0968371 6.88502e-07)
(-0.103805 0.0950297 7.61205e-07)
(-0.123986 0.0879709 9.16282e-07)
(-0.141745 0.0756852 -5.38539e-07)
(-0.155093 0.0586938 -3.01795e-06)
(-0.00146634 0.0241007 3.19675e-06)
(-0.00861847 0.0599374 -2.87177e-06)
(-0.022105 0.0857757 3.79914e-07)
(-0.0389799 0.103326 8.67031e-07)
(-0.0579094 0.113774 7.03771e-07)
(-0.0778998 0.117783 7.18004e-07)
(-0.0979348 0.115493 8.0939e-07)
(-0.116924 0.106647 1.43723e-06)
(-0.133639 0.0908671 -1.55739e-06)
(-0.145592 0.0679463 -1.05807e-05)
(-0.00123164 0.0284547 2.67238e-06)
(-0.00743024 0.0702576 -2.59487e-06)
(-0.019265 0.100171 2.67056e-07)
(-0.0341156 0.120367 7.35422e-07)
(-0.0507035 0.132303 6.8536e-07)
(-0.0680379 0.136794 7.67295e-07)
(-0.0851219 0.133997 1.05331e-06)
(-0.100939 0.123471 3.5745e-06)
(-0.114713 0.104342 9.90995e-07)
(-0.123932 0.0748828 -2.37614e-05)
(-0.000920418 0.0320168 1.95441e-06)
(-0.00582226 0.0788925 -2.24144e-06)
(-0.0153648 0.112301 4.96134e-08)
(-0.0273412 0.134671 4.25216e-07)
(-0.0404945 0.147631 4.74146e-07)
(-0.0537233 0.152115 7.41914e-07)
(-0.0658502 0.148355 1.60873e-06)
(-0.0755855 0.135876 9.15463e-06)
(-0.0825383 0.113577 2.11012e-05)
(-0.0860599 0.0786863 -6.57757e-06)
(0.00027069 -0.000273845 -6.38637e-07)
(-5.93583e-05 0.000178851 -0.000205755)
(-0.0018825 0.000657346 -0.000409096)
(-0.00475084 0.0009751 -0.000549409)
(-0.00829237 0.00115252 -0.000585666)
(-0.0121882 0.00122642 -0.000499163)
(-0.0161745 0.00122257 -0.000284579)
(-0.0200294 0.00115376 5.68445e-05)
(-0.0235567 0.00102694 0.000518443)
(-0.0265913 0.000853729 0.00108691)
(-0.000202157 5.97914e-05 0.000203848)
(-0.00244438 0.00236597 -5.07195e-06)
(-0.00777299 0.00456551 -0.000153856)
(-0.0152186 0.00613031 -0.000230568)
(-0.0240808 0.00707234 -0.000218535)
(-0.0337291 0.00748445 -0.00010286)
(-0.0435705 0.00744815 0.000122323)
(-0.0530672 0.00701892 0.00045844)
(-0.0617372 0.0062484 0.000903109)
(-0.0691838 0.00522083 0.00144883)
(-0.00075626 0.00199591 0.000411125)
(-0.00496444 0.00779653 0.000137651)
(-0.0135033 0.01287 -1.15931e-05)
(-0.0247735 0.0165415 -6.82757e-05)
(-0.0378401 0.0188036 -4.0107e-05)
(-0.0518998 0.0197898 8.15351e-05)
(-0.0661528 0.0196345 0.000300434)
(-0.0798385 0.0184502 0.000619352)
(-0.0922534 0.0163722 0.00103991)
(-0.102804 0.0136334 0.00156017)
(-0.00118629 0.00522452 0.000540554)
(-0.00701086 0.0157712 0.000188766)
(-0.0182036 0.0243749 1.80719e-05)
(-0.0325339 0.0305311 -4.01516e-05)
(-0.0488572 0.0343139 -1.33973e-05)
(-0.0662547 0.0359136 0.00010164)
(-0.0837893 0.035503 0.000307249)
(-0.100535 0.0332341 0.000608492)
(-0.115593 0.0293248 0.00101253)
(-0.128156 0.0241936 0.00152515)
(-0.00147192 0.00942118 0.000524782)
(-0.00843495 0.0256961 0.0001057)
(-0.0215351 0.0383065 -8.74351e-05)
(-0.03805 0.0471738 -0.000156268)
(-0.0566704 0.0525673 -0.000142319)
(-0.0764009 0.0547645 -4.53232e-05)
(-0.096214 0.0539587 0.000137797)
(-0.115056 0.0503026 0.000416986)
(-0.131838 0.0440581 0.000808363)
(-0.145471 0.0358253 0.0013316)
(-0.00161447 0.0142199 0.000320998)
(-0.00918318 0.0368845 -0.000147994)
(-0.0233268 0.0538345 -0.000359299)
(-0.0410443 0.0655686 -0.000444933)
(-0.0609315 0.0726348 -0.00045447)
(-0.0819573 0.0754238 -0.000388249)
(-0.103051 0.074128 -0.000239493)
(-0.123076 0.06884 1.01299e-05)
(-0.140766 0.0597747 0.000390791)
(-0.154629 0.0476269 0.000949751)
(-0.00161848 0.0192379 -9.01659e-05)
(-0.00924182 0.0485627 -0.00058956)
(-0.0235044 0.0699962 -0.000812062)
(-0.0413582 0.0846663 -0.000918895)
(-0.061382 0.0934405 -0.000962362)
(-0.0825516 0.0968396 -0.000941587)
(-0.103807 0.0950334 -0.000843416)
(-0.123998 0.0879757 -0.000637558)
(-0.141762 0.0756754 -0.000274313)
(-0.155065 0.058658 0.000349681)
(-0.00149233 0.0240977 -0.000707419)
(-0.0086349 0.0599383 -0.00121814)
(-0.0220908 0.0857752 -0.00144397)
(-0.038975 0.103325 -0.0015753)
(-0.0579087 0.113775 -0.00166301)
(-0.0778991 0.117785 -0.00170459)
(-0.0979357 0.115498 -0.00167925)
(-0.116946 0.106663 -0.00154278)
(-0.133689 0.0908719 -0.00122495)
(-0.145547 0.0678896 -0.000513825)
(-0.00125425 0.0284502 -0.00150987)
(-0.00744433 0.0702588 -0.00201552)
(-0.0192522 0.10017 -0.00223692)
(-0.0341105 0.120364 -0.00239437)
(-0.0507015 0.1323 -0.00253461)
(-0.0680335 0.136792 -0.00265485)
(-0.0851115 0.134001 -0.00272747)
(-0.100956 0.123504 -0.00269351)
(-0.114812 0.104415 -0.00247225)
(-0.123886 0.0749141 -0.00165788)
(-0.000938563 0.0320114 -0.00245914)
(-0.00583368 0.0788938 -0.0029483)
(-0.0153547 0.112297 -0.00315797)
(-0.0273374 0.134664 -0.00333999)
(-0.040493 0.14762 -0.00353632)
(-0.0537164 0.152094 -0.0037488)
(-0.0658184 0.148315 -0.00395222)
(-0.0755459 0.135816 -0.00408454)
(-0.0826209 0.113519 -0.00411644)
(-0.0859842 0.0785763 -0.00345787)
(-0.0290286 0.000658435 -0.0017416)
(-0.0308567 0.000473545 -0.00245747)
(-0.0321495 0.000320728 -0.00321217)
(-0.033022 0.00020717 -0.00398897)
(-0.0335929 0.000130375 -0.0047769)
(-0.0339651 8.35645e-05 -0.00556967)
(-0.0342195 5.95413e-05 -0.00636433)
(-0.0344169 5.25695e-05 -0.00716018)
(-0.0346026 5.87497e-05 -0.0079582)
(-0.0348111 7.55678e-05 -0.0087607)
(-0.0350683 0.000101024 -0.00957143)
(-0.0353914 0.000132524 -0.0103956)
(-0.0357849 0.000165626 -0.0112401)
(-0.0362345 0.000192722 -0.0121129)
(-0.0366968 0.000201974 -0.0130229)
(-0.037088 0.000177251 -0.013978)
(-0.0372725 9.9398e-05 -0.0149829)
(-0.0370671 -5.42665e-05 -0.0160334)
(-0.0362538 -0.00028961 -0.0171167)
(-0.0346166 -0.000596844 -0.0182034)
(-0.0751662 0.00407951 -0.00208133)
(-0.0796715 0.00299894 -0.00278073)
(-0.0828881 0.00209499 -0.00352875)
(-0.0850924 0.00140856 -0.00431041)
(-0.0865642 0.000929254 -0.00511438)
(-0.0875449 0.000622585 -0.00593281)
(-0.0882241 0.000449704 -0.00676084)
(-0.0887442 0.000377377 -0.00759597)
(-0.0892096 0.000380398 -0.00843761)
(-0.0896962 0.00043962 -0.00928682)
(-0.0902557 0.000537719 -0.0101461)
(-0.0909151 0.000653844 -0.0110193)
(-0.0916691 0.000757761 -0.0119116)
(-0.0924661 0.00080429 -0.0128288)
(-0.0931895 0.000729556 -0.0137769)
(-0.0936373 0.000452046 -0.0147606)
(-0.093509 -0.000117712 -0.015781)
(-0.0924044 -0.00105911 -0.016835)
(-0.089863 -0.00239397 -0.0179081)
(-0.0854517 -0.00405115 -0.0189758)
(-0.111132 0.0106201 -0.00216989)
(-0.117262 0.00779675 -0.00284864)
(-0.121542 0.00545459 -0.00357905)
(-0.124421 0.0036843 -0.00434685)
(-0.126316 0.00244788 -0.00514061)
(-0.127565 0.00165076 -0.00595201)
(-0.12842 0.0011906 -0.00677553)
(-0.129064 0.000980412 -0.0076079)
(-0.129624 0.000953199 -0.00844777)
(-0.130191 0.00105656 -0.00929534)
(-0.130823 0.00124238 -0.0101522)
(-0.131544 0.00145423 -0.011021)
(-0.132341 0.00161408 -0.0119056)
(-0.133142 0.00161007 -0.0128104)
(-0.133798 0.00128882 -0.0137403)
(-0.13405 0.000458473 -0.0146992)
(-0.133513 -0.00108672 -0.015689)
(-0.131666 -0.00351568 -0.0167077)
(-0.127891 -0.00687569 -0.0177462)
(-0.121573 -0.0109845 -0.0187853)
(-0.137717 0.0185853 -0.00213929)
(-0.144392 0.0134361 -0.00282515)
(-0.1488 0.00926732 -0.00356261)
(-0.151613 0.00618601 -0.00433663)
(-0.153378 0.00407203 -0.00513528)
(-0.154494 0.00272452 -0.00595023)
(-0.155232 0.00194706 -0.00677605)
(-0.155769 0.00158134 -0.0076095)
(-0.156226 0.00150939 -0.00844902)
(-0.156678 0.00164099 -0.00929432)
(-0.157176 0.00189501 -0.0101462)
(-0.157739 0.00217826 -0.0110065)
(-0.158355 0.00236359 -0.0118778)
(-0.158962 0.0022694 -0.0127635)
(-0.159424 0.00164517 -0.0136679)
(-0.159495 0.000172486 -0.0145958)
(-0.158783 -0.00250412 -0.0155509)
(-0.156717 -0.00669053 -0.0165369)
(-0.152546 -0.0125049 -0.017552)
(-0.145419 -0.0196741 -0.0185863)
(-0.155181 0.0268459 -0.00198512)
(-0.161261 0.0188611 -0.00271083)
(-0.16481 0.0126557 -0.00348221)
(-0.166806 0.00824296 -0.00428319)
(-0.167909 0.00531372 -0.00510164)
(-0.168525 0.00349313 -0.00593027)
(-0.168888 0.00245854 -0.00676492)
(-0.169129 0.00197019 -0.00760331)
(-0.169322 0.00186009 -0.0084443)
(-0.169513 0.0020063 -0.00928757)
(-0.169727 0.00230384 -0.0101333)
(-0.16998 0.00263479 -0.0109823)
(-0.170271 0.00283776 -0.0118359)
(-0.170575 0.00267755 -0.0126962)
(-0.170818 0.00181881 -0.0135668)
(-0.17084 -0.000185711 -0.0144531)
(-0.170328 -0.00387121 -0.0153641)
(-0.168739 -0.00976008 -0.0163092)
(-0.165223 -0.0181647 -0.0172988)
(-0.158581 -0.0288404 -0.0183408)
(-0.163344 0.0342898 -0.00170215)
(-0.167539 0.0230026 -0.00251342)
(-0.169204 0.0147695 -0.0033499)
(-0.169698 0.00925085 -0.00419862)
(-0.169714 0.00576827 -0.0050498)
(-0.169578 0.00368964 -0.00589978)
(-0.169414 0.00254273 -0.00674768)
(-0.169259 0.00201084 -0.00759339)
(-0.169115 0.00188994 -0.00843698)
(-0.168975 0.002043 -0.00927839)
(-0.168837 0.00235953 -0.0101173)
(-0.168704 0.00271881 -0.0109534)
(-0.168594 0.00295302 -0.0117865)
(-0.168534 0.00280719 -0.0126169)
(-0.16855 0.00189621 -0.013447)
(-0.168631 -0.000334733 -0.0142824)
(-0.168652 -0.00462051 -0.0151351)
(-0.168236 -0.0118065 -0.0160238)
(-0.166537 -0.0226237 -0.0169754)
(-0.161894 -0.0371606 -0.0180326)
(-0.161419 0.0395416 -0.00130893)
(-0.162189 0.02463 -0.0022683)
(-0.160978 0.0147765 -0.00320067)
(-0.159491 0.00872747 -0.0041116)
(-0.158236 0.00518275 -0.00500073)
(-0.157304 0.00318994 -0.00587312)
(-0.156629 0.00214032 -0.00673384)
(-0.156112 0.00167279 -0.00758619)
(-0.155669 0.00157806 -0.00843187)
(-0.155234 0.00172918 -0.00927119)
(-0.15477 0.00203291 -0.0101033)
(-0.154267 0.00239128 -0.0109266)
(-0.153751 0.00266412 -0.0117386)
(-0.153295 0.00262452 -0.0125375)
(-0.153033 0.0019001 -0.0133227)
(-0.153146 -0.000105844 -0.0140983)
(-0.153802 -0.00430157 -0.014878)
(-0.155004 -0.0119294 -0.0156886)
(-0.156217 -0.0244602 -0.0165773)
(-0.155357 -0.0429795 -0.0176524)
(-0.14753 0.0405698 -0.00085679)
(-0.14303 0.0222399 -0.0020403)
(-0.138303 0.0119696 -0.00308762)
(-0.134879 0.00646533 -0.00406041)
(-0.132606 0.00357481 -0.00497943)
(-0.131144 0.0020873 -0.0058656)
(-0.130181 0.0013575 -0.00673264)
(-0.129485 0.00105554 -0.00758748)
(-0.128896 0.00101414 -0.00843308)
(-0.128307 0.00114452 -0.00926979)
(-0.127653 0.00138963 -0.0100959)
(-0.126903 0.00169323 -0.010908)
(-0.126076 0.00197101 -0.0117015)
(-0.125259 0.00207305 -0.0124711)
(-0.124648 0.00172293 -0.0132119)
(-0.124588 0.000410161 -0.0139234)
(-0.12557 -0.00278862 -0.0146196)
(-0.128205 -0.00942579 -0.0153302)
(-0.132914 -0.0220005 -0.0161179)
(-0.137882 -0.0439156 -0.0171954)
(-0.117409 0.034984 -0.000616083)
(-0.105959 0.0149481 -0.00204393)
(-0.0983731 0.00654311 -0.00312923)
(-0.0941841 0.00299299 -0.00410546)
(-0.0918304 0.001454 -0.00501548)
(-0.0904743 0.00077923 -0.00589142)
(-0.0896449 0.000491006 -0.0067512)
(-0.0890632 0.000391935 -0.00760163)
(-0.0885634 0.000400771 -0.00844454)
(-0.088041 0.000483232 -0.00927896)
(-0.0874264 0.000622626 -0.0101017)
(-0.0866777 0.000804887 -0.0109074)
(-0.0857873 0.00100626 -0.0116885)
(-0.0848053 0.001175 -0.0124354)
(-0.0838892 0.00119369 -0.0131365)
(-0.0833884 0.000793573 -0.0137823)
(-0.0839213 -0.000650226 -0.01438)
(-0.0866725 -0.00462419 -0.0149377)
(-0.0939045 -0.0144414 -0.0154938)
(-0.106571 -0.0375517 -0.0164147)
(-0.0601249 0.0215609 -0.00122918)
(-0.0447698 0.00617286 -0.00262746)
(-0.0385546 0.00185801 -0.00336578)
(-0.0363482 0.000581404 -0.00410743)
(-0.0354145 0.000189887 -0.00486793)
(-0.0349536 7.26677e-05 -0.00564268)
(-0.0346905 4.25256e-05 -0.00642881)
(-0.0344988 4.24726e-05 -0.00722102)
(-0.0343131 5.68218e-05 -0.00801443)
(-0.0340921 8.26142e-05 -0.00880448)
(-0.0338025 0.000120766 -0.00958575)
(-0.033415 0.000173292 -0.0103509)
(-0.0329052 0.000241824 -0.0110892)
(-0.0322605 0.000324525 -0.0117854)
(-0.0315005 0.000406277 -0.0124173)
(-0.0307237 0.00042864 -0.0129531)
(-0.0302365 0.00018312 -0.0133514)
(-0.0309282 -0.00111262 -0.0135759)
(-0.0362165 -0.00600019 -0.0135216)
(-0.0535473 -0.0238971 -0.0137868)
(-0.0290319 0.000644955 1.55867e-06)
(-0.0308594 0.000463151 1.08079e-06)
(-0.0321515 0.000313111 7.07596e-07)
(-0.0330232 0.000201792 4.40078e-07)
(-0.0335935 0.00012666 2.64312e-07)
(-0.0339653 8.0984e-05 1.58927e-07)
(-0.0342195 5.76528e-05 1.03829e-07)
(-0.0344167 5.10222e-05 8.40199e-08)
(-0.0346023 5.72752e-05 8.9413e-08)
(-0.0348107 7.39687e-05 1.13728e-07)
(-0.0350678 9.91707e-05 1.5275e-07)
(-0.0353907 0.000130369 2.02403e-07)
(-0.0357842 0.000163231 2.56426e-07)
(-0.0362338 0.000190308 3.0385e-07)
(-0.0366962 0.000199964 3.28072e-07)
(-0.0370878 0.000176299 3.07152e-07)
(-0.037273 0.000100467 1.89173e-07)
(-0.0370688 -5.00932e-05 -6.19959e-08)
(-0.0362571 -0.000281172 -5.0285e-07)
(-0.0346215 -0.000583522 -1.14978e-06)
(-0.075165 0.00406842 -1.41938e-06)
(-0.0796697 0.00298991 -1.1809e-06)
(-0.0828859 0.00208815 -9.27938e-07)
(-0.0850902 0.0014036 -7.02181e-07)
(-0.0865622 0.000925784 -5.18084e-07)
(-0.0875433 0.000620186 -3.82364e-07)
(-0.0882229 0.000448003 -2.94117e-07)
(-0.0887433 0.00037607 -2.47122e-07)
(-0.0892089 0.000379249 -2.33204e-07)
(-0.0896957 0.000438448 -2.4322e-07)
(-0.0902552 0.000536394 -2.66731e-07)
(-0.0909145 0.000652291 -2.90233e-07)
(-0.0916681 0.000755979 -2.95331e-07)
(-0.0924644 0.000802395 -2.57269e-07)
(-0.093187 0.000727829 -1.46867e-07)
(-0.0936338 0.00045096 5.96971e-08)
(-0.0935046 -0.000117472 3.94708e-07)
(-0.0923995 -0.00105657 8.41171e-07)
(-0.0898587 -0.00238815 1.38326e-06)
(-0.0854491 -0.00404207 1.88601e-06)
(-0.111133 0.0106222 -1.7982e-07)
(-0.117262 0.00779722 -3.07215e-07)
(-0.121541 0.00545464 -3.32442e-07)
(-0.12442 0.00368426 -3.13142e-07)
(-0.126314 0.0024479 -2.65496e-07)
(-0.127563 0.00165089 -2.10451e-07)
(-0.128418 0.00119087 -1.6129e-07)
(-0.129062 0.00098081 -1.22721e-07)
(-0.129623 0.000953737 -9.50484e-08)
(-0.13019 0.00105724 -7.60505e-08)
(-0.130822 0.00124317 -6.23241e-08)
(-0.131543 0.00145507 -4.96034e-08)
(-0.13234 0.00161486 -3.27511e-08)
(-0.133141 0.00161061 -4.95873e-09)
(-0.133796 0.00128894 4.37306e-08)
(-0.134047 0.000458007 1.156e-07)
(-0.13351 -0.00108813 1.87198e-07)
(-0.131663 -0.00351793 2.87518e-07)
(-0.127889 -0.00687866 3.91045e-07)
(-0.121575 -0.0109896 3.30581e-07)
(-0.137721 0.018582 -2.72097e-07)
(-0.144393 0.0134324 -4.39459e-07)
(-0.148798 0.009265 -4.3233e-07)
(-0.15161 0.00618475 -3.82611e-07)
(-0.153376 0.00407155 -3.03512e-07)
(-0.154492 0.00272452 -2.23984e-07)
(-0.15523 0.0019473 -1.58705e-07)
(-0.155768 0.00158169 -1.0968e-07)
(-0.156224 0.00150978 -7.50588e-08)
(-0.156677 0.00164137 -5.16491e-08)
(-0.157175 0.00189535 -3.61627e-08)
(-0.157738 0.00217849 -2.55903e-08)
(-0.158354 0.00236365 -1.70468e-08)
(-0.158961 0.00226918 -5.5848e-09)
(-0.159422 0.00164463 2.66538e-08)
(-0.159493 0.000171665 1.10604e-07)
(-0.15878 -0.00250482 1.26849e-07)
(-0.156714 -0.00669039 2.14177e-07)
(-0.152545 -0.0125026 3.89547e-07)
(-0.145424 -0.0196714 3.39511e-07)
(-0.155189 0.0268374 -7.47369e-07)
(-0.16126 0.0188539 -8.3038e-07)
(-0.164806 0.0126522 -6.63115e-07)
(-0.166803 0.00824169 -5.15801e-07)
(-0.167906 0.00531365 -3.61548e-07)
(-0.168522 0.00349362 -2.36418e-07)
(-0.168886 0.00245917 -1.50508e-07)
(-0.169127 0.00197079 -9.5456e-08)
(-0.169321 0.00186059 -6.25551e-08)
(-0.169511 0.00200669 -4.49467e-08)
(-0.169726 0.0023041 -3.78802e-08)
(-0.169979 0.00263489 -3.82064e-08)
(-0.17027 0.00283766 -4.33328e-08)
(-0.170574 0.00267719 -4.89997e-08)
(-0.170816 0.0018182 -4.71857e-08)
(-0.170837 -0.000186377 -3.77063e-08)
(-0.170324 -0.00387131 6.28321e-08)
(-0.168734 -0.0097581 2.17197e-07)
(-0.16522 -0.0181567 6.72369e-07)
(-0.158589 -0.0288285 9.33114e-07)
(-0.163358 0.0342724 -1.6273e-06)
(-0.167534 0.0229909 -1.36134e-06)
(-0.169196 0.014766 -8.34308e-07)
(-0.169692 0.00925054 -5.56096e-07)
(-0.16971 0.00576924 -3.25725e-07)
(-0.169575 0.00369092 -1.70526e-07)
(-0.169412 0.00254387 -8.40673e-08)
(-0.169258 0.00201174 -3.87478e-08)
(-0.169114 0.00189063 -1.69528e-08)
(-0.168974 0.00204351 -8.79024e-09)
(-0.168836 0.0023599 -9.37545e-09)
(-0.168703 0.00271905 -1.70454e-08)
(-0.168594 0.00295308 -3.18931e-08)
(-0.168533 0.00280701 -5.29818e-08)
(-0.168548 0.00189581 -6.42308e-08)
(-0.168628 -0.000334969 -3.28793e-08)
(-0.168647 -0.00462006 -1.8895e-09)
(-0.168225 -0.011803 1.34945e-07)
(-0.166527 -0.0226087 1.13796e-06)
(-0.161909 -0.0371353 2.33775e-06)
(-0.161449 0.0395174 -4.36841e-06)
(-0.162174 0.0246221 -2.82504e-06)
(-0.160963 0.0147797 -1.27563e-06)
(-0.159482 0.00873137 -6.63049e-07)
(-0.158232 0.00518591 -2.80186e-07)
(-0.157301 0.00319226 -8.46759e-08)
(-0.156627 0.0021419 -8.86488e-09)
(-0.156111 0.00167388 1.56388e-08)
(-0.155668 0.0015789 1.85219e-08)
(-0.155234 0.00172991 1.16732e-08)
(-0.15477 0.00203361 -9.93686e-10)
(-0.154267 0.00239198 -1.93694e-08)
(-0.15375 0.00266474 -4.47115e-08)
(-0.153295 0.00262487 -7.8594e-08)
(-0.153031 0.00189989 -9.97272e-08)
(-0.153143 -0.000106652 -3.30402e-08)
(-0.153795 -0.00430325 8.63715e-08)
(-0.154985 -0.0119318 3.65208e-07)
(-0.156193 -0.0244494 2.70987e-06)
(-0.155387 -0.0429465 6.41344e-06)
(-0.147586 0.0405299 -7.45308e-06)
(-0.142999 0.0222494 -2.95047e-06)
(-0.138285 0.0119899 -5.69265e-07)
(-0.134875 0.00647666 -2.24261e-07)
(-0.132604 0.0035805 2.62083e-08)
(-0.131143 0.00209033 1.15657e-07)
(-0.130181 0.00135917 1.08392e-07)
(-0.129485 0.00105664 8.81886e-08)
(-0.128895 0.00101513 7.24318e-08)
(-0.128307 0.00114563 6.14478e-08)
(-0.127652 0.001391 5.23786e-08)
(-0.126903 0.0016949 4.0652e-08)
(-0.126076 0.00197291 1.93951e-08)
(-0.12526 0.00207478 -2.98594e-08)
(-0.124648 0.00172367 -1.05983e-07)
(-0.124588 0.000408485 -6.4749e-08)
(-0.125569 -0.00279665 5.84454e-08)
(-0.128185 -0.00944658 -3.32512e-07)
(-0.132871 -0.0220121 2.42197e-06)
(-0.137938 -0.0438628 1.03104e-05)
(-0.117477 0.0347966 -9.36204e-06)
(-0.105893 0.0148924 4.11233e-06)
(-0.098362 0.00653307 4.53023e-06)
(-0.0941928 0.00298644 1.88842e-06)
(-0.0918352 0.00144917 9.59138e-07)
(-0.0904764 0.000776287 5.71643e-07)
(-0.0896458 0.00048912 3.47582e-07)
(-0.0890633 0.000390561 2.53972e-07)
(-0.088563 0.000399607 2.39056e-07)
(-0.0880403 0.000482076 2.67771e-07)
(-0.0874256 0.000621353 3.22314e-07)
(-0.0866771 0.000803456 3.87655e-07)
(-0.0857873 0.00100477 4.37614e-07)
(-0.0848065 0.00117378 4.03997e-07)
(-0.0838923 0.00119348 1.94709e-07)
(-0.0833961 0.000795351 -1.52474e-07)
(-0.0839383 -0.000646608 -1.24578e-06)
(-0.0866681 -0.00461699 -5.55575e-06)
(-0.0938203 -0.014381 -7.35402e-06)
(-0.106621 -0.0373131 1.14065e-05)
(-0.0601625 0.021423 -5.125e-05)
(-0.0446178 0.00610851 -8.34223e-06)
(-0.0385126 0.00183236 -5.04061e-07)
(-0.0363443 0.000567022 -1.34663e-06)
(-0.0354116 0.000181625 -8.65462e-07)
(-0.0349515 6.81222e-05 -3.9303e-07)
(-0.0346896 3.98424e-05 -2.1514e-07)
(-0.0344984 4.05841e-05 -1.47622e-07)
(-0.0343129 5.51504e-05 -1.26983e-07)
(-0.034092 8.08197e-05 -1.37772e-07)
(-0.0338026 0.000118643 -1.70529e-07)
(-0.0334152 0.000170762 -2.16109e-07)
(-0.0329053 0.00023901 -2.61406e-07)
(-0.0322604 0.000321966 -2.82909e-07)
(-0.0314993 0.000405236 -1.93117e-07)
(-0.0307227 0.000431208 2.45318e-07)
(-0.0302386 0.00019232 6.2455e-07)
(-0.0308889 -0.00109036 -1.77494e-06)
(-0.0360158 -0.00593129 3.87766e-06)
(-0.053537 -0.0237165 6.35165e-05)
(-0.0290319 0.000644955 -1.55237e-06)
(-0.0308594 0.000463151 -1.07569e-06)
(-0.0321514 0.000313111 -7.03443e-07)
(-0.0330231 0.000201792 -4.36771e-07)
(-0.0335934 0.00012666 -2.61906e-07)
(-0.0339652 8.09838e-05 -1.57526e-07)
(-0.0342194 5.76525e-05 -1.03411e-07)
(-0.0344166 5.10217e-05 -8.44558e-08)
(-0.0346022 5.72745e-05 -9.05914e-08)
(-0.0348106 7.39679e-05 -1.1557e-07)
(-0.0350677 9.91696e-05 -1.55186e-07)
(-0.0353907 0.000130368 -2.05273e-07)
(-0.0357841 0.00016323 -2.59449e-07)
(-0.0362337 0.000190307 -3.06738e-07)
(-0.0366961 0.000199963 -3.30555e-07)
(-0.0370877 0.000176298 -3.08945e-07)
(-0.037273 0.000100467 -1.89943e-07)
(-0.0370687 -5.00925e-05 6.25506e-08)
(-0.036257 -0.00028117 5.04951e-07)
(-0.0346214 -0.000583519 1.15343e-06)
(-0.0751648 0.00406842 1.42692e-06)
(-0.0796696 0.00298991 1.18708e-06)
(-0.0828858 0.00208815 9.32958e-07)