/*--------------------------------*- C++ -*----------------------------------*\
| =========                 |                                                 |
| \\      /  F ield         | OpenFOAM: The Open Source CFD Toolbox           |
|  \\    /   O peration     | Version:  2.4.0                                 |
|   \\  /    A nd           | Web:      www.OpenFOAM.org                      |
|    \\/     M anipulation  |                                                 |
\*---------------------------------------------------------------------------*/
FoamFile
{
    version     2.0;
    format      ascii;
    class       volScalarField;
    location    "0.365";
    object      T;
}
// * * * * * * * * * * * * * * * * * * * * * * * * * * * * * * * * * * * * * //

dimensions      [0 0 0 1 0 0 0];

internalField   nonuniform List<scalar> 
1600
(
101.192
103.576
105.962
108.35
110.741
113.137
115.537
117.943
120.356
122.775
125.202
127.636
130.078
132.528
134.986
137.453
139.928
142.411
144.902
147.401
149.908
152.422
154.943
157.471
160.006
162.548
165.096
167.65
170.211
172.777
175.349
177.927
180.51
183.098
185.69
188.286
190.885
193.488
196.092
198.697
101.193
103.579
105.966
108.356
110.749
113.146
115.549
117.957
120.371
122.791
125.219
127.655
130.098
132.55
135.009
137.477
139.953
142.436
144.928
147.427
149.934
152.448
154.969
157.497
160.031
162.572
165.119
167.672
170.231
172.796
175.367
177.943
180.524
183.11
185.701
188.295
190.893
193.493
196.095
198.698
101.194
103.584
105.975
108.368
110.765
113.166
115.571
117.982
120.399
122.823
125.254
127.693
130.139
132.592
135.054
137.524
140.001
142.486
144.979
147.479
149.986
152.5
155.021
157.548
160.081
162.621
165.166
167.717
170.273
172.835
175.403
177.975
180.553
183.135
185.722
188.312
190.906
193.503
196.101
198.7
101.197
103.592
105.988
108.386
110.788
113.194
115.604
118.02
120.442
122.871
125.306
127.748
130.198
132.655
135.12
137.593
140.073
142.56
145.054
147.556
150.063
152.578
155.098
157.624
160.156
162.693
165.235
167.783
170.336
172.894
175.456
178.024
180.597
183.173
185.754
188.339
190.927
193.517
196.11
198.703
101.201
103.602
106.005
108.41
110.819
113.231
115.648
118.071
120.499
122.933
125.374
127.821
130.276
132.738
135.207
137.683
140.167
142.657
145.153
147.656
150.165
152.679
155.199
157.724
160.254
162.788
165.327
167.871
170.419
172.971
175.528
178.089
180.655
183.224
185.798
188.375
190.955
193.537
196.122
198.707
101.205
103.615
106.026
108.44
110.857
113.278
115.703
118.133
120.569
123.01
125.458
127.912
130.373
132.841
135.315
137.795
140.283
142.776
145.275
147.78
150.29
152.804
155.324
157.847
160.375
162.906
165.441
167.98
170.522
173.068
175.617
178.171
180.728
183.288
185.852
188.42
190.99
193.562
196.137
198.712
101.21
103.63
106.052
108.476
110.903
113.333
115.768
118.207
120.652
123.102
125.558
128.02
130.488
132.962
135.442
137.928
140.42
142.917
145.42
147.927
150.438
152.953
155.472
157.994
160.519
163.047
165.577
168.11
170.646
173.184
175.725
178.268
180.815
183.365
185.918
188.474
191.032
193.593
196.155
198.718
101.216
103.648
106.082
108.518
110.956
113.398
115.844
118.294
120.749
123.209
125.674
128.145
130.621
133.103
135.59
138.082
140.579
143.081
145.587
148.096
150.609
153.125
155.643
158.164
160.686
163.21
165.735
168.261
170.789
173.318
175.849
178.382
180.917
183.454
185.994
188.536
191.081
193.628
196.176
198.725
101.223
103.668
106.116
108.565
111.017
113.472
115.93
118.392
120.859
123.33
125.806
128.287
130.772
133.262
135.757
138.256
140.759
143.265
145.775
148.287
150.802
153.319
155.836
158.355
160.874
163.394
165.913
168.432
170.952
173.471
175.991
178.512
181.033
183.557
186.082
188.609
191.138
193.668
196.2
198.733
101.231
103.691
106.154
108.619
111.085
113.555
116.027
118.503
120.983
123.466
125.954
128.445
130.941
133.44
135.943
138.45
140.959
143.471
145.985
148.5
151.017
153.534
156.051
158.568
161.084
163.598
166.112
168.623
171.134
173.642
176.15
178.657
181.164
183.672
186.18
188.69
191.201
193.714
196.228
198.742
101.239
103.717
106.197
108.678
111.162
113.647
116.135
118.626
121.12
123.617
126.118
128.621
131.128
133.637
136.149
138.663
141.179
143.697
146.215
148.734
151.252
153.77
156.286
158.801
161.313
163.823
166.33
168.833
171.334
173.831
176.326
178.819
181.31
183.8
186.29
188.781
191.272
193.765
196.258
198.753
101.249
103.746
106.245
108.745
111.246
113.749
116.255
118.762
121.272
123.784
126.298
128.814
131.333
133.853
136.374
138.897
141.42
143.943
146.466
148.988
151.508
154.026
156.542
159.054
161.562
164.066
166.566
169.061
171.552
174.037
176.518
178.995
181.469
183.941
186.411
188.88
191.35
193.821
196.292
198.764
101.259
103.777
106.297
108.818
111.339
113.862
116.386
118.911
121.438
123.966
126.495
129.026
131.557
134.088
136.62
139.151
141.681
144.21
146.738
149.262
151.784
154.302
156.817
159.326
161.83
164.329
166.821
169.307
171.787
174.259
176.726
179.187
181.643
184.094
186.543
188.99
191.436
193.882
196.329
198.776
101.271
103.812
106.355
108.898
111.441
113.985
116.53
119.075
121.62
124.165
126.711
129.256
131.8
134.344
136.886
139.426
141.964
144.499
147.03
149.558
152.081
154.599
157.112
159.618
162.117
164.61
167.094
169.57
172.038
174.498
176.95
179.393
181.83
184.261
186.686
189.109
191.529
193.949
196.37
198.79
101.284
103.85
106.418
108.985
111.553
114.12
116.687
119.253
121.818
124.382
126.945
129.506
132.064
134.62
137.173
139.723
142.268
144.809
147.345
149.876
152.4
154.918
157.428
159.93
162.424
164.91
167.386
169.852
172.308
174.753
177.189
179.615
182.031
184.44
186.841
189.238
191.631
194.022
196.414
198.804
101.297
103.892
106.487
109.081
111.675
114.267
116.858
119.448
122.034
124.618
127.2
129.777
132.351
134.92
137.485
140.044
142.597
145.144
147.685
150.218
152.743
155.259
157.767
160.265
162.753
165.231
167.697
170.152
172.595
175.026
177.444
179.851
182.247
184.632
187.008
189.377
191.74
194.101
196.461
198.82
101.313
103.938
106.563
109.186
111.809
114.428
117.046
119.66
122.27
124.875
127.476
130.072
132.662
135.245
137.822
140.391
142.953
145.506
148.051
150.586
153.112
155.627
158.132
160.625
163.106
165.575
168.031
170.474
172.902
175.317
177.717
180.104
182.477
184.838
187.187
189.527
191.859
194.187
196.513
198.837
101.329
103.988
106.645
109.301
111.955
114.605
117.25
119.891
122.527
125.156
127.778
130.393
132.999
135.598
138.187
140.767
143.338
145.898
148.447
150.985
153.511
156.025
158.526
161.013
163.487
165.946
168.391
170.82
173.233
175.629
178.01
180.375
182.724
185.058
187.379
189.688
191.986
194.279
196.569
198.856
101.348
104.042
106.736
109.427
112.115
114.797
117.474
120.144
122.807
125.461
128.106
130.742
133.367
135.981
138.585
141.176
143.755
146.322
148.876
151.417
153.943
156.455
158.952
161.434
163.899
166.348
168.779
171.193
173.589
175.966
178.325
180.666
182.989
185.295
187.585
189.861
192.124
194.378
196.629
198.875
101.368
104.103
106.836
109.566
112.291
115.009
117.72
120.421
123.114
125.795
128.465
131.123
133.767
136.399
139.017
141.621
144.21
146.784
149.343
151.886
154.413
156.923
159.416
161.89
164.346
166.783
169.201
171.598
173.975
176.331
178.666
180.981
183.275
185.55
187.807
190.047
192.273
194.486
196.695
198.897
101.39
104.169
106.946
109.718
112.484
115.241
117.989
120.725
123.45
126.161
128.857
131.539
134.205
136.855
139.489
142.106
144.705
147.287
149.851
152.397
154.924
157.432
159.92
162.387
164.833
167.258
169.66
172.039
174.395
176.728
179.037
181.323
183.586
185.827
188.048
190.249
192.433
194.603
196.766
198.921
101.415
104.243
107.067
109.886
112.697
115.497
118.285
121.059
123.819
126.562
129.287
131.995
134.684
137.354
140.004
142.635
145.246
147.836
150.406
152.955
155.482
157.987
160.47
162.929
165.364
167.775
170.16
172.52
174.854
177.161
179.442
181.696
183.924
186.128
188.309
190.468
192.608
194.731
196.844
198.946
101.442
104.324
107.201
110.072
112.931
115.779
118.611
121.427
124.225
127.002
129.759
132.495
135.208
137.9
140.568
143.214
145.837
148.436
151.012
153.564
156.092
158.594
161.071
163.521
165.944
168.34
170.707
173.046
175.355
177.635
179.884
182.104
184.295
186.458
188.595
190.708
192.798
194.87
196.929
198.974
101.472
104.414
107.35
110.277
113.191
116.091
118.972
121.833
124.672
127.487
130.278
133.044
135.784
138.498
141.186
143.848
146.483
149.092
151.675
154.23
156.757
159.257
161.727
164.168
166.579
168.958
171.306
173.622
175.904
178.154
180.37
182.552
184.702
186.82
188.908
190.97
193.007
195.022
197.022
199.005
101.505
104.513
107.515
110.505
113.479
116.436
119.37
122.28
125.164
128.021
130.849
133.647
136.416
139.154
141.863
144.542
147.191
149.81
152.399
154.957
157.485
159.981
162.445
164.875
167.272
169.635
171.962
174.253
176.507
178.724
180.903
183.045
185.149
187.218
189.254
191.259
193.236
195.189
197.125
199.039
101.542
104.625
107.698
110.758
113.799
116.818
119.811
122.776
125.709
128.61
131.477
134.31
137.109
139.874
142.605
145.302
147.965
150.594
153.19
155.752
158.279
160.772
163.229
165.649
168.031
170.376
172.68
174.945
177.168
179.35
181.49
183.587
185.643
187.659
189.636
191.579
193.49
195.374
197.238
199.077
101.584
104.749
107.903
111.04
114.156
117.244
120.301
123.324
126.311
129.259
132.169
135.04
137.871
140.664
143.417
146.133
148.811
151.451
154.054
156.62
159.147
161.636
164.085
166.494
168.861
171.186
173.467
175.704
177.895
180.039
182.136
184.186
186.189
188.146
190.06
191.934
193.772
195.579
197.364
199.119
101.631
104.888
108.132
111.356
114.553
117.717
120.845
123.932
126.976
129.976
132.932
135.842
138.708
141.529
144.307
147.043
149.736
152.388
154.998
157.567
160.094
162.578
165.019
167.416
169.768
172.073
174.329
176.536
178.692
180.797
182.848
184.847
186.792
188.686
190.53
192.328
194.086
195.808
197.505
199.166
101.683
105.044
108.389
111.71
114.997
118.246
121.45
124.607
127.713
130.768
133.772
136.724
139.626
142.478
145.281
148.036
150.746
153.409
156.026
158.599
161.125
163.605
166.038
168.423
170.758
173.042
175.273
177.449
179.569
181.631
183.634
185.578
187.461
189.286
191.054
192.769
194.437
196.064
197.661
199.218
101.742
105.221
108.679
112.108
115.496
118.837
122.125
125.356
128.529
131.643
134.697
137.693
140.632
143.515
146.345
149.121
151.846
154.521
157.146
159.722
162.248
164.723
167.148
169.52
171.838
174.1
176.304
178.448
180.531
182.549
184.501
186.386
188.204
189.954
191.639
193.263
194.831
196.353
197.838
199.277
101.81
105.421
109.008
112.557
116.057
119.499
122.878
126.19
129.434
132.609
135.716
138.757
141.735
144.65
147.505
150.303
153.044
155.73
158.363
160.942
163.467
165.938
168.353
170.713
173.013
175.254
177.431
179.543
181.586
183.559
185.458
187.282
189.029
190.7
192.295
193.818
195.276
196.679
198.037
199.344
101.887
105.65
109.383
113.068
116.691
120.244
123.721
127.118
130.436
133.675
136.837
139.924
142.94
145.888
148.769
151.588
154.345
157.043
159.683
162.264
164.789
167.255
169.662
172.008
174.292
176.51
178.66
180.739
182.743
184.67
186.514
188.275
189.948
191.533
193.031
194.444
195.78
197.05
198.264
199.421
101.976
105.915
109.814
113.651
117.411
121.084
124.665
128.153
131.547
134.851
138.069
141.202
144.257
147.236
150.144
152.983
155.755
158.464
161.111
163.696
166.219
168.68
171.079
173.412
175.679
177.876
179.999
182.046
184.011
185.891
187.681
189.376
190.973
192.468
193.862
195.156
196.356
197.475
198.524
199.51
102.081
106.223
110.314
114.323
118.233
122.035
125.726
129.307
132.779
136.149
139.42
142.6
145.692
148.702
151.634
154.493
157.28
160
162.653
165.24
167.763
170.219
172.61
174.931
177.182
179.358
181.456
183.471
185.399
187.233
188.968
190.598
192.117
193.52
194.804
195.969
197.019
197.967
198.827
199.615
102.206
106.591
110.902
115.104
119.177
123.116
126.921
130.594
134.144
137.577
140.902
144.124
147.252
150.291
153.247
156.123
158.925
161.654
164.313
166.903
169.424
171.877
174.26
176.57
178.806
180.963
183.037
185.023
186.915
188.707
190.39
191.957
193.399
194.708
195.878
196.906
197.791
198.547
199.187
199.742
102.361
107.038
111.606
116.022
120.27
124.349
128.267
132.032
135.655
139.148
142.522
145.784
148.945
152.01
154.986
157.879
160.693
163.431
166.095
168.688
171.209
173.658
176.034
178.334
180.557
182.697
184.75
186.711
188.571
190.323
191.958
193.466
194.835
196.053
197.109
197.994
198.701
199.243
199.623
199.897
102.559
107.601
112.468
117.116
121.543
125.761
129.786
133.635
137.325
140.872
144.289
147.586
150.775
153.863
156.858
159.765
162.59
165.335
168.005
170.599
173.12
175.566
177.937
180.229
182.441
184.567
186.603
188.542
190.375
192.094
193.688
195.144
196.448
197.583
198.531
199.274
199.794
200.095
200.162
200.091
102.833
108.346
113.549
118.436
123.035
127.379
131.499
135.42
139.167
142.759
146.211
149.538
152.749
155.856
158.866
161.785
164.619
167.371
170.045
172.642
175.163
177.607
179.974
182.261
184.465
186.581
188.604
190.525
192.338
194.031
195.593
197.009
198.26
199.326
200.181
200.796
201.134
201.175
200.864
200.351
103.293
109.388
114.928
120.036
124.785
129.232
133.427
137.404
141.194
144.819
148.298
151.646
154.876
157.997
161.018
163.946
166.787
169.545
172.223
174.822
177.344
179.788
182.153
184.437
186.636
188.745
190.759
192.67
194.469
196.145
197.685
199.073
200.288
201.306
202.095
202.616
202.805
202.605
201.873
200.788
104.142
110.975
116.791
122.048
126.889
131.395
135.629
139.635
143.447
147.09
150.583
153.942
157.181
160.31
163.338
166.271
169.116
171.877
174.557
177.157
179.68
182.124
184.488
186.77
188.967
191.073
193.082
194.987
196.779
198.446
199.974
201.346
202.541
203.532
204.283
204.751
204.858
204.523
203.499
201.837
)
;

boundaryField
{
    carasuperior
    {
        type            fixedGradient;
        gradient        uniform 100;
    }
    lateralizquierda
    {
        type            fixedValue;
        value           uniform 100;
    }
    lateralderecha
    {
        type            fixedValue;
        value           uniform 200;
    }
    carainferior
    {
        type            zeroGradient;
    }
    frontAndBack
    {
        type            empty;
    }
}


// ************************************************************************* //
