/*--------------------------------*- C++ -*----------------------------------*\
| =========                 |                                                 |
| \\      /  F ield         | OpenFOAM: The Open Source CFD Toolbox           |
|  \\    /   O peration     | Version:  2.4.0                                 |
|   \\  /    A nd           | Web:      www.OpenFOAM.org                      |
|    \\/     M anipulation  |                                                 |
\*---------------------------------------------------------------------------*/
FoamFile
{
    version     2.0;
    format      ascii;
    class       volScalarField;
    location    "0.0051";
    object      T;
}
// * * * * * * * * * * * * * * * * * * * * * * * * * * * * * * * * * * * * * //

dimensions      [0 0 0 1 0 0 0];

internalField   nonuniform List<scalar> 
4800
(
100.194
100.581
100.967
101.354
101.737
102.116
102.487
102.844
103.181
103.493
100.581
101.742
102.903
104.063
105.217
106.358
107.475
108.552
109.571
110.51
100.967
102.903
104.841
106.778
108.71
110.624
112.502
114.318
116.038
117.625
101.354
104.063
106.778
109.499
112.219
114.926
117.592
120.181
122.639
124.907
101.737
105.217
108.71
112.22
115.743
119.267
122.761
126.173
129.43
132.437
102.117
106.358
110.624
114.926
119.268
123.639
128.011
132.321
136.47
140.313
102.487
107.475
112.503
117.593
122.762
128.011
133.321
138.631
143.815
148.659
102.844
108.553
114.32
120.183
126.175
132.323
138.632
145.066
151.5
157.64
103.182
109.572
116.041
122.642
129.433
136.473
143.817
151.502
159.48
167.459
103.494
110.513
117.629
124.912
132.442
140.318
148.663
157.643
167.46
178.221
100.194
100.581
100.967
101.354
101.737
102.117
102.487
102.844
103.181
103.493
100.581
101.742
102.903
104.063
105.217
106.358
107.475
108.552
109.571
110.51
100.967
102.903
104.841
106.778
108.71
110.624
112.502
114.318
116.038
117.625
101.354
104.063
106.778
109.499
112.219
114.926
117.592
120.181
122.639
124.907
101.737
105.217
108.71
112.22
115.743
119.267
122.761
126.173
129.43
132.437
102.117
106.358
110.624
114.926
119.268
123.639
128.011
132.321
136.47
140.313
102.487
107.476
112.503
117.594
122.762
128.011
133.321
138.631
143.815
148.659
102.845
108.553
114.32
120.183
126.175
132.323
138.632
145.066
151.501
157.64
103.182
109.572
116.041
122.642
129.433
136.473
143.818
151.502
159.481
167.459
103.494
110.513
117.629
124.912
132.443
140.318
148.664
157.644
167.461
178.222
100.194
100.581
100.967
101.354
101.737
102.117
102.487
102.844
103.181
103.493
100.581
101.742
102.903
104.063
105.217
106.358
107.475
108.552
109.571
110.51
100.967
102.903
104.841
106.778
108.71
110.624
112.502
114.318
116.038
117.625
101.354
104.063
106.778
109.499
112.219
114.926
117.592
120.181
122.639
124.907
101.737
105.217
108.71
112.22
115.743
119.267
122.761
126.173
129.43
132.437
102.117
106.358
110.624
114.926
119.268
123.639
128.011
132.321
136.47
140.313
102.487
107.476
112.503
117.594
122.762
128.011
133.321
138.631
143.815
148.659
102.845
108.553
114.32
120.183
126.175
132.323
138.632
145.066
151.501
157.64
103.182
109.572
116.041
122.642
129.433
136.473
143.818
151.502
159.481
167.459
103.494
110.513
117.629
124.912
132.443
140.318
148.664
157.644
167.461
178.222
100.194
100.581
100.967
101.354
101.737
102.116
102.487
102.844
103.181
103.493
100.581
101.742
102.903
104.063
105.217
106.358
107.475
108.552
109.571
110.51
100.967
102.903
104.841
106.778
108.71
110.624
112.502
114.318
116.038
117.625
101.354
104.063
106.778
109.499
112.219
114.926
117.592
120.181
122.639
124.907
101.737
105.217
108.71
112.22
115.743
119.267
122.761
126.173
129.43
132.437
102.117
106.358
110.624
114.926
119.268
123.639
128.011
132.321
136.47
140.313
102.487
107.475
112.503
117.593
122.762
128.011
133.321
138.631
143.815
148.659
102.844
108.553
114.32
120.183
126.175
132.323
138.632
145.066
151.5
157.64
103.182
109.572
116.041
122.642
129.433
136.473
143.817
151.502
159.48
167.459
103.494
110.513
117.629
124.912
132.442
140.318
148.663
157.643
167.46
178.221
103.772
104.016
104.222
104.391
104.526
104.63
104.707
104.761
104.796
104.813
104.813
104.796
104.761
104.707
104.63
104.526
104.391
104.222
104.016
103.772
111.353
112.086
112.704
113.208
113.608
113.916
114.144
114.304
114.405
114.454
114.454
114.405
114.304
114.144
113.916
113.608
113.207
112.703
112.086
111.353
119.044
120.272
121.298
122.129
122.783
123.282
123.649
123.905
124.067
124.145
124.144
124.066
123.905
123.648
123.281
122.782
122.128
121.296
120.27
119.043
126.927
128.658
130.087
131.228
132.113
132.78
133.265
133.601
133.812
133.913
133.913
133.811
133.6
133.264
132.778
132.111
131.226
130.085
128.656
126.926
135.099
137.346
139.163
140.583
141.661
142.459
143.031
143.423
143.666
143.783
143.783
143.666
143.422
143.03
142.457
141.659
140.581
139.161
137.344
135.097
143.686
146.464
148.637
150.279
151.489
152.363
152.978
153.393
153.648
153.77
153.769
153.647
153.391
152.976
152.361
151.487
150.277
148.635
146.461
143.684
152.868
156.185
158.643
160.407
161.654
162.525
163.124
163.522
163.764
163.878
163.878
163.763
163.521
163.123
162.524
161.652
160.405
158.64
156.183
152.866
162.942
166.765
169.341
171.053
172.194
172.96
173.472
173.806
174.007
174.101
174.101
174.006
173.805
173.471
172.959
172.193
171.051
169.34
166.763
162.94
174.494
178.591
180.905
182.268
183.109
183.648
183.999
184.223
184.356
184.419
184.419
184.356
184.222
183.998
183.648
183.109
182.267
180.905
178.59
174.493
188.983
192.199
193.422
194.003
194.328
194.525
194.651
194.73
194.777
194.799
194.799
194.777
194.73
194.651
194.525
194.328
194.003
193.422
192.199
188.982
103.772
104.016
104.222
104.391
104.526
104.63
104.707
104.761
104.796
104.812
104.812
104.795
104.761
104.707
104.629
104.525
104.391
104.221
104.015
103.772
111.353
112.086
112.703
113.208
113.608
113.916
114.144
114.304
114.405
114.454
114.453
114.404
114.303
114.143
113.915
113.607
113.206
112.702
112.084
111.352
119.044
120.271
121.298
122.129
122.783
123.282
123.649
123.905
124.066
124.144
124.144
124.066
123.904
123.647
123.28
122.781
122.127
121.295
120.269
119.042
126.927
128.658
130.087
131.228
132.113
132.779
133.265
133.601
133.811
133.912
133.912
133.81
133.6
133.263
132.777
132.11
131.225
130.084
128.655
126.924
135.099
137.346
139.163
140.583
141.661
142.458
143.031
143.422
143.666
143.782
143.782
143.665
143.421
143.029
142.456
141.658
140.579
139.16
137.342
135.096
143.686
146.463
148.637
150.279
151.489
152.362
152.977
153.392
153.647
153.769
153.768
153.646
153.39
152.975
152.36
151.486
150.275
148.633
146.46
143.682
152.868
156.185
158.642
160.407
161.653
162.525
163.123
163.521
163.763
163.877
163.877
163.762
163.519
163.122
162.522
161.651
160.404
158.639
156.181
152.865
162.942
166.765
169.341
171.052
172.194
172.959
173.471
173.805
174.006
174.1
174.1
174.005
173.804
173.47
172.957
172.191
171.05
169.338
166.762
162.939
174.494
178.59
180.905
182.267
183.109
183.648
183.998
184.222
184.356
184.418
184.418
184.355
184.221
183.997
183.646
183.107
182.266
180.903
178.589
174.491
188.983
192.199
193.421
194.003
194.327
194.525
194.651
194.73
194.777
194.799
194.799
194.777
194.729
194.65
194.525
194.327
194.002
193.421
192.198
188.981
103.772
104.016
104.222
104.391
104.526
104.63
104.707
104.761
104.796
104.812
104.812
104.795
104.761
104.707
104.629
104.525
104.391
104.221
104.015
103.772
111.353
112.086
112.703
113.208
113.608
113.916
114.144
114.304
114.405
114.454
114.453
114.404
114.303
114.143
113.915
113.607
113.206
112.702
112.084
111.352
119.044
120.271
121.298
122.129
122.783
123.282
123.649
123.905
124.066
124.144
124.144
124.066
123.904
123.647
123.28
122.781
122.127
121.295
120.269
119.042
126.927
128.658
130.087
131.228
132.113
132.779
133.265
133.601
133.811
133.912
133.912
133.81
133.6
133.263
132.777
132.11
131.225
130.084
128.655
126.924
135.099
137.346
139.163
140.583
141.661
142.458
143.031
143.422
143.666
143.782
143.782
143.665
143.421
143.029
142.456
141.658
140.579
139.16
137.342
135.096
143.686
146.463
148.637
150.279
151.489
152.362
152.977
153.392
153.647
153.769
153.768
153.646
153.39
152.975
152.36
151.486
150.275
148.633
146.46
143.682
152.868
156.185
158.642
160.407
161.653
162.525
163.123
163.521
163.763
163.877
163.877
163.762
163.519
163.122
162.522
161.651
160.404
158.639
156.181
152.865
162.942
166.765
169.341
171.052
172.194
172.959
173.471
173.805
174.006
174.1
174.1
174.005
173.804
173.47
172.957
172.191
171.05
169.338
166.762
162.939
174.494
178.59
180.905
182.267
183.109
183.648
183.998
184.222
184.356
184.418
184.418
184.355
184.221
183.997
183.646
183.107
182.266
180.903
178.589
174.491
188.983
192.199
193.421
194.003
194.327
194.525
194.651
194.73
194.777
194.799
194.799
194.777
194.729
194.65
194.525
194.327
194.002
193.421
192.198
188.981
103.772
104.016
104.222
104.391
104.526
104.63
104.707
104.761
104.796
104.813
104.813
104.796
104.761
104.707
104.63
104.526
104.391
104.222
104.016
103.772
111.353
112.086
112.704
113.208
113.608
113.916
114.144
114.304
114.405
114.454
114.454
114.405
114.304
114.144
113.916
113.608
113.207
112.703
112.086
111.353
119.044
120.272
121.298
122.129
122.783
123.282
123.649
123.905
124.067
124.145
124.144
124.066
123.905
123.648
123.281
122.782
122.128
121.296
120.27
119.043
126.927
128.658
130.087
131.228
132.113
132.78
133.265
133.601
133.812
133.913
133.913
133.811
133.6
133.264
132.778
132.111
131.226
130.085
128.656
126.926
135.099
137.346
139.163
140.583
141.661
142.459
143.031
143.423
143.666
143.783
143.783
143.666
143.422
143.03
142.457
141.659
140.581
139.161
137.344
135.097
143.686
146.464
148.637
150.279
151.489
152.363
152.978
153.393
153.648
153.77
153.769
153.647
153.391
152.976
152.361
151.487
150.277
148.635
146.461
143.684
152.868
156.185
158.643
160.407
161.654
162.525
163.124
163.522
163.764
163.878
163.878
163.763
163.521
163.123
162.524
161.652
160.405
158.64
156.183
152.866
162.942
166.765
169.341
171.053
172.194
172.96
173.472
173.806
174.007
174.101
174.101
174.006
173.805
173.471
172.959
172.193
171.051
169.34
166.763
162.94
174.494
178.591
180.905
182.268
183.109
183.648
183.999
184.223
184.356
184.419
184.419
184.356
184.222
183.998
183.648
183.109
182.267
180.905
178.59
174.493
188.983
192.199
193.422
194.003
194.328
194.525
194.651
194.73
194.777
194.799
194.799
194.777
194.73
194.651
194.525
194.328
194.003
193.422
192.199
188.982
103.493
103.182
102.844
102.487
102.117
101.738
101.354
100.968
100.581
100.194
110.51
109.57
108.552
107.475
106.358
105.217
104.064
102.904
101.742
100.581
117.624
116.038
114.318
112.503
110.624
108.71
106.779
104.841
102.904
100.968
124.906
122.638
120.18
117.593
114.926
112.22
109.499
106.779
104.064
101.354
132.436
129.429
126.173
122.761
119.268
115.744
112.22
108.711
105.218
101.738
140.312
136.469
132.321
128.011
123.64
119.269
114.927
110.626
106.359
102.117
148.658
143.815
138.631
133.322
128.012
122.763
117.595
112.505
107.477
102.488
157.64
151.501
145.067
138.633
132.325
126.177
120.185
114.322
108.554
102.845
167.459
159.481
151.503
143.82
136.475
129.436
122.644
116.043
109.574
103.183
178.222
167.462
157.645
148.666
140.321
132.446
124.915
117.631
110.515
103.495
103.492
103.181
102.844
102.487
102.116
101.737
101.353
100.967
100.58
100.193
110.509
109.569
108.551
107.474
106.357
105.216
104.062
102.903
101.741
100.58
117.623
116.036
114.317
112.501
110.623
108.709
106.777
104.84
102.903
100.967
124.905
122.637
120.179
117.591
114.925
112.218
109.498
106.777
104.062
101.353
132.434
129.427
126.171
122.759
119.266
115.743
112.219
108.709
105.217
101.737
140.31
136.467
132.319
128.009
123.638
119.267
114.926
110.624
106.358
102.116
148.656
143.813
138.629
133.32
128.011
122.762
117.593
112.503
107.475
102.487
157.638
151.499
145.065
138.631
132.323
126.175
120.183
114.32
108.553
102.844
167.458
159.479
151.501
143.818
136.473
129.434
122.643
116.041
109.572
103.182
178.221
167.46
157.643
148.664
140.319
132.444
124.913
117.63
110.513
103.494
103.492
103.181
102.844
102.487
102.116
101.737
101.353
100.967
100.58
100.193
110.509
109.569
108.551
107.474
106.357
105.216
104.062
102.903
101.741
100.58
117.623
116.036
114.317
112.501
110.623
108.709
106.777
104.84
102.903
100.967
124.905
122.637
120.179
117.591
114.925
112.218
109.498
106.777
104.062
101.353
132.434
129.427
126.171
122.759
119.266
115.743
112.219
108.709
105.217
101.737
140.31
136.467
132.319
128.009
123.638
119.267
114.926
110.624
106.358
102.116
148.656
143.813
138.629
133.32
128.011
122.762
117.593
112.503
107.475
102.487
157.638
151.499
145.065
138.631
132.323
126.175
120.183
114.32
108.553
102.844
167.458
159.479
151.501
143.818
136.473
129.434
122.643
116.041
109.572
103.182
178.221
167.46
157.643
148.664
140.319
132.444
124.913
117.63
110.513
103.494
103.493
103.182
102.844
102.487
102.117
101.738
101.354
100.968
100.581
100.194
110.51
109.57
108.552
107.475
106.358
105.217
104.064
102.904
101.742
100.581
117.624
116.038
114.318
112.503
110.624
108.71
106.779
104.841
102.904
100.968
124.906
122.638
120.18
117.593
114.926
112.22
109.499
106.779
104.064
101.354
132.436
129.429
126.173
122.761
119.268
115.744
112.22
108.711
105.218
101.738
140.312
136.469
132.321
128.011
123.64
119.269
114.927
110.626
106.359
102.117
148.658
143.815
138.631
133.322
128.012
122.763
117.595
112.505
107.477
102.488
157.64
151.501
145.067
138.633
132.325
126.177
120.185
114.322
108.554
102.845
167.459
159.481
151.503
143.82
136.475
129.436
122.644
116.043
109.574
103.183
178.222
167.462
157.645
148.666
140.321
132.446
124.915
117.631
110.515
103.495
188.985
174.499
162.95
152.879
143.698
135.111
126.938
119.053
111.359
103.775
192.202
178.599
166.777
156.2
146.48
137.363
128.673
120.284
112.094
104.019
193.426
180.917
169.358
158.664
148.66
139.186
130.108
121.315
112.715
104.226
194.009
182.283
171.076
160.436
150.311
140.615
131.257
122.152
113.223
104.397
194.335
183.13
172.226
161.694
151.533
141.705
132.152
122.815
113.629
104.533
194.536
183.677
173.004
162.58
152.423
142.519
132.834
123.325
113.944
104.64
194.665
184.038
173.532
163.199
153.06
143.114
133.34
123.708
114.182
104.72
194.749
184.276
173.888
163.625
153.506
143.536
133.703
123.986
114.356
104.779
194.803
184.43
174.12
163.905
153.804
143.822
133.951
124.177
114.476
104.82
194.834
184.52
174.257
164.073
153.984
143.996
134.104
124.295
114.55
104.846
194.848
184.559
174.317
164.147
154.064
144.074
134.173
124.35
114.585
104.858
194.845
184.55
174.305
164.134
154.053
144.065
134.167
124.346
114.583
104.857
194.824
184.492
174.219
164.033
153.949
143.969
134.086
124.285
114.545
104.844
194.783
184.376
174.048
163.832
153.742
143.777
133.924
124.163
114.47
104.819
194.713
184.182
173.767
163.508
153.415
143.476
133.672
123.974
114.354
104.78
194.598
183.872
173.333
163.022
152.935
143.045
133.316
123.711
114.193
104.726
194.404
183.376
172.674
162.316
152.263
142.457
132.841
123.364
113.982
104.655
194.046
182.559
171.674
161.312
151.352
141.686
132.232
122.926
113.719
104.567
193.266
181.144
170.158
159.915
150.154
140.71
131.481
122.395
113.403
104.462
191.142
178.601
167.906
158.049
148.649
139.53
130.594
121.778
113.039
104.342
188.984
174.497
162.948
152.876
143.696
135.109
126.936
119.051
111.358
103.774
192.201
178.596
166.774
156.197
146.478
137.361
128.671
120.282
112.093
104.018
193.424
180.914
169.356
158.661
148.658
139.184
130.106
121.313
112.713
104.225
194.007
182.28
171.073
160.433
150.309
140.612
131.255
122.15
113.221
104.396
194.333
183.128
172.223
161.691
151.53
141.702
132.15
122.812
113.627
104.532
194.534
183.674
173.001
162.577
152.42
142.516
132.832
123.323
113.942
104.639
194.663
184.035
173.529
163.196
153.058
143.111
133.337
123.706
114.18
104.719
194.747
184.273
173.885
163.622
153.503
143.533
133.7
123.984
114.354
104.778
194.801
184.427
174.117
163.902
153.801
143.819
133.948
124.174
114.474
104.819
194.832
184.517
174.254
164.07
153.981
143.993
134.101
124.293
114.548
104.845
194.846
184.555
174.313
164.143
154.061
144.071
134.171
124.347
114.583
104.857
194.842
184.547
174.301
164.13
154.049
144.062
134.164
124.343
114.581
104.856
194.822
184.489
174.216
164.03
153.945
143.966
134.083
124.282
114.543
104.843
194.78
184.372
174.044
163.829
153.739
143.774
133.921
124.16
114.468
104.818
194.71
184.178
173.763
163.504
153.411
143.473
133.669
123.972
114.352
104.778
194.595
183.868
173.329
163.018
152.931
143.042
133.313
123.708
114.19
104.724
194.402
183.372
172.67
162.312
152.26
142.454
132.838
123.361
113.98
104.654
194.043
182.555
171.67
161.308
151.348
141.682
132.229
122.924
113.717
104.566
193.263
181.14
170.153
159.911
150.15
140.707
131.477
122.393
113.401
104.461
191.139
178.597
167.902
158.045
148.645
139.527
130.591
121.775
113.036
104.341
188.984
174.497
162.948
152.876
143.696
135.109
126.936
119.051
111.358
103.774
192.201
178.596
166.774
156.197
146.478
137.361
128.671
120.282
112.093
104.018
193.424
180.914
169.356
158.661
148.658
139.184
130.106
121.313
112.713
104.225
194.007
182.28
171.073
160.433
150.309
140.612
131.255
122.15
113.221
104.396
194.333
183.128
172.223
161.691
151.53
141.702
132.15
122.812
113.627
104.532
194.534
183.674
173.001
162.577
152.42
142.516
132.832
123.323
113.942
104.639
194.663
184.035
173.529
163.196
153.058
143.111
133.337
123.706
114.18
104.719
194.747
184.273
173.885
163.622
153.503
143.533
133.7
123.984
114.354
104.778
194.801
184.427
174.117
163.902
153.801
143.819
133.948
124.174
114.474
104.819
194.832
184.517
174.254
164.07
153.981
143.993
134.101
124.293
114.548
104.845
194.846
184.555
174.313
164.143
154.061
144.071
134.171
124.347
114.583
104.857
194.842
184.547
174.301
164.13
154.049
144.062
134.164
124.343
114.581
104.856
194.822
184.489
174.216
164.03
153.945
143.966
134.083
124.282
114.543
104.843
194.78
184.372
174.044
163.829
153.739
143.774
133.921
124.16
114.468
104.818
194.71
184.178
173.763
163.504
153.411
143.473
133.669
123.972
114.352
104.778
194.595
183.868
173.329
163.018
152.931
143.042
133.313
123.708
114.19
104.724
194.402
183.372
172.67
162.312
152.26
142.454
132.838
123.361
113.98
104.654
194.043
182.555
171.67
161.308
151.348
141.682
132.229
122.924
113.717
104.566
193.263
181.14
170.153
159.911
150.15
140.707
131.477
122.393
113.401
104.461
191.139
178.597
167.902
158.045
148.645
139.527
130.591
121.775
113.036
104.341
188.985
174.499
162.95
152.879
143.698
135.111
126.938
119.053
111.359
103.775
192.202
178.599
166.777
156.2
146.48
137.363
128.673
120.284
112.094
104.019
193.426
180.917
169.358
158.664
148.66
139.186
130.108
121.315
112.715
104.226
194.009
182.283
171.076
160.436
150.311
140.615
131.257
122.152
113.223
104.397
194.335
183.13
172.226
161.694
151.533
141.705
132.152
122.815
113.629
104.533
194.536
183.677
173.004
162.58
152.423
142.519
132.834
123.325
113.944
104.64
194.665
184.038
173.532
163.199
153.06
143.114
133.34
123.708
114.182
104.72
194.749
184.276
173.888
163.625
153.506
143.536
133.703
123.986
114.356
104.779
194.803
184.43
174.12
163.905
153.804
143.822
133.951
124.177
114.476
104.82
194.834
184.52
174.257
164.073
153.984
143.996
134.104
124.295
114.55
104.846
194.848
184.559
174.317
164.147
154.064
144.074
134.173
124.35
114.585
104.858
194.845
184.55
174.305
164.134
154.053
144.065
134.167
124.346
114.583
104.857
194.824
184.492
174.219
164.033
153.949
143.969
134.086
124.285
114.545
104.844
194.783
184.376
174.048
163.832
153.742
143.777
133.924
124.163
114.47
104.819
194.713
184.182
173.767
163.508
153.415
143.476
133.672
123.974
114.354
104.78
194.598
183.872
173.333
163.022
152.935
143.045
133.316
123.711
114.193
104.726
194.404
183.376
172.674
162.316
152.263
142.457
132.841
123.364
113.982
104.655
194.046
182.559
171.674
161.312
151.352
141.686
132.232
122.926
113.719
104.567
193.266
181.144
170.157
159.915
150.154
140.71
131.481
122.395
113.403
104.462
191.142
178.601
167.906
158.049
148.649
139.53
130.594
121.778
113.039
104.342
183.843
174.221
164.83
155.738
146.877
138.18
129.597
121.092
112.637
104.209
177.379
169.629
161.473
153.216
144.959
136.732
128.535
120.364
112.212
104.07
172.127
165.467
158.241
150.716
143.034
135.271
127.463
119.63
111.783
103.929
167.899
161.901
155.338
148.399
141.217
133.876
126.433
118.922
111.369
103.793
164.505
158.937
152.844
146.358
139.586
132.61
125.49
118.271
110.988
103.667
161.815
156.539
150.783
144.638
138.191
131.514
124.668
117.701
110.652
103.556
159.74
154.669
149.152
143.258
137.059
130.618
123.991
117.228
110.373
103.464
158.226
153.294
147.942
142.226
136.205
129.937
123.474
116.867
110.159
103.394
157.235
152.39
147.143
141.54
135.635
129.481
123.127
116.624
110.014
103.346
156.745
151.943
146.746
141.198
135.35
129.252
122.954
116.502
109.942
103.327
183.84
174.218
164.826
155.735
146.874
138.177
129.594
121.089
112.634
104.208
177.375
169.626
161.47
153.212
144.956
136.728
128.532
120.361
112.209
104.068
172.124
165.464
158.238
150.712
143.031
135.268
127.459
119.627
111.781
103.927
167.896
161.898
155.335
148.396
141.214
133.873
126.429
118.919
111.367
103.791
164.503
158.934
152.841
146.355
139.583
132.607
125.486
118.268
110.984
103.665
161.812
156.537
150.78
144.635
138.188
131.511
124.664
117.697
110.648
103.554
159.738
154.666
149.149
143.255
137.056
130.614
123.987
117.224
110.369
103.462
158.223
153.291
147.939
142.223
136.202
129.933
123.47
116.862
110.154
103.39
157.232
152.388
147.14
141.537
135.632
129.477
123.123
116.618
110.008
103.341
156.742
151.94
146.743
141.195
135.347
129.248
122.949
116.497
109.936
103.321
183.84
174.218
164.826
155.735
146.874
138.177
129.594
121.089
112.634
104.208
177.375
169.626
161.47
153.212
144.956
136.728
128.532
120.361
112.209
104.068
172.123
165.464
158.238
150.712
143.031
135.268
127.459
119.627
111.781
103.927
167.896
161.898
155.335
148.396
141.214
133.873
126.429
118.919
111.367
103.791
164.503
158.934
152.841
146.355
139.583
132.607
125.486
118.268
110.985
103.665
161.812
156.537
150.78
144.635
138.188
131.511
124.664
117.697
110.648
103.554
159.738
154.666
149.149
143.255
137.056
130.614
123.987
117.224
110.369
103.462
158.223
153.291
147.939
142.223
136.202
129.933
123.47
116.862
110.154
103.39
157.232
152.387
147.14
141.537
135.632
129.477
123.123
116.618
110.008
103.341
156.742
151.94
146.743
141.195
135.347
129.248
122.949
116.497
109.936
103.321
183.843
174.221
164.83
155.738
146.877
138.18
129.597
121.092
112.637
104.209
177.379
169.629
161.473
153.216
144.959
136.732
128.535
120.364
112.212
104.07
172.127
165.467
158.241
150.716
143.034
135.271
127.463
119.63
111.783
103.929
167.899
161.901
155.338
148.399
141.217
133.876
126.433
118.922
111.369
103.793
164.505
158.937
152.844
146.358
139.586
132.61
125.49
118.271
110.988
103.667
161.815
156.539
150.782
144.638
138.191
131.514
124.668
117.701
110.652
103.556
159.74
154.669
149.151
143.258
137.059
130.618
123.991
117.228
110.373
103.464
158.226
153.293
147.941
142.226
136.205
129.937
123.474
116.867
110.159
103.394
157.235
152.39
147.142
141.54
135.635
129.481
123.128
116.624
110.014
103.346
156.745
151.943
146.745
141.198
135.35
129.252
122.954
116.502
109.942
103.327
192.641
195.44
196.62
197.257
197.659
197.933
198.125
198.256
198.338
198.378
198.378
198.339
198.257
198.126
197.935
197.661
197.26
196.623
195.443
192.643
183.933
187.948
190.412
192.013
193.112
193.889
194.442
194.823
195.064
195.181
195.182
195.066
194.826
194.446
193.894
193.118
192.019
190.418
187.953
183.937
177.784
182.025
185.083
187.291
188.905
190.089
190.949
191.551
191.933
192.12
192.121
191.936
191.556
190.956
190.097
188.914
187.301
185.093
182.034
177.792
173.084
177.314
180.632
183.194
185.157
186.644
187.748
188.53
189.031
189.277
189.278
189.036
188.537
187.758
186.657
185.171
183.21
180.648
177.33
173.099
169.391
173.553
176.978
179.738
181.925
183.626
184.911
185.833
186.429
186.723
186.725
186.435
185.843
184.925
183.643
181.945
179.76
177.001
173.577
169.415
166.488
170.576
174.036
176.904
179.232
181.077
182.492
183.517
184.185
184.515
184.517
184.193
183.53
182.51
181.1
179.258
176.934
174.069
170.61
166.523
164.258
168.279
171.744
174.668
177.081
179.021
180.524
181.623
182.342
182.699
182.702
182.352
181.639
180.547
179.049
177.115
174.707
171.787
168.325
164.306
162.631
166.6
170.058
173.009
175.472
177.47
179.031
180.179
180.934
181.309
181.313
180.946
180.199
179.059
177.505
175.513
173.057
170.111
166.657
162.691
161.565
165.499
168.948
171.912
174.401
176.434
178.029
179.206
179.983
180.37
180.375
179.996
179.229
178.06
176.473
174.449
171.967
169.009
165.565
161.636
161.037
164.953
168.396
171.365
173.867
175.914
177.525
178.717
179.504
179.897
179.902
179.519
178.741
177.559
175.957
173.918
171.425
168.463
165.025
161.115
192.644
195.442
196.622
197.258
197.66
197.934
198.125
198.256
198.338
198.378
198.378
198.339
198.257
198.126
197.934
197.66
197.258
196.622
195.441
192.641
183.936
187.951
190.414
192.015
193.114
193.891
194.443
194.824
195.064
195.181
195.181
195.065
194.825
194.445
193.893
193.116
192.018
190.415
187.951
183.934
177.787
182.028
185.085
187.294
188.906
190.091
190.951
191.552
191.934
192.12
192.121
191.936
191.555
190.955
190.096
188.912
187.299
185.091
182.032
177.789
173.088
177.317
180.635
183.197
185.159
186.646
187.749
188.531
189.032
189.277
189.278
189.035
188.536
187.757
186.655
185.169
183.208
180.646
177.327
173.096
169.394
173.556
176.98
179.74
181.927
183.628
184.913
185.834
186.43
186.723
186.724
186.435
185.842
184.924
183.642
181.943
179.758
176.999
173.575
169.412
166.491
170.578
174.039
176.906
179.234
181.079
182.493
183.518
184.185
184.515
184.517
184.192
183.529
182.508
181.098
179.257
176.932
174.067
170.607
166.521
164.261
168.282
171.747
174.67
177.083
179.022
180.525
181.623
182.342
182.699
182.702
182.351
181.638
180.545
179.048
177.113
174.705
171.785
168.323
164.303
162.634
166.603
170.06
173.012
175.474
177.472
179.032
180.18
180.934
181.309
181.313
180.945
180.198
179.057
177.504
175.512
173.055
170.108
166.655
162.689
161.568
165.501
168.95
171.914
174.403
176.435
178.03
179.207
179.983
180.37
180.375
179.996
179.228
178.059
176.472
174.447
171.965
169.007
165.563
161.633
161.04
164.955
168.398
171.367
173.868
175.916
177.526
178.718
179.504
179.897
179.902
179.518
178.74
177.558
175.956
173.916
171.423
168.461
165.023
161.112
192.644
195.442
196.622
197.258
197.66
197.934
198.125
198.256
198.338
198.378
198.378
198.339
198.257
198.126
197.934
197.66
197.258
196.622
195.441
192.641
183.936
187.951
190.414
192.015
193.113
193.891
194.443
194.824
195.064
195.181
195.181
195.065
194.825
194.445
193.893
193.116
192.018
190.415
187.951
183.934
177.787
182.028
185.085
187.294
188.906
190.091
190.951
191.552
191.934
192.12
192.121
191.936
191.555
190.955
190.096
188.912
187.299
185.091
182.032
177.789
173.088
177.317
180.635
183.197
185.159
186.646
187.749
188.531
189.032
189.277
189.278
189.035
188.536
187.757
186.655
185.169
183.208
180.646
177.327
173.096
169.394
173.556
176.98
179.74
181.927
183.628
184.913
185.834
186.43
186.723
186.724
186.435
185.842
184.924
183.642
181.943
179.758
176.999
173.574
169.412
166.491
170.578
174.039
176.906
179.234
181.079
182.493
183.518
184.185
184.515
184.517
184.192
183.529
182.508
181.098
179.257
176.932
174.066
170.607
166.521
164.261
168.282
171.747
174.67
177.083
179.022
180.525
181.623
182.342
182.699
182.702
182.351
181.638
180.545
179.048
177.113
174.705
171.785
168.322
164.303
162.634
166.603
170.06
173.012
175.474
177.472
179.032
180.18
180.934
181.309
181.313
180.945
180.198
179.057
177.504
175.512
173.055
170.108
166.655
162.688
161.568
165.501
168.95
171.914
174.403
176.435
178.03
179.207
179.983
180.37
180.375
179.996
179.228
178.059
176.472
174.447
171.965
169.007
165.563
161.633
161.04
164.955
168.399
171.367
173.868
175.916
177.527
178.718
179.504
179.897
179.902
179.518
178.741
177.558
175.956
173.917
171.423
168.461
165.023
161.112
192.641
195.44
196.62
197.257
197.659
197.933
198.125
198.256
198.338
198.378
198.378
198.339
198.257
198.126
197.935
197.661
197.26
196.623
195.443
192.643
183.933
187.948
190.412
192.013
193.112
193.889
194.442
194.823
195.064
195.181
195.181
195.066
194.826
194.446
193.894
193.118
192.019
190.418
187.953
183.937
177.784
182.025
185.083
187.291
188.905
190.089
190.949
191.551
191.933
192.12
192.121
191.936
191.556
190.956
190.097
188.914
187.301
185.093
182.034
177.792
173.084
177.314
180.632
183.194
185.157
186.644
187.748
188.53
189.031
189.277
189.278
189.036
188.537
187.758
186.657
185.171
183.21
180.648
177.33
173.099
169.391
173.553
176.978
179.738
181.925
183.626
184.911
185.833
186.429
186.723
186.725
186.435
185.843
184.925
183.643
181.945
179.76
177.001
173.577
169.415
166.488
170.575
174.036
176.904
179.232
181.077
182.492
183.517
184.185
184.515
184.517
184.192
183.53
182.509
181.1
179.258
176.934
174.069
170.61
166.523
164.258
168.279
171.744
174.668
177.081
179.021
180.524
181.622
182.342
182.699
182.702
182.352
181.639
180.546
179.049
177.115
174.707
171.787
168.325
164.305
162.631
166.6
170.058
173.009
175.472
177.47
179.031
180.179
180.934
181.309
181.313
180.945
180.199
179.058
177.505
175.513
173.057
170.11
166.657
162.691
161.565
165.498
168.948
171.912
174.401
176.434
178.029
179.206
179.983
180.37
180.375
179.997
179.229
178.06
176.473
174.449
171.967
169.009
165.565
161.636
161.037
164.953
168.396
171.365
173.867
175.914
177.525
178.717
179.504
179.897
179.902
179.519
178.741
177.559
175.957
173.918
171.425
168.463
165.025
161.115
104.21
112.639
121.096
129.604
138.188
146.886
155.746
164.836
174.225
183.843
104.07
112.213
120.368
128.541
136.739
144.967
153.222
161.477
169.631
177.377
103.928
111.784
119.632
127.466
135.275
143.038
150.718
158.241
165.464
172.121
103.792
111.368
118.921
126.432
133.875
141.214
148.394
155.33
161.891
167.886
103.665
110.984
118.266
125.483
132.601
139.574
146.343
152.826
158.916
164.483
103.553
110.645
117.69
124.654
131.496
138.168
144.611
150.752
156.506
161.78
103.459
110.362
117.211
123.967
130.587
137.023
143.217
149.106
154.622
159.692
103.387
110.144
116.842
123.44
129.894
136.155
142.17
147.882
153.232
158.164
103.338
109.996
116.59
123.081