/*--------------------------------*- C++ -*----------------------------------*\
| =========                 |                                                 |
| \\      /  F ield         | OpenFOAM: The Open Source CFD Toolbox           |
|  \\    /   O peration     | Version:  2.4.0                                 |
|   \\  /    A nd           | Web:      www.OpenFOAM.org                      |
|    \\/     M anipulation  |                                                 |
\*---------------------------------------------------------------------------*/
FoamFile
{
    version     2.0;
    format      ascii;
    class       volScalarField;
    location    "0.785";
    object      T;
}
// * * * * * * * * * * * * * * * * * * * * * * * * * * * * * * * * * * * * * //

dimensions      [0 0 0 1 0 0 0];

internalField   nonuniform List<scalar> 
1600
(
101.411
104.231
107.049
109.863
112.67
115.47
118.26
121.038
123.803
126.554
129.288
132.004
134.7
137.376
140.03
142.66
145.267
147.848
150.404
152.933
155.436
157.913
160.363
162.786
165.184
167.557
169.906
172.232
174.536
176.82
179.085
181.333
183.566
185.785
187.992
190.189
192.378
194.56
196.738
198.913
101.412
104.234
107.054
109.869
112.678
115.48
118.271
121.051
123.818
126.57
129.306
132.023
134.721
137.398
140.053
142.685
145.292
147.874
150.43
152.96
155.463
157.939
160.389
162.812
165.209
167.581
169.929
172.253
174.556
176.839
179.103
181.349
183.58
185.797
188.003
190.198
192.385
194.565
196.741
198.914
101.413
104.239
107.063
109.882
112.694
115.499
118.294
121.078
123.848
126.603
129.341
132.062
134.762
137.442
140.099
142.732
145.341
147.924
150.481
153.012
155.515
157.991
160.44
162.863
165.259
167.629
169.975
172.297
174.598
176.877
179.138
181.381
183.608
185.822
188.024
190.215
192.398
194.575
196.747
198.916
101.416
104.247
107.076
109.9
112.718
115.528
118.328
121.117
123.892
126.651
129.394
132.119
134.823
137.506
140.166
142.802
145.413
147.999
150.557
153.089
155.592
158.068
160.517
162.938
165.332
167.7
170.044
172.363
174.659
176.935
179.191
181.429
183.651
185.859
188.055
190.241
192.419
194.589
196.755
198.919
101.42
104.258
107.093
109.925
112.75
115.566
118.373
121.168
123.949
126.715
129.464
132.193
134.903
137.59
140.254
142.894
145.508
148.096
150.657
153.189
155.694
158.17
160.618
163.037
165.429
167.795
170.134
172.449
174.741
177.011
179.261
181.493
183.708
185.909
188.098
190.276
192.446
194.609
196.767
198.923
101.424
104.271
107.115
109.955
112.789
115.614
118.429
121.232
124.021
126.794
129.549
132.286
135.001
137.694
140.363
143.008
145.626
148.217
150.779
153.314
155.819
158.295
160.742
163.16
165.55
167.912
170.247
172.557
174.843
177.106
179.349
181.573
183.78
185.972
188.151
190.32
192.48
194.633
196.782
198.928
101.429
104.286
107.141
109.992
112.835
115.671
118.495
121.308
124.106
126.887
129.651
132.395
135.118
137.817
140.493
143.142
145.765
148.359
150.925
153.461
155.968
158.444
160.89
163.306
165.693
168.051
170.381
172.685
174.964
177.22
179.454
181.668
183.865
186.047
188.216
190.373
192.521
194.663
196.8
198.934
101.435
104.305
107.172
110.034
112.89
115.736
118.572
121.395
124.204
126.996
129.769
132.522
135.253
137.96
140.642
143.297
145.925
148.524
151.093
153.631
156.139
158.615
161.061
163.475
165.859
168.212
170.537
172.835
175.106
177.352
179.577
181.78
183.966
186.135
188.291
190.435
192.57
194.698
196.82
198.941
101.442
104.325
107.206
110.082
112.951
115.811
118.66
121.495
124.316
127.119
129.903
132.665
135.405
138.121
140.81
143.473
146.106
148.709
151.282
153.823
156.333
158.809
161.254
163.666
166.046
168.395
170.714
173.004
175.267
177.503
179.716
181.908
184.08
186.236
188.377
190.506
192.625
194.737
196.844
198.948
101.45
104.349
107.245
110.136
113.02
115.895
118.758
121.607
124.441
127.256
130.052
132.826
135.576
138.301
140.999
143.668
146.308
148.916
151.493
154.037
156.548
159.025
161.468
163.878
166.255
168.599
170.911
173.193
175.446
177.672
179.873
182.051
184.209
186.349
188.474
190.586
192.688
194.782
196.871
198.957
101.459
104.375
107.288
110.197
113.098
115.988
118.867
121.732
124.58
127.409
130.218
133.003
135.765
138.499
141.206
143.883
146.53
149.144
151.725
154.271
156.784
159.261
161.704
164.111
166.484
168.822
171.128
173.402
175.645
177.859
180.047
182.211
184.353
186.475
188.582
190.675
192.758
194.832
196.902
198.968
101.468
104.404
107.336
110.263
113.183
116.092
118.988
121.869
124.733
127.577
130.399
133.198
135.971
138.717
141.433
144.119
146.772
149.392
151.977
154.527
157.041
159.518
161.959
164.364
166.733
169.066
171.364
173.629
175.861
178.064
180.238
182.386
184.51
186.615
188.701
190.774
192.835
194.888
196.935
198.979
101.479
104.435
107.389
110.337
113.276
116.205
119.12
122.019
124.9
127.76
130.598
133.411
136.197
138.954
141.68
144.374
147.035
149.66
152.25
154.803
157.318
159.795
162.235
164.637
167.001
169.328
171.619
173.874
176.096
178.285
180.445
182.576
184.682
186.767
188.832
190.882
192.92
194.949
196.972
198.991
101.491
104.47
107.447
110.417
113.379
116.328
119.264
122.183
125.083
127.96
130.814
133.642
136.441
139.21
141.947
144.65
147.318
149.95
152.544
155.1
157.616
160.094
162.531
164.93
167.289
169.61
171.892
174.138
176.348
178.524
180.668
182.782
184.869
186.932
188.975
191.001
193.013
195.016
197.012
199.004
101.503
104.508
107.51
110.505
113.491
116.464
119.422
122.362
125.281
128.178
131.049
133.893
136.706
139.488
142.236
144.949
147.625
150.262
152.861
155.419
157.937
160.414
162.85
165.244
167.598
169.911
172.185
174.42
176.618
178.779
180.907
183.003
185.07
187.111
189.129
191.129
193.114
195.088
197.056
199.019
101.517
104.55
107.579
110.601
113.613
116.611
119.593
122.556
125.498
128.415
131.304
134.165
136.994
139.789
142.549
145.271
147.955
150.599
153.202
155.763
158.282
160.758
163.191
165.582
167.929
170.235
172.499
174.722
176.907
179.053
181.164
183.24
185.286
187.304
189.296
191.268
193.224
195.167
197.104
199.035
101.533
104.596
107.655
110.706
113.746
116.772
119.78
122.768
125.733
128.672
131.581
134.46
137.305
140.114
142.886
145.619
148.312
150.962
153.57
156.134
158.654
161.129
163.559
165.945
168.286
170.583
172.836
175.047
177.217
179.347
181.439
183.495
185.518
187.51
189.476
191.418
193.342
195.253
197.155
199.052
101.549
104.645
107.737
110.821
113.892
116.948
119.985
123
125.99
128.951
131.882
134.78
137.643
140.467
143.253
145.996
148.698
151.355
153.968
156.535
159.055
161.529
163.956
166.337
168.67
170.958
173.2
175.397
177.551
179.663
181.735
183.769
185.767
187.733
189.669
191.58
193.471
195.345
197.211
199.07
101.567
104.7
107.828
110.946
114.052
117.14
120.208
123.252
126.269
129.256
132.21
135.129
138.01
140.851
143.65
146.406
149.117
151.781
154.399
156.969
159.491
161.963
164.387
166.761
169.087
171.364
173.594
175.776
177.913
180.005
182.054
184.064
186.035
187.972
189.878
191.755
193.609
195.446
197.272
199.09
101.588
104.76
107.927
111.084
114.227
117.351
120.452
123.528
126.575
129.589
132.568
135.509
138.41
141.269
144.083
146.851
149.572
152.245
154.868
157.441
159.964
162.435
164.855
167.223
169.54
171.806
174.021
176.187
178.305
180.375
182.401
184.383
186.326
188.231
190.103
191.944
193.76
195.555
197.339
199.112
101.61
104.826
108.037
111.236
114.419
117.582
120.721
123.831
126.91
129.954
132.96
135.925
138.847
141.724
144.554
147.336
150.068
152.75
155.379
157.956
160.479
162.948
165.364
167.725
170.033
172.286
174.487
176.635
178.732
180.779
182.778
184.731
186.642
188.512
190.347
192.149
193.923
195.674
197.411
199.136
101.634
104.899
108.158
111.403
114.631
117.836
121.015
124.164
127.277
130.353
133.388
136.38
139.325
142.222
145.07
147.866
150.61
153.3
155.936
158.516
161.041
163.508
165.919
168.273
170.57
172.811
174.995
177.123
179.198
181.219
183.19
185.111
186.986
188.819
190.612
192.372
194.1
195.803
197.489
199.162
101.661
104.98
108.291
111.587
114.865
118.117
121.34
124.53
127.681
130.792
133.859
136.878
139.848
142.767
145.634
148.446
151.202
153.902
156.544
159.129
161.654
164.12
166.526
168.872
171.157
173.383
175.55
177.658
179.708
181.701
183.64
185.527
187.364
189.154
190.903
192.615
194.293
195.944
197.576
199.191
101.691
105.07
108.439
111.792
115.123
118.427
121.699
124.933
128.127
131.275
134.376
137.425
140.423
143.365
146.251
149.08
151.849
154.56
157.209
159.798
162.324
164.787
167.188
169.525
171.799
174.01
176.157
178.242
180.266
182.229
184.134
185.983
187.778
189.523
191.223
192.882
194.506
196.099
197.671
199.222
101.724
105.169
108.603
112.019
115.41
118.771
122.095
125.379
128.618
131.807
134.944
138.027
141.053
144.02
146.927
149.774
152.558
155.279
157.936
160.528
163.056
165.517
167.912
170.24
172.501
174.695
176.822
178.882
180.878
182.809
184.677
186.484
188.234
189.929
191.575
193.176
194.739
196.269
197.775
199.257
101.761
105.28
108.785
112.271
115.728
119.152
122.535
125.872
129.16
132.394
135.571
138.688
141.745
144.739
147.669
150.533
153.332
156.065
158.73
161.327
163.855
166.313
168.702
171.02
173.268
175.444
177.549
179.584
181.549
183.445
185.273
187.036
188.736
190.377
191.964
193.502
194.997
196.457
197.891
199.295
101.803
105.403
108.989
112.552
116.083
119.575
123.022
126.419
129.759
133.041
136.261
139.416
142.505
145.527
148.481
151.365
154.179
156.924
159.597
162.198
164.727
167.183
169.565
171.873
174.106
176.263
178.346
180.353
182.286
184.144
185.93
187.645
189.291
190.873
192.395
193.863
195.284
196.666
198.019
199.338
101.849
105.542
109.218
112.866
116.479
120.047
123.564
127.024
130.423
133.756
137.021
140.216
143.34
146.391
149.37
152.274
155.105
157.861
160.543
163.148
165.678
168.131
170.506
172.803
175.021
177.159
179.218
181.196
183.094
184.913
186.653
188.316
189.905
191.422
192.873
194.264
195.603
196.898
198.161
199.385
101.901
105.698
109.474
113.219
116.922
120.574
124.168
127.697
131.157
134.545
137.859
141.096
144.256
147.338
150.342
153.268
156.115
158.884
161.573
164.184
166.714
169.163
171.531
173.817
176.019
178.137
180.171
182.119
183.981
185.758
187.45
189.058
190.584
192.032
193.405
194.712
195.96
197.159
198.32
199.438
101.96
105.874
109.763
113.616
117.419
121.163
124.84
128.444
131.971
135.417
138.782
142.063
145.261
148.375
151.405
154.352
157.216
159.997
162.695
165.31
167.841
170.287
172.647
174.921
177.107
179.205
181.212
183.129
184.954
186.687
188.328
189.877
191.337
192.709
193.999
195.213
196.36
197.451
198.499
199.498
102.028
106.073
110.091
114.064
117.979
121.824
125.591
129.276
132.873
136.381
139.798
143.125
146.361
149.507
152.565
155.533
158.414
161.208
163.914
166.533
169.064
171.506
173.859
176.121
178.291
180.368
182.349
184.234
186.021
187.708
189.296
190.784
192.173
193.465
194.664
195.776
196.811
197.782
198.701
199.566
102.105
106.302
110.465
114.573
118.611
122.567
126.432
130.202
133.873
137.444
140.916
144.289
147.564
150.743
153.827
156.818
159.716
162.521
165.236
167.859
170.39
172.829
175.174
177.424
179.578
181.633
183.588
185.441
187.189
188.831
190.364
191.788
193.103
194.309
195.41
196.411
197.322
198.157
198.931
199.644
102.194
106.566
110.895
115.155
119.329
123.405
127.374
131.233
134.981
138.618
142.145
145.564
148.879
152.09
155.2
158.212
161.126
163.943
166.666
169.292
171.824
174.259
176.596
178.835
180.973
183.008
184.937
186.758
188.468
190.064
191.542
192.901
194.139
195.255
196.251
197.131
197.904
198.588
199.194
199.734
102.298
106.874
111.394
115.825
120.149
124.354
128.432
132.384
136.21
139.912
143.493
146.959
150.311
153.553
156.689
159.72
162.65
165.479
168.209
170.839
173.371
175.802
178.133
180.36
182.483
184.499
186.403
188.194
189.867
191.417
192.842
194.136
195.295
196.318
197.203
197.953
198.575
199.086
199.5
199.84
102.424
107.241
111.981
116.605
121.092
125.432
129.623
133.668
137.571
141.337
144.971
148.48
151.868
155.14
158.299
161.349
164.294
167.133
169.87
172.504
175.035
177.464
179.788
182.005
184.115
186.112
187.994
189.756
191.394
192.902
194.275
195.506
196.589
197.517
198.288
198.899
199.355
199.672
199.864
199.968
102.577
107.687
112.684
117.521
122.182
126.662
130.966
135.102
139.078
142.904
146.587
150.136
153.556
156.855
160.036
163.103
166.061
168.91
171.653
174.29
176.822
179.248
181.566
183.775
185.872
187.854
189.716
191.453
193.06
194.53
195.855
197.027
198.037
198.874
199.53
199.997
200.273
200.373
200.304
200.125
102.776
108.25
113.544
118.613
123.452
128.07
132.481
136.701
140.744
144.623
148.349
151.933
155.383
158.705
161.904
164.987
167.956
170.814
173.562
176.203
178.735
181.159
183.473
185.676
187.763
189.731
191.577
193.293
194.874
196.311
197.596
198.717
199.662
200.415
200.962
201.287
201.374
201.232
200.847
200.32
103.049
108.993
114.623
119.929
124.939
129.683
134.189
138.481
142.58
146.504
150.266
153.88
157.353
160.694
163.909
167.004
169.983
172.848
175.602
178.246
180.78
183.203
185.515
187.712
189.792
191.751
193.584
195.285
196.846
198.258
199.511
200.592
201.484
202.169
202.623
202.819
202.722
202.318
201.553
200.581
103.508
110.033
115.998
121.525
126.684
131.531
136.111
140.458
144.601
148.558
152.348
155.983
159.474
162.83
166.058
169.163
172.15
175.021
177.78
180.426
182.962
185.386
187.696
189.891
191.968
193.921
195.746
197.437
198.985
200.38
201.612
202.665
203.521
204.158
204.545
204.646
204.401
203.755
202.566
201.02
104.356
111.617
117.857
123.533
128.783
133.689
138.308
142.685
146.85
150.825
154.629
158.276
161.777
165.141
168.375
171.486
174.477
177.352
180.113
182.762
185.299
187.723
190.033
192.227
194.301
196.251
198.072
199.758
201.299
202.685
203.905
204.943
205.779
206.389
206.739
206.788
206.46
205.677
204.195
202.07
)
;

boundaryField
{
    carasuperior
    {
        type            fixedGradient;
        gradient        uniform 100;
    }
    lateralizquierda
    {
        type            fixedValue;
        value           uniform 100;
    }
    lateralderecha
    {
        type            fixedValue;
        value           uniform 200;
    }
    carainferior
    {
        type            zeroGradient;
    }
    frontAndBack
    {
        type            empty;
    }
}


// ************************************************************************* //
