/*--------------------------------*- C++ -*----------------------------------*\
| =========                 |                                                 |
| \\      /  F ield         | OpenFOAM: The Open Source CFD Toolbox           |
|  \\    /   O peration     | Version:  2.4.0                                 |
|   \\  /    A nd           | Web:      www.OpenFOAM.org                      |
|    \\/     M anipulation  |                                                 |
\*---------------------------------------------------------------------------*/
FoamFile
{
    version     2.0;
    format      ascii;
    class       volScalarField;
    location    "0.0084";
    object      T;
}
// * * * * * * * * * * * * * * * * * * * * * * * * * * * * * * * * * * * * * //

dimensions      [0 0 0 1 0 0 0];

internalField   nonuniform List<scalar> 
4800
(
100.194
100.581
100.968
101.354
101.738
102.117
102.487
102.844
103.182
103.493
100.581
101.742
102.903
104.063
105.217
106.359
107.475
108.552
109.571
110.511
100.968
102.903
104.841
106.778
108.71
110.625
112.503
114.319
116.039
117.626
101.354
104.063
106.779
109.499
112.22
114.927
117.593
120.182
122.64
124.908
101.738
105.218
108.711
112.221
115.745
119.269
122.762
126.174
129.431
132.439
102.117
106.359
110.625
114.928
119.269
123.641
128.012
132.323
136.471
140.314
102.488
107.476
112.504
117.595
122.764
128.013
133.323
138.633
143.817
148.66
102.845
108.554
114.321
120.184
126.177
132.325
138.634
145.068
151.502
157.641
103.182
109.573
116.042
122.644
129.435
136.475
143.82
151.504
159.482
167.46
103.494
110.514
117.631
124.915
132.445
140.321
148.666
157.645
167.462
178.222
100.194
100.581
100.968
101.354
101.738
102.117
102.487
102.844
103.182
103.493
100.581
101.742
102.903
104.063
105.217
106.359
107.475
108.552
109.571
110.511
100.968
102.903
104.841
106.779
108.71
110.625
112.503
114.319
116.039
117.626
101.354
104.063
106.779
109.499
112.22
114.927
117.593
120.182
122.64
124.908
101.738
105.218
108.711
112.221
115.745
119.269
122.762
126.174
129.431
132.438
102.117
106.359
110.625
114.928
119.269
123.641
128.012
132.323
136.471
140.314
102.488
107.476
112.505
117.595
122.764
128.013
133.323
138.633
143.817
148.66
102.845
108.554
114.321
120.185
126.177
132.325
138.634
145.068
151.502
157.641
103.183
109.573
116.043
122.644
129.436
136.476
143.82
151.504
159.482
167.46
103.494
110.515
117.631
124.915
132.446
140.321
148.666
157.646
167.463
178.223
100.194
100.581
100.968
101.354
101.738
102.117
102.487
102.844
103.182
103.493
100.581
101.742
102.903
104.063
105.217
106.359
107.475
108.552
109.571
110.511
100.968
102.903
104.841
106.779
108.71
110.625
112.503
114.319
116.039
117.626
101.354
104.063
106.779
109.499
112.22
114.927
117.593
120.182
122.64
124.908
101.738
105.218
108.711
112.221
115.745
119.269
122.762
126.174
129.431
132.438
102.117
106.359
110.625
114.928
119.269
123.641
128.012
132.323
136.471
140.314
102.488
107.476
112.505
117.595
122.764
128.013
133.323
138.633
143.817
148.66
102.845
108.554
114.321
120.185
126.177
132.325
138.634
145.068
151.502
157.641
103.183
109.573
116.043
122.644
129.436
136.476
143.82
151.504
159.482
167.46
103.494
110.515
117.631
124.915
132.446
140.321
148.666
157.646
167.463
178.223
100.194
100.581
100.968
101.354
101.738
102.117
102.487
102.844
103.182
103.493
100.581
101.742
102.903
104.063
105.217
106.359
107.475
108.552
109.571
110.511
100.968
102.903
104.841
106.778
108.71
110.625
112.503
114.319
116.039
117.626
101.354
104.063
106.779
109.499
112.22
114.927
117.593
120.182
122.64
124.908
101.738
105.218
108.711
112.221
115.745
119.269
122.762
126.174
129.431
132.439
102.117
106.359
110.625
114.928
119.269
123.641
128.012
132.323
136.471
140.314
102.488
107.476
112.504
117.595
122.764
128.013
133.323
138.633
143.817
148.66
102.845
108.554
114.321
120.184
126.177
132.325
138.634
145.068
151.502
157.641
103.182
109.573
116.042
122.644
129.435
136.475
143.82
151.504
159.482
167.46
103.494
110.514
117.631
124.915
132.445
140.321
148.666
157.645
167.462
178.222
103.773
104.016
104.222
104.391
104.526
104.63
104.707
104.762
104.796
104.813
104.813
104.796
104.761
104.707
104.63
104.526
104.391
104.222
104.016
103.773
111.354
112.087
112.704
113.208
113.609
113.916
114.144
114.304
114.405
114.454
114.454
114.405
114.304
114.144
113.916
113.608
113.208
112.703
112.086
111.353
119.045
120.272
121.298
122.13
122.784
123.283
123.65
123.906
124.067
124.145
124.145
124.067
123.905
123.649
123.281
122.782
122.128
121.297
120.271
119.044
126.928
128.659
130.088
131.229
132.114
132.78
133.266
133.602
133.812
133.914
133.913
133.812
133.601
133.265
132.779
132.112
131.227
130.086
128.657
126.927
135.1
137.347
139.164
140.584
141.662
142.459
143.032
143.423
143.667
143.783
143.783
143.666
143.422
143.03
142.457
141.66
140.581
139.162
137.345
135.098
143.687
146.465
148.638
150.28
151.49
152.363
152.978
153.393
153.649
153.77
153.77
153.648
153.392
152.977
152.361
151.488
150.278
148.636
146.462
143.685
152.869
156.186
158.644
160.408
161.655
162.526
163.125
163.522
163.764
163.879
163.878
163.763
163.521
163.123
162.524
161.653
160.406
158.641
156.184
152.867
162.943
166.766
169.342
171.053
172.195
172.96
173.473
173.806
174.007
174.102
174.101
174.007
173.806
173.472
172.959
172.193
171.052
169.34
166.764
162.941
174.495
178.591
180.906
182.268
183.11
183.649
183.999
184.223
184.357
184.419
184.419
184.356
184.223
183.998
183.648
183.109
182.267
180.905
178.591
174.494
188.984
192.199
193.422
194.004
194.328
194.526
194.651
194.73
194.777
194.799
194.799
194.777
194.73
194.651
194.525
194.328
194.003
193.422
192.199
188.983
103.773
104.016
104.222
104.391
104.526
104.63
104.707
104.761
104.796
104.812
104.812
104.796
104.761
104.707
104.629
104.525
104.391
104.222
104.016
103.772
111.354
112.086
112.704
113.208
113.608
113.916
114.144
114.304
114.405
114.454
114.454
114.405
114.303
114.143
113.915
113.607
113.207
112.702
112.085
111.352
119.045
120.272
121.298
122.13
122.783
123.282
123.649
123.905
124.067
124.144
124.144
124.066
123.904
123.648
123.28
122.781
122.127
121.296
120.27
119.043
126.928
128.659
130.087
131.228
132.113
132.78
133.265
133.601
133.812
133.913
133.913
133.811
133.6
133.264
132.778
132.111
131.226
130.084
128.656
126.925
135.1
137.347
139.164
140.583
141.661
142.459
143.031
143.423
143.666
143.783
143.782
143.665
143.421
143.029
142.456
141.658
140.58
139.16
137.343
135.097
143.687
146.464
148.638
150.28
151.489
152.363
152.978
153.392
153.648
153.769
153.769
153.647
153.391
152.976
152.36
151.486
150.276
148.634
146.461
143.684
152.869
156.186
158.643
160.407
161.654
162.525
163.124
163.521
163.763
163.878
163.877
163.762
163.52
163.122
162.523
161.651
160.404
158.64
156.182
152.866
162.943
166.765
169.342
171.053
172.194
172.96
173.472
173.805
174.006
174.101
174.1
174.006
173.804
173.47
172.958
172.192
171.05
169.339
166.762
162.94
174.495
178.591
180.906
182.268
183.109
183.648
183.998
184.222
184.356
184.418
184.418
184.355
184.222
183.997
183.647
183.108
182.266
180.904
178.589
174.492
188.984
192.199
193.422
194.003
194.328
194.525
194.651
194.73
194.777
194.799
194.799
194.777
194.73
194.65
194.525
194.327
194.003
193.421
192.198
188.982
103.773
104.016
104.222
104.391
104.526
104.63
104.707
104.761
104.796
104.812
104.812
104.796
104.761
104.707
104.629
104.525
104.391
104.222
104.016
103.772
111.354
112.086
112.704
113.208
113.608
113.916
114.144
114.304
114.405
114.454
114.454
114.405
114.303
114.143
113.915
113.607
113.207
112.702
112.085
111.352
119.045
120.272
121.298
122.13
122.783
123.282
123.649
123.905
124.067
124.144
124.144
124.066
123.904
123.648
123.28
122.781
122.127
121.296
120.27
119.043
126.928
128.659
130.087
131.228
132.113
132.78
133.265
133.601
133.812
133.913
133.913
133.811
133.6
133.264
132.778
132.111
131.226
130.084
128.656
126.925
135.1
137.347
139.164
140.583
141.661
142.459
143.031
143.423
143.666
143.783
143.782
143.665
143.421
143.029
142.456
141.658
140.58
139.16
137.343
135.097
143.687
146.464
148.638
150.28
151.489
152.363
152.978
153.392
153.648
153.769
153.769
153.647
153.391
152.976
152.36
151.486
150.276
148.634
146.461
143.684
152.869
156.186
158.643
160.407
161.654
162.525
163.124
163.521
163.763
163.878
163.877
163.762
163.52
163.122
162.523
161.651
160.404
158.64
156.182
152.866
162.943
166.765
169.342
171.053
172.194
172.96
173.472
173.805
174.006
174.101
174.1
174.006
173.804
173.47
172.958
172.192
171.05
169.339
166.762
162.94
174.495
178.591
180.906
182.268
183.109
183.648
183.998
184.222
184.356
184.418
184.418
184.355
184.222
183.997
183.647
183.108
182.266
180.904
178.589
174.492
188.984
192.199
193.422
194.003
194.328
194.525
194.651
194.73
194.777
194.799
194.799
194.777
194.73
194.65
194.525
194.327
194.003
193.421
192.198
188.982
103.773
104.016
104.222
104.391
104.526
104.63
104.707
104.762
104.796
104.813
104.813
104.796
104.761
104.707
104.63
104.526
104.391
104.222
104.016
103.773
111.354
112.087
112.704
113.208
113.609
113.916
114.144
114.304
114.405
114.454
114.454
114.405
114.304
114.144
113.916
113.608
113.208
112.703
112.086
111.353
119.045
120.272
121.298
122.13
122.784
123.283
123.65
123.906
124.067
124.145
124.145
124.067
123.905
123.649
123.281
122.782
122.128
121.297
120.271
119.044
126.928
128.659
130.088
131.229
132.114
132.78
133.266
133.602
133.812
133.914
133.913
133.812
133.601
133.265
132.779
132.112
131.227
130.086
128.657
126.927
135.1
137.347
139.164
140.584
141.662
142.459
143.032
143.423
143.667
143.783
143.783
143.666
143.422
143.03
142.457
141.66
140.581
139.162
137.345
135.098
143.687
146.465
148.638
150.28
151.49
152.363
152.978
153.393
153.649
153.77
153.77
153.648
153.392
152.977
152.361
151.488
150.278
148.636
146.462
143.685
152.869
156.186
158.644
160.408
161.655
162.526
163.125
163.522
163.764
163.879
163.878
163.763
163.521
163.123
162.524
161.653
160.406
158.641
156.184
152.867
162.943
166.766
169.342
171.053
172.195
172.96
173.473
173.806
174.007
174.102
174.101
174.007
173.806
173.472
172.959
172.193
171.052
169.34
166.764
162.941
174.495
178.591
180.906
182.268
183.11
183.649
183.999
184.223
184.357
184.419
184.419
184.356
184.223
183.998
183.648
183.109
182.267
180.905
178.591
174.494
188.984
192.199
193.422
194.004
194.328
194.526
194.651
194.73
194.777
194.799
194.799
194.777
194.73
194.651
194.525
194.328
194.003
193.422
192.199
188.983
103.493
103.182
102.845
102.488
102.117
101.738
101.354
100.968
100.581
100.194
110.511
109.571
108.553
107.476
106.359
105.218
104.064
102.904
101.743
100.581
117.625
116.039
114.319
112.503
110.625
108.711
106.779
104.842
102.904
100.968
124.907
122.639
120.182
117.594
114.927
112.221
109.5
106.779
104.064
101.354
132.437
129.43
126.174
122.762
119.269
115.745
112.221
108.711
105.218
101.738
140.313
136.471
132.323
128.013
123.642
119.27
114.929
110.627
106.36
102.117
148.659
143.816
138.633
133.324
128.014
122.765
117.597
112.506
107.477
102.488
157.641
151.503
145.069
138.636
132.327
126.179
120.186
114.323
108.555
102.845
167.461
159.483
151.506
143.822
136.478
129.438
122.647
116.045
109.575
103.183
178.223
167.464
157.648
148.669
140.324
132.449
124.918
117.633
110.516
103.495
103.492
103.181
102.844
102.487
102.116
101.737
101.353
100.967
100.58
100.193
110.509
109.57
108.551
107.474
106.358
105.217
104.063
102.903
101.741
100.58
117.624
116.037
114.318
112.502
110.624
108.709
106.778
104.84
102.903
100.967
124.905
122.638
120.18
117.592
114.926
112.219
109.499
106.778
104.063
101.353
132.436
129.429
126.173
122.761
119.268
115.744
112.22
108.71
105.217
101.737
140.311
136.469
132.321
128.011
123.64
119.269
114.927
110.625
106.359
102.117
148.658
143.815
138.631
133.322
128.013
122.763
117.595
112.504
107.476
102.487
157.639
151.501
145.067
138.634
132.325
126.177
120.185
114.321
108.554
102.845
167.459
159.481
151.504
143.82
136.476
129.436
122.645
116.043
109.573
103.182
178.222
167.462
157.646
148.667
140.322
132.447
124.916
117.632
110.515
103.494
103.492
103.181
102.844
102.487
102.116
101.737
101.353
100.967
100.58
100.193
110.509
109.57
108.551
107.474
106.358
105.217
104.063
102.903
101.741
100.58
117.624
116.037
114.318
112.502
110.624
108.709
106.778
104.84
102.903
100.967
124.905
122.638
120.18
117.592
114.926
112.219
109.499
106.778
104.063
101.353
132.436
129.429
126.173
122.761
119.268
115.744
112.22
108.71
105.217
101.737
140.311
136.469
132.321
128.011
123.64
119.269
114.927
110.625
106.359
102.117
148.658
143.815
138.631
133.322
128.013
122.763
117.595
112.504
107.476
102.487
157.639
151.501
145.067
138.634
132.325
126.177
120.185
114.321
108.554
102.845
167.459
159.481
151.504
143.82
136.476
129.436
122.645
116.043
109.573
103.182
178.222
167.462
157.646
148.667
140.322
132.447
124.916
117.632
110.515
103.494
103.493
103.182
102.845
102.488
102.117
101.738
101.354
100.968
100.581
100.194
110.511
109.571
108.553
107.476
106.359
105.218
104.064
102.904
101.743
100.581
117.625
116.039
114.319
112.503
110.625
108.711
106.779
104.842
102.904
100.968
124.907
122.639
120.182
117.594
114.927
112.221
109.5
106.779
104.064
101.354
132.437
129.43
126.174
122.762
119.269
115.745
112.221
108.711
105.218
101.738
140.313
136.471
132.323
128.013
123.642
119.27
114.929
110.627
106.36
102.117
148.659
143.816
138.633
133.324
128.014
122.765
117.597
112.506
107.477
102.488
157.641
151.503
145.069
138.636
132.327
126.179
120.186
114.323
108.555
102.845
167.461
159.483
151.506
143.822
136.478
129.438
122.647
116.045
109.575
103.183
178.223
167.464
157.648
148.669
140.324
132.449
124.918
117.633
110.516
103.495
188.986
174.501
162.953
152.882
143.702
135.115
126.941
119.056
111.361
103.775
192.203
178.601
166.78
156.204
146.485
137.367
128.677
120.287
112.096
104.02
193.427
180.919
169.362
158.669
148.666
139.192
130.113
121.318
112.717
104.227
194.01
182.286
171.081
160.442
150.318
140.621
131.263
122.157
113.226
104.398
194.337
183.134
172.232
161.701
151.542
141.713
132.16
122.821
113.633
104.534
194.537
183.682
173.012
162.59
152.434
142.53
132.844
123.333
113.949
104.641
194.667
184.044
173.542
163.212
153.075
143.128
133.352
123.718
114.188
104.723
194.752
184.285
173.901
163.641
153.524
143.554
133.719
123.999
114.364
104.782
194.807
184.441
174.137
163.927
153.828
143.845
133.972
124.194
114.487
104.824
194.839
184.534
174.279
164.101
154.014
144.026
134.131
124.317
114.564
104.851
194.854
184.577
174.345
164.183
154.104
144.114
134.209
124.377
114.603
104.864
194.853
184.574
174.342
164.181
154.104
144.116
134.213
124.382
114.606
104.865
194.835
184.524
174.268
164.094
154.015
144.034
134.144
124.331
114.575
104.854
194.797
184.418
174.112
163.912
153.829
143.862
133.999
124.222
114.508
104.832
194.732
184.237
173.851
163.612
153.527
143.586
133.768
124.05
114.402
104.796
194.624
183.946
173.445
163.158
153.081
143.186
133.44
123.807
114.253
104.746
194.44
183.478
172.824
162.496
152.452
142.638
132.998
123.485
114.059
104.681
194.099
182.701
171.877
161.549
151.596
141.916
132.43
123.078
113.814
104.6
193.35
181.349
170.436
160.228
150.469
141.002
131.728
122.583
113.52
104.502
191.3
178.912
168.292
158.46
149.051
139.895
130.899
122.008
113.181
104.39
188.985
174.499
162.951
152.88
143.699
135.113
126.939
119.054
111.359
103.774
192.201
178.598
166.778
156.202
146.482
137.365
128.675
120.285
112.095
104.019
193.425
180.917
169.36
158.666
148.663
139.19
130.11
121.316
112.715
104.226
194.008
182.284
171.078
160.44
150.315
140.619
131.261
122.155
113.224
104.397
194.335
183.132
172.229
161.699
151.539
141.711
132.158
122.819
113.631
104.533
194.536
183.679
173.009
162.587
152.431
142.527
132.841
123.331
113.947
104.64
194.665
184.041
173.539
163.209
153.072
143.125
133.35
123.716
114.187
104.721
194.75
184.282
173.898
163.638
153.521
143.551
133.717
123.996
114.362
104.781
194.805
184.438
174.134
163.924
153.825
143.842
133.97
124.191
114.485
104.823
194.837
184.531
174.276
164.098
154.011
144.023
134.128
124.314
114.562
104.849
194.852
184.574
174.342
164.179
154.1
144.111
134.206
124.375
114.601
104.863
194.851
184.571
174.338
164.177
154.101
144.113
134.21
124.379
114.604
104.864
194.833
184.52
174.264
164.09
154.012
144.031
134.141
124.328
114.573
104.853
194.795
184.414
174.108
163.908
153.825
143.859
133.996
124.219
114.505
104.83
194.73
184.233
173.848
163.608
153.523
143.582
133.765
124.047
114.399
104.795
194.622
183.942
173.441
163.154
153.077
143.183
133.437
123.804
114.251
104.745
194.438
183.474
172.82
162.492
152.449
142.635
132.995
123.483
114.056
104.68
194.096
182.697
171.873
161.545
151.593
141.913
132.427
123.075
113.812
104.598
193.347
181.345
170.432
160.224
150.465
140.998
131.725
122.581
113.518
104.501
191.297
178.908
168.288
158.457
149.047
139.891
130.896
122.005
113.179
104.389
188.985
174.499
162.951
152.88
143.699
135.113
126.939
119.054
111.359
103.774
192.201
178.598
166.778
156.202
146.482
137.365
128.675
120.285
112.095
104.019
193.425
180.917
169.36
158.666
148.663
139.19
130.11
121.316
112.715
104.226
194.008
182.284
171.078
160.44
150.315
140.619
131.261
122.155
113.224
104.397
194.335
183.132
172.229
161.699
151.539
141.711
132.158
122.819
113.631
104.533
194.536
183.679
173.009
162.587
152.431
142.527
132.841
123.331
113.947
104.64
194.665
184.041
173.539
163.209
153.072
143.125
133.35
123.716
114.187
104.721
194.75
184.282
173.898
163.638
153.521
143.551
133.717
123.996
114.362
104.781
194.805
184.438
174.134
163.924
153.825
143.842
133.97
124.191
114.485
104.823
194.837
184.531
174.276
164.098
154.011
144.023
134.128
124.314
114.562
104.849
194.852
184.574
174.342
164.179
154.1
144.111
134.206
124.375
114.601
104.863
194.851
184.571
174.338
164.177
154.101
144.113
134.21
124.379
114.604
104.864
194.833
184.52
174.264
164.09
154.012
144.031
134.141
124.328
114.573
104.853
194.795
184.414
174.108
163.908
153.825
143.859
133.996
124.219
114.505
104.83
194.73
184.233
173.848
163.608
153.523
143.582
133.765
124.047
114.399
104.795
194.622
183.942
173.441
163.154
153.077
143.183
133.437
123.804
114.251
104.745
194.438
183.474
172.82
162.492
152.449
142.635
132.995
123.483
114.056
104.68
194.096
182.697
171.873
161.545
151.593
141.913
132.427
123.075
113.812
104.598
193.347
181.345
170.432
160.224
150.465
140.998
131.725
122.581
113.518
104.501
191.297
178.908
168.288
158.457
149.047
139.891
130.896
122.005
113.179
104.389
188.986
174.501
162.953
152.882
143.702
135.115
126.941
119.056
111.361
103.775
192.203
178.601
166.78
156.204
146.485
137.367
128.677
120.287
112.096
104.02
193.427
180.919
169.362
158.669
148.666
139.192
130.113
121.318
112.717
104.227
194.01
182.286
171.081
160.442
150.318
140.621
131.263
122.157
113.226
104.398
194.337
183.134
172.232
161.701
151.542
141.713
132.16
122.821
113.633
104.534
194.537
183.682
173.012
162.59
152.434
142.53
132.844
123.333
113.949
104.641
194.667
184.044
173.542
163.212
153.075
143.128
133.352
123.718
114.188
104.723
194.752
184.285
173.901
163.641
153.524
143.554
133.719
123.999
114.364
104.782
194.807
184.441
174.137
163.927
153.828
143.845
133.972
124.194
114.487
104.824
194.839
184.534
174.279
164.101
154.014
144.026
134.131
124.317
114.564
104.851
194.854
184.577
174.345
164.183
154.104
144.114
134.209
124.377
114.603
104.864
194.853
184.574
174.342
164.181
154.104
144.116
134.213
124.382
114.606
104.865
194.835
184.524
174.268
164.094
154.015
144.034
134.144
124.331
114.575
104.854
194.797
184.418
174.112
163.912
153.829
143.862
133.999
124.222
114.508
104.832
194.732
184.237
173.851
163.612
153.527
143.586
133.768
124.05
114.402
104.796
194.624
183.946
173.445
163.158
153.081
143.186
133.44
123.807
114.253
104.746
194.44
183.478
172.824
162.496
152.452
142.638
132.998
123.485
114.059
104.681
194.099
182.701
171.877
161.549
151.596
141.916
132.43
123.078
113.814
104.6
193.35
181.349
170.436
160.228
150.469
141.002
131.728
122.584
113.52
104.502
191.3
178.912
168.292
158.46
149.051
139.895
130.899
122.008
113.181
104.39
184.233
174.706
165.36
156.272
147.382
138.629
129.968
121.368
112.807
104.267
178.04
170.324
162.173
153.89
145.579
137.273
128.977
120.692
112.413
104.137
173.054
166.381
159.121
151.538
143.775
135.908
127.979
120.009
112.015
104.007
169.076
163.027
156.395
149.369
142.078
134.61
127.022
119.353
111.632
103.881
165.908
160.259
154.068
147.467
140.562
133.435
126.149
118.752
111.28
103.765
163.415
158.033
152.155
145.872
139.27
132.423
125.391
118.226
110.971
103.663
161.504
156.307
150.649
144.599
138.227
131.597
124.768
117.792
110.715
103.579
160.115
155.044
149.537
143.65
137.442
130.972
124.294
117.461
110.519
103.514
159.21
154.217
148.804
143.021
136.92
130.554
123.977
117.239
110.386
103.471
158.764
153.808
148.441
142.708
136.659
130.345
123.818
117.128
110.321
103.453
184.229
174.702
165.356
156.269
147.379
138.625
129.965
121.365
112.805
104.266
178.036
170.321
162.169
153.886
145.576
137.269
128.974
120.689
112.41
104.136
173.051
166.378
159.118
151.534
143.772
135.905
127.975
120.006
112.013
104.005
169.073
163.024
156.392
149.366
142.075
134.607
127.019
119.35
111.629
103.879
165.906
160.256
154.065
147.464
140.559
133.432
126.146
118.748
111.277
103.763
163.412
158.031
152.152
145.87
139.267
132.419
125.387
118.222
110.967
103.661
161.501
156.304
150.646
144.596
138.224
131.593
124.764
117.788
110.711
103.576
160.113
155.041
149.534
143.647
137.439
130.968
124.29
117.456
110.514
103.511
159.208
154.214
148.802
143.018
136.916
130.55
123.973
117.233
110.38
103.466
158.761
153.806
148.439
142.705
136.656
130.341
123.814
117.122
110.314
103.447
184.229
174.702
165.356
156.269
147.379
138.625
129.965
121.365
112.805
104.266
178.036
170.321
162.169
153.886
145.576
137.269
128.974
120.689
112.41
104.136
173.051
166.378
159.118
151.534
143.772
135.905
127.975
120.006
112.013
104.005
169.073
163.024
156.392
149.366
142.075
134.607
127.019
119.35
111.629
103.879
165.906
160.256
154.065
147.464
140.559
133.432
126.146
118.748
111.277
103.763
163.412
158.031
152.152
145.87
139.267
132.42
125.387
118.222
110.967
103.661
161.501
156.304
150.646
144.596
138.224
131.594
124.764
117.788
110.711
103.576
160.113
155.041
149.534
143.647
137.439
130.968
124.29
117.456
110.514
103.511
159.208
154.214
148.802
143.018
136.917
130.55
123.973
117.234
110.38
103.466
158.761
153.806
148.439
142.706
136.656
130.342
123.814
117.122
110.314
103.447
184.233
174.706
165.36
156.272
147.382
138.629
129.968
121.368
112.807
104.267
178.04
170.324
162.173
153.89
145.579
137.273
128.977
120.692
112.413
104.137
173.054
166.381
159.121
151.538
143.775
135.908
127.979
120.009
112.015
104.007
169.076
163.027
156.395
149.369
142.078
134.61
127.022
119.353
111.632
103.881
165.908
160.259
154.068
147.467
140.562
133.436
126.15
118.752
111.28
103.765
163.415
158.033
152.155
145.873
139.271
132.423
125.391
118.226
110.971
103.663
161.504
156.307
150.649
144.599
138.227
131.597
124.768
117.792
110.715
103.579
160.115
155.044
149.537
143.65
137.442
130.972
124.294
117.461
110.519
103.514
159.21
154.217
148.805
143.021
136.92
130.555
123.977
117.239
110.386
103.471
158.764
153.809
148.441
142.708
136.659
130.345
123.818
117.128
110.321
103.453
192.884
195.649
196.822
197.46
197.865
198.142
198.337
198.47
198.555
198.595
198.596
198.555
198.472
198.339
198.145
197.867
197.463
196.825
195.652
192.886
184.543
188.54
191.003
192.613
193.722
194.51
195.073
195.462
195.708
195.827
195.828
195.71
195.465
195.077
194.516
193.729
192.62
191.011
188.546
184.548
178.713
182.964
186.039
188.268
189.902
191.106
191.982
192.597
192.988
193.179
193.18
192.992
192.602
191.99
191.115
189.913
188.28
186.051
182.976
178.723
174.299
178.567
181.921
184.518
186.513
188.029
189.156
189.957
190.47
190.722
190.724
190.475
189.965
189.168
188.043
186.529
184.536
181.94
178.585
174.317
170.859
175.083
178.563
181.373
183.605
185.344
186.66
187.605
188.217
188.518
188.52
188.224
187.616
186.675
185.363
183.627
181.398
178.59
175.111
170.887
168.175
172.345
175.878
178.809
181.192
183.084
184.536
185.59
186.276
186.616
186.619
186.285
185.604
184.556
183.109
181.222
178.843
175.915
172.384
168.216
166.126
170.245
173.797
176.796
179.273
181.267
182.813
183.945
184.686
185.054
185.058
184.697
183.963
182.839
181.299
179.311
176.839
173.845
170.296
166.18
164.638
168.717
172.272
175.308
177.843
179.901
181.51
182.694
183.473
183.861
183.865
183.486
182.716
181.54
179.94
177.889
175.361
172.331
168.78
164.705
163.666
167.718
171.272
174.326
176.893
178.99
180.636
181.852
182.655
183.055
183.06
182.67
181.877
180.671
179.034
176.946
174.387
171.339
167.792
163.745
163.186
167.224
170.776
173.838
176.42
178.534
180.198
181.429
182.243
182.65
182.655
182.259
181.456
180.235
178.581
176.476
173.904
170.849
167.304
163.271
192.886
195.651
196.824
197.461
197.866
198.143
198.338
198.471
198.555
198.595
198.596
198.555
198.471
198.338
198.144
197.866
197.461
196.824
195.65
192.884
184.546
188.543
191.006
192.615
193.724
194.512
195.074
195.462
195.708
195.827
195.828
195.709
195.464
195.076
194.515
193.727
192.618
191.008
188.544
184.546
178.716
182.967
186.042
188.27
189.904
191.107
191.984
192.598
192.988
193.179
193.18
192.991
192.602
191.989
191.114
189.911
188.278
186.049
182.973
178.721
174.302
178.57
181.924
184.521
186.515
188.031
189.158
189.957
190.471
190.722
190.724
190.475
189.964
189.166
188.042
186.528
184.534
181.938
178.583
174.315
170.862
175.086
178.566
181.376
183.607
185.345
186.661
187.606
188.217
188.518
188.52
188.223
187.615
186.674
185.361
183.626
181.397
178.588
175.109
170.885
168.179
172.348
175.88
178.811
181.194
183.085
184.537
185.59
186.277
186.616
186.619
186.285
185.603
184.555
183.108
181.22
178.841
175.913
172.381
168.213
166.129
170.248
173.799
176.798
179.276
181.269
182.815
183.946
184.687
185.054
185.058
184.697
183.962
182.838
181.297
179.31
176.837
173.843
170.294
166.177
164.641
168.72
172.275
175.311
177.845
179.903
181.511
182.695
183.473
183.861
183.865
183.486
182.715
181.539
179.938
177.887
175.359
172.329
168.778
164.702
163.669
167.721
171.274
174.329
176.896
178.992
180.638
181.853
182.655
183.056
183.06
182.669
181.877
180.67
179.033
176.945
174.386
171.338
167.79
163.742
163.189
167.227
170.778
173.841
176.422
178.536
180.199
181.43
182.244
182.65
182.655
182.259
181.456
180.234
178.58
176.475
173.902
170.847
167.302
163.269
192.886
195.651
196.824
197.461
197.866
198.143
198.338
198.471
198.555
198.595
198.596
198.555
198.471
198.338
198.144
197.866
197.461
196.824
195.65
192.884
184.546
188.543
191.006
192.615
193.724
194.512
195.074
195.462
195.708
195.827
195.828
195.709
195.464
195.076
194.515
193.727
192.618
191.008
188.544
184.546
178.716
182.967
186.042
188.27
189.904
191.107
191.984
192.598
192.988
193.179
193.18
192.991
192.602
191.989
191.114
189.911
188.278
186.049
182.973
178.72
174.302
178.57
181.924
184.521
186.515
188.031
189.158
189.957
190.471
190.722
190.724
190.475
189.964
189.166
188.042
186.527
184.534
181.938
178.583
174.315
170.862
175.086
178.566
181.376
183.607
185.345
186.661
187.606
188.217
188.518
188.52
188.223
187.615
186.674
185.361
183.626
181.396
178.588
175.109
170.885
168.179
172.348
175.88
178.811
181.194
183.085
184.537
185.59
186.277
186.616
186.619
186.285
185.603
184.555
183.108
181.22
178.841
175.913
172.381
168.213
166.129
170.248
173.799
176.798
179.275
181.269
182.815
183.946
184.687
185.054
185.058
184.697
183.962
182.838
181.297
179.31
176.837
173.843
170.294
166.177
164.641
168.72
172.275
175.311
177.845
179.903
181.511
182.695
183.473
183.861
183.865
183.486
182.715
181.539
179.938
177.887
175.359
172.329
168.778
164.702
163.669
167.721
171.274
174.329
176.896
178.992
180.638
181.854
182.655
183.056
183.06
182.67
181.877
180.67
179.033
176.945
174.386
171.338
167.79
163.742
163.189
167.227
170.778
173.841
176.422
178.536
180.199
181.43
182.244
182.65
182.655
182.259
181.456
180.234
178.58
176.475
173.903
170.848
167.302
163.269
192.884
195.649
196.822
197.46
197.865
198.142
198.337
198.47
198.555
198.595
198.596
198.555
198.472
198.339
198.145
197.867
197.463
196.825
195.652
192.886
184.543
188.54
191.003
192.613
193.722
194.51
195.073
195.462
195.708
195.827
195.828
195.71
195.465
195.077
194.516
193.729
192.62
191.01
188.546
184.548
178.713
182.964
186.039
188.268
189.902
191.106
191.982
192.597
192.988
193.179
193.18
192.992
192.602
191.99
191.115
189.913
188.28
186.051
182.976
178.723
174.299
178.567
181.921
184.518
186.513
188.029
189.156
189.957
190.47
190.722
190.724
190.475
189.965
189.168
188.043
186.529
184.536
181.94
178.585
174.317
170.859
175.083
178.563
181.373
183.605
185.344
186.66
187.605
188.217
188.518
188.521
188.224
187.616
186.675
185.363
183.627
181.398
178.59
175.111
170.887
168.175
172.345
175.878
178.809
181.192
183.084
184.536
185.59
186.276
186.616
186.619
186.285
185.604
184.556
183.109
181.222
178.843
175.915
172.384
168.216
166.126
170.245
173.797
176.796
179.274
181.267
182.813
183.945
184.686
185.054
185.058
184.697
183.963
182.839
181.299
179.311
176.839
173.845
170.297
166.18
164.638
168.717
172.272
175.308
177.843
179.902
181.51
182.694
183.473
183.861
183.866
183.486
182.716
181.541
179.94
177.889
175.361
172.331
168.781
164.705
163.667
167.719
171.272
174.327
176.894
178.99
180.637
181.853
182.655
183.056
183.061
182.67
181.878
180.671
179.034
176.946
174.388
171.34
167.792
163.745
163.186
167.225
170.776
173.839
176.42
178.534
180.198
181.43
182.243
182.65
182.655
182.259
181.456
180.235
178.581
176.477
173.904
170.849
167.304
163.271
104.267
112.809
121.372
129.973
138.635
147.388
156.278
165.364
174.708
184.231
104.137
112.413
120.694
128.981
137.277
145.583
153.893
162.174
170.323
178.036
104.006
112.015
120.01
127.98
135.909
143.775
151.536
159.117
166.375
173.046
103.879
111.63
119.351
127.019
134.606
142.072
149.36
156.384
163.013
169.059
103.762
111.274
118.745
126.14
133.423
140.546
147.448
154.046
160.233
165.881
103.659
110.962
118.213
125.373
132.4
139.243
145.84
152.119
157.995
163.375
103.573
110.702
117.772
124.741
131.562
138.185
144.552
150.598
156.254
161.45
103.507
110.502
117.433
124.256
130.924
137.386
143.588
149.471
154.976
160.047
103.462
110.366
117.201
123.926