/*--------------------------------*- C++ -*----------------------------------*\
| =========                 |                                                 |
| \\      /  F ield         | OpenFOAM: The Open Source CFD Toolbox           |
|  \\    /   O peration     | Version:  2.4.0                                 |
|   \\  /    A nd           | Web:      www.OpenFOAM.org                      |
|    \\/     M anipulation  |                                                 |
\*---------------------------------------------------------------------------*/
FoamFile
{
    version     2.0;
    format      ascii;
    class       volScalarField;
    location    "0.8";
    object      p;
}
// * * * * * * * * * * * * * * * * * * * * * * * * * * * * * * * * * * * * * //

dimensions      [0 2 -2 0 0 0 0];

internalField   nonuniform List<scalar> 
4800
(
-3.34951e-06
-0.00130938
-0.00240413
-0.00299027
-0.00280961
-0.00175021
0.00021347
0.00306439
0.00674865
0.0111677
0.00130031
-1.98977e-05
-0.000765074
-0.00095517
-0.000500349
0.000685605
0.00263246
0.00533844
0.00877447
0.0128776
0.00240459
0.000696454
-4.78787e-05
-0.000121003
0.000428362
0.00165285
0.0035731
0.00619494
0.00951034
0.0134853
0.00291313
0.000756613
-0.000105573
-0.000183087
0.000367697
0.00157119
0.00344134
0.00599626
0.00925663
0.0132273
0.00244032
-4.92953e-05
-0.00102955
-0.0011573
-0.000660476
0.000470318
0.00225447
0.00473618
0.00798376
0.0120741
0.000765798
-0.00190251
-0.00297182
-0.00317866
-0.00278752
-0.00179012
-0.000146068
0.00223445
0.00549776
0.00987102
-0.00219258
-0.00487628
-0.00599561
-0.00630389
-0.00607372
-0.00528823
-0.00387165
-0.00166831
0.00158302
0.00643017
-0.00640882
-0.00895233
-0.0100811
-0.0105122
-0.0105056
-0.0100344
-0.00898081
-0.00711187
-0.00403152
0.00146303
-0.0117565
-0.0140261
-0.0151279
-0.0157004
-0.0159802
-0.0159394
-0.0154242
-0.0141234
-0.0115443
-0.0052111
-0.0180175
-0.019916
-0.02096
-0.0216822
-0.022298
-0.0228129
-0.0230979
-0.0228556
-0.0219004
-0.0163353
-6.05381e-06
-0.00132842
-0.00243046
-0.00302388
-0.00284709
-0.00178903
0.000174883
0.00302765
0.00671563
0.0111405
0.00131574
-2.29877e-05
-0.000748652
-0.000931346
-0.000473163
0.000714966
0.0026617
0.00536559
0.00879835
0.0128983
0.00242974
0.000674859
-4.8627e-05
-0.000120032
0.000427156
0.00165162
0.00357176
0.00619314
0.00950807
0.013484
0.00294833
0.00072759
-0.000105914
-0.000181301
0.000365916
0.00156888
0.0034386
0.00599265
0.00925147
0.013223
0.0024815
-8.29442e-05
-0.00102657
-0.00115029
-0.000656988
0.000473351
0.00225685
0.00473685
0.00797955
0.0120678
0.00080963
-0.00193803
-0.00296787
-0.00316992
-0.00278216
-0.00178503
-0.000141318
0.00223783
0.00549127
0.00985529
-0.0021491
-0.0049119
-0.00599137
-0.00629435
-0.00606699
-0.00528131
-0.00386401
-0.00165891
0.00157468
0.00639181
-0.00636867
-0.00898603
-0.0100772
-0.0105027
-0.0104981
-0.0100267
-0.00897225
-0.00709636
-0.00405433
0.00132711
-0.0117226
-0.0140564
-0.015125
-0.0156921
-0.0159722
-0.0159298
-0.0154102
-0.0140781
-0.0115338
-0.00551595
-0.0179921
-0.0199423
-0.0209596
-0.0216773
-0.0222919
-0.0228021
-0.0230732
-0.0227322
-0.0216237
-0.016404
-6.39996e-06
-0.00132862
-0.0024306
-0.00302396
-0.00284715
-0.00178907
0.000174849
0.00302762
0.00671561
0.0111404
0.00131553
-2.3136e-05
-0.00074876
-0.000931424
-0.000473221
0.00071492
0.00266166
0.00536556
0.00879833
0.0128983
0.00242961
0.000674748
-4.87149e-05
-0.000120101
0.000427101
0.00165158
0.00357172
0.00619311
0.00950805
0.013484
0.00294824
0.000727509
-0.000105984
-0.00018136
0.000365867
0.00156883
0.00343857
0.00599262
0.00925144
0.013223
0.00248143
-8.30051e-05
-0.00102663
-0.00115034
-0.000657031
0.000473313
0.00225682
0.00473682
0.00797953
0.0120678
0.000809577
-0.00193808
-0.00296792
-0.00316996
-0.0027822
-0.00178507
-0.000141349
0.0022378
0.00549125
0.00985527
-0.00214915
-0.00491194
-0.00599141
-0.00629438
-0.00606702
-0.00528134
-0.00386403
-0.00165893
0.00157466
0.00639179
-0.00636871
-0.00898607
-0.0100772
-0.0105027
-0.0104982
-0.0100268
-0.00897228
-0.00709638
-0.00405435
0.00132709
-0.0117226
-0.0140564
-0.015125
-0.0156921
-0.0159722
-0.0159298
-0.0154103
-0.0140781
-0.0115338
-0.00551596
-0.0179921
-0.0199424
-0.0209596
-0.0216774
-0.022292
-0.0228021
-0.0230732
-0.0227322
-0.0216237
-0.016404
-5.83711e-06
-0.00131017
-0.00240454
-0.00299052
-0.00280978
-0.00175033
0.00021338
0.00306432
0.0067486
0.0111677
0.00129952
-2.03826e-05
-0.000765398
-0.000955392
-0.000500508
0.000685483
0.00263237
0.00533837
0.00877441
0.0128775
0.00240417
0.000696125
-4.8131e-05
-0.000121193
0.000428214
0.00165273
0.00357301
0.00619486
0.00951027
0.0134852
0.00291288
0.000756384
-0.000105767
-0.000183246
0.000367565
0.00157108
0.00344125
0.00599618
0.00925657
0.0132273
0.00244014
-4.94639e-05
-0.0010297
-0.00115743
-0.000660593
0.000470218
0.00225439
0.00473611
0.0079837
0.0120741
0.000765664
-0.00190264
-0.00297195
-0.00317878
-0.00278762
-0.00179021
-0.000146146
0.00223439
0.00549771
0.00987098
-0.0021927
-0.00487639
-0.00599571
-0.00630399
-0.00607381
-0.00528831
-0.00387172
-0.00166837
0.00158297
0.00643013
-0.00640891
-0.00895242
-0.0100812
-0.0105123
-0.0105057
-0.0100345
-0.00898087
-0.00711192
-0.00403157
0.00146299
-0.0117566
-0.0140261
-0.015128
-0.0157005
-0.0159803
-0.0159395
-0.0154242
-0.0141234
-0.0115443
-0.00521114
-0.0180175
-0.0199161
-0.0209601
-0.0216823
-0.0222981
-0.022813
-0.0230979
-0.0228556
-0.0219004
-0.0163353
0.0161753
0.0215983
0.0272825
0.0331129
0.0390147
0.0449453
0.0508852
0.0568292
0.0627821
0.0687558
0.0747688
0.0808467
0.0870225
0.0933353
0.0998265
0.106532
0.113468
0.120609
0.127866
0.135067
0.0175434
0.0226363
0.0280327
0.0336338
0.0393663
0.0451805
0.0510464
0.0569482
0.0628811
0.0688489
0.0748625
0.0809392
0.0871017
0.093376
0.0997875
0.106354
0.113075
0.119918
0.126804
0.133587
0.0180352
0.0230196
0.0283196
0.0338416
0.0395132
0.0452832
0.0511183
0.0569988
0.062916
0.0688693
0.0748648
0.0809145
0.0870349
0.0932455
0.0995659
0.106011
0.112583
0.11926
0.125981
0.13263
0.0178354
0.0228829
0.0282343
0.0337943
0.039491
0.0452755
0.0511168
0.0569967
0.062906
0.0688425
0.0748094
0.0808143
0.0868691
0.0929889
0.099192
0.105497
0.111921
0.118467
0.125111
0.131782
0.0169534
0.0222566
0.0278111
0.0335228
0.0393241
0.0451759
0.0510566
0.0569548
0.0628651
0.0687859
0.0747183
0.0806662
0.0866362
0.0926391
0.0986918
0.10482
0.11106
0.117455
0.124042
0.130835
0.0153737
0.0211954
0.0271238
0.0330967
0.039069
0.0450261
0.0509673
0.0568949
0.062811
0.0687166
0.0746113
0.0804945
0.0863665
0.0922311
0.0981011
0.104006
0.110006
0.116189
0.122685
0.129691
0.0131882
0.0198898
0.0263595
0.0326678
0.038835
0.0449
0.0508978
0.0568502
0.0627688
0.0686573
0.0745134
0.0803306
0.0861002
0.0918152
0.0974772
0.103112
0.108792
0.114659
0.120962
0.128264
0.0106781
0.0187013
0.0258075
0.0324402
0.0387533
0.0448769
0.0508953
0.0568502
0.0627599
0.0686282
0.0744486
0.0802064
0.0858816
0.091451
0.0968964
0.102225
0.107514
0.112934
0.118844
0.126434
0.00945082
0.0189035
0.0261553
0.0327547
0.0389855
0.0450313
0.0509952
0.0569156
0.0628024
0.0686514
0.0744479
0.080167
0.0857735
0.0912217
0.0964575
0.101441
0.106215
0.110844
0.115574
0.122665
0.0135491
0.0232957
0.0286854
0.0341242
0.0397231
0.0454314
0.0512233
0.057062
0.0629159
0.0687579
0.074559
0.0802813
0.0858705
0.0912468
0.0962913
0.100832
0.10465
0.107492
0.108863
0.112958
0.0161552
0.0215846
0.0272737
0.0331076
0.0390116
0.0449436
0.0508842
0.0568285
0.0627814
0.0687548
0.0747675
0.080845
0.0870203
0.0933327
0.0998239
0.10653
0.113468
0.120611
0.127874
0.135082
0.0175618
0.0226516
0.0280446
0.0336427
0.0393726
0.0451851
0.0510497
0.0569508
0.0628833
0.068851
0.0748646
0.0809414
0.0871038
0.0933775
0.0997875
0.106352
0.113069
0.119907
0.126786
0.133564
0.0180378
0.0230237
0.028324
0.0338456
0.0395165
0.0452858
0.0511202
0.0570002
0.0629171
0.0688701
0.0748654
0.0809149
0.0870351
0.0932453
0.099565
0.106009
0.11258
0.119256
0.125976
0.132626
0.0178389
0.0228884
0.0282396
0.0337989
0.0394946
0.0452781
0.0511187
0.056998
0.0629069
0.0688431
0.0748098
0.0808146
0.0868691
0.0929887
0.0991914
0.105496
0.111919
0.118463
0.125106
0.131777
0.016963
0.0222669
0.0278191
0.0335289
0.0393284
0.0451786
0.0510583
0.0569559
0.0628658
0.0687863
0.0747187
0.0806665
0.0866365
0.0926393
0.0986917
0.104819
0.111058
0.117451
0.124032
0.130823
0.0153951
0.0212126
0.0271338
0.0331034
0.0390728
0.0450281
0.0509683
0.0568954
0.0628112
0.0687166
0.0746114
0.0804946
0.0863667
0.0922315
0.0981015
0.104006
0.110005
0.116186
0.122669
0.129662
0.0132466
0.019926
0.0263751
0.0326759
0.0388384
0.044901
0.0508979
0.05685
0.0627686
0.0686571
0.0745134
0.0803307
0.0861006
0.0918159
0.097478
0.103111
0.10879
0.114653
0.120927
0.128186
0.0107785
0.0187392
0.0258141
0.0324431
0.0387531
0.0448756
0.0508941
0.0568492
0.0627592
0.0686276
0.074448
0.080206
0.0858814
0.0914514
0.0968974
0.102225
0.107513
0.112937
0.118812
0.126306
0.00957889
0.0188494
0.0260971
0.0327315
0.0389741
0.0450248
0.0509915
0.0569131
0.0628002
0.0686491
0.0744451
0.0801636
0.0857698
0.0912186
0.096457
0.101445
0.106231
0.110913
0.11566
0.122516
0.0142598
0.023401
0.0286891
0.0341416
0.0397341
0.0454361
0.0512257
0.0570635
0.0629171
0.0687591
0.0745604
0.080283
0.0858725
0.0912487
0.0962916
0.100827
0.10464
0.107512
0.108805
0.112113
0.0161552
0.0215846
0.0272737
0.0331076
0.0390116
0.0449436
0.0508842
0.0568285
0.0627814
0.0687548
0.0747675
0.080845
0.0870203
0.0933327
0.0998239
0.10653
0.113468
0.120611
0.127874
0.135082
0.0175618
0.0226515
0.0280446
0.0336427
0.0393726
0.0451851
0.0510497
0.0569508
0.0628833
0.068851
0.0748646
0.0809414
0.0871038
0.0933775
0.0997875
0.106352
0.113069
0.119907
0.126786
0.133564
0.0180377
0.0230237
0.0283239
0.0338456
0.0395165
0.0452858
0.0511202
0.0570002
0.0629171
0.0688701
0.0748654
0.0809149
0.0870351
0.0932453
0.099565
0.106009
0.11258
0.119256
0.125976
0.132626
0.0178389
0.0228884
0.0282395
0.0337989
0.0394946
0.0452781
0.0511187
0.056998
0.0629069
0.0688431
0.0748098
0.0808146
0.0868691
0.0929887
0.0991914
0.105496
0.111919
0.118463
0.125106
0.131777
0.016963
0.0222669
0.0278191
0.0335289
0.0393284
0.0451786
0.0510583
0.0569559
0.0628658
0.0687863
0.0747187
0.0806665
0.0866365
0.0926393
0.0986917
0.104819
0.111058
0.117451
0.124032
0.130823
0.0153951
0.0212126
0.0271338
0.0331034
0.0390728
0.045028
0.0509683
0.0568954
0.0628112
0.0687166
0.0746114
0.0804946
0.0863667
0.0922315
0.0981015
0.104006
0.110005
0.116186
0.122669
0.129662
0.0132466
0.0199259
0.026375
0.0326759
0.0388384
0.044901
0.0508979
0.05685
0.0627686
0.0686571
0.0745134
0.0803307
0.0861006
0.0918159
0.097478
0.103111
0.10879
0.114653
0.120927
0.128186
0.0107785
0.0187392
0.0258141
0.0324431
0.0387531
0.0448756
0.0508941
0.0568492
0.0627592
0.0686276
0.074448
0.080206
0.0858814
0.0914514
0.0968974
0.102225
0.107513
0.112937
0.118812
0.126306
0.00957887
0.0188494
0.0260971
0.0327315
0.0389741
0.0450248
0.0509915
0.0569131
0.0628002
0.0686491
0.0744451
0.0801636
0.0857698
0.0912186
0.096457
0.101445
0.106231
0.110913
0.11566
0.122516
0.0142598
0.023401
0.0286891
0.0341416
0.0397341
0.0454361
0.0512257
0.0570635
0.0629171
0.0687591
0.0745604
0.080283
0.0858725
0.0912487
0.0962916
0.100827
0.10464
0.107512
0.108805
0.112114
0.0161752
0.0215983
0.0272824
0.0331129
0.0390146
0.0449453
0.0508852
0.0568292
0.0627821
0.0687558
0.0747688
0.0808467
0.0870225
0.0933353
0.0998265
0.106532
0.113468
0.120609
0.127866
0.135067
0.0175434
0.0226363
0.0280327
0.0336338
0.0393662
0.0451805
0.0510464
0.0569482
0.0628811
0.0688489
0.0748625
0.0809392
0.0871017
0.093376
0.0997875
0.106354
0.113075
0.119918
0.126804
0.133587
0.0180351
0.0230195
0.0283196
0.0338416
0.0395132
0.0452832
0.0511183
0.0569988
0.062916
0.0688693
0.0748648
0.0809145
0.0870349
0.0932455
0.0995659
0.106011
0.112583
0.11926
0.125981
0.13263
0.0178353
0.0228829
0.0282342
0.0337943
0.039491
0.0452755
0.0511168
0.0569967
0.062906
0.0688425
0.0748094
0.0808143
0.0868691
0.0929889
0.099192
0.105497
0.111921
0.118467
0.125111
0.131782
0.0169534
0.0222566
0.0278111
0.0335227
0.0393241
0.0451759
0.0510566
0.0569548
0.0628651
0.0687859
0.0747183
0.0806662
0.0866362
0.0926391
0.0986918
0.10482
0.11106
0.117455
0.124042
0.130835
0.0153736
0.0211954
0.0271238
0.0330967
0.039069
0.045026
0.0509673
0.0568949
0.062811
0.0687166
0.0746113
0.0804945
0.0863665
0.0922311
0.0981011
0.104006
0.110006
0.116189
0.122685
0.129691
0.0131881
0.0198897
0.0263595
0.0326678
0.038835
0.0449
0.0508978
0.0568502
0.0627688
0.0686573
0.0745134
0.0803306
0.0861002
0.0918152
0.0974772
0.103112
0.108792
0.114659
0.120962
0.128264
0.010678
0.0187013
0.0258075
0.0324402
0.0387533
0.0448769
0.0508953
0.0568502
0.0627599
0.0686282
0.0744486
0.0802064
0.0858816
0.0914511
0.0968964
0.102225
0.107514
0.112934
0.118844
0.126434
0.00945079
0.0189035
0.0261553
0.0327547
0.0389855
0.0450313
0.0509952
0.0569155
0.0628024
0.0686514
0.0744479
0.080167
0.0857735
0.0912217
0.0964575
0.101441
0.106215
0.110844
0.115574
0.122665
0.0135491
0.0232957
0.0286854
0.0341242
0.0397231
0.0454314
0.0512233
0.057062
0.0629159
0.0687579
0.074559
0.0802813
0.0858705
0.0912468
0.0962913
0.100832
0.10465
0.107492
0.108863
0.112958
0.141953
0.148214
0.153563
0.15778
0.160739
0.162415
0.162889
0.16238
0.161276
0.15997
0.140054
0.145945
0.151019
0.155096
0.158071
0.159925
0.160732
0.160672
0.159956
0.158666
0.13901
0.144842
0.14989
0.153977
0.157002
0.158945
0.15987
0.159928
0.159211
0.157572
0.138287
0.144269
0.149459
0.153668
0.156795
0.158818
0.159793
0.159856
0.159022
0.156986
0.13767
0.143989
0.149465
0.153898
0.157186
0.159315
0.160344
0.160406
0.159478
0.157168
0.137154
0.144028
0.149935
0.154683
0.158183
0.160446
0.161549
0.161632
0.160666
0.15823
0.136868
0.144542
0.150987
0.156099
0.159827
0.162231
0.163421
0.163555
0.162615
0.160196
0.137108
0.14584
0.152854
0.158301
0.162208
0.164714
0.165977
0.166179
0.165325
0.163051
0.13806
0.148416
0.155932
0.161551
0.165471
0.167962
0.16924
0.169498
0.168766
0.166742
0.143619
0.154743
0.161422
0.166396
0.169844
0.172054
0.173214
0.173478
0.172875
0.171169
0.141978
0.148248
0.153603
0.157824
0.160783
0.162456
0.162924
0.162406
0.161292
0.15997
0.140028
0.145914
0.150986
0.155061
0.158036
0.159892
0.160703
0.160651
0.159953
0.158647
0.13901
0.144845
0.149894
0.153981
0.157006
0.158948
0.15987
0.159928
0.159228
0.157545
0.138292
0.144278
0.149468
0.153678
0.156804
0.158825
0.159795
0.159857
0.159046
0.156953
0.137676
0.143997
0.149472
0.153905
0.157191
0.159318
0.160343
0.160405
0.159505
0.157131
0.137165
0.144038
0.149943
0.15469
0.158189
0.160449
0.161547
0.161631
0.160695
0.158191
0.136892
0.144556
0.150996
0.156107
0.159832
0.162233
0.163418
0.163553
0.162644
0.160158
0.137231
0.145886
0.15287
0.158311
0.162211
0.164714
0.165974
0.166177
0.165352
0.163015
0.138336
0.148426
0.155909
0.161543
0.165465
0.167958
0.169235
0.169496
0.16879
0.166709
0.14355
0.154439
0.161286
0.166357
0.169828
0.172048
0.17321
0.173477
0.172896
0.171142
0.141978
0.148248
0.153603
0.157824
0.160783
0.162456
0.162924
0.162406
0.161292
0.15997
0.140028
0.145914
0.150986
0.155061
0.158036
0.159892
0.160703
0.160651
0.159953
0.158647
0.13901
0.144845
0.149894
0.153981
0.157006
0.158948
0.15987
0.159928
0.159228
0.157545
0.138292
0.144278
0.149468
0.153678
0.156804
0.158825
0.159795
0.159857
0.159046
0.156953
0.137676
0.143997
0.149472
0.153905
0.157191
0.159318
0.160343
0.160405
0.159505
0.157131
0.137165
0.144038
0.149943
0.15469
0.158189
0.160449
0.161547
0.161631
0.160695
0.158191
0.136892
0.144556
0.150996
0.156107
0.159832
0.162233
0.163418
0.163553
0.162644
0.160158
0.137231
0.145886
0.15287
0.158311
0.162211
0.164714
0.165974
0.166177
0.165352
0.163015
0.138336
0.148426
0.155909
0.161543
0.165465
0.167958
0.169235
0.169496
0.16879
0.166709
0.14355
0.154439
0.161286
0.166357
0.169828
0.172048
0.17321
0.173477
0.172896
0.171142
0.141953
0.148214
0.153563
0.15778
0.160739
0.162415
0.162888
0.16238
0.161276
0.15997
0.140054
0.145945
0.151019
0.155096
0.158071
0.159925
0.160732
0.160672
0.159956
0.158666
0.13901
0.144842
0.14989
0.153977
0.157002
0.158945
0.15987
0.159928
0.159211
0.157572
0.138287
0.144269
0.149459
0.153668
0.156795
0.158817
0.159793
0.159856
0.159022
0.156986
0.13767
0.143989
0.149465
0.153898
0.157186
0.159315
0.160344
0.160406
0.159478
0.157168
0.137154
0.144028
0.149935
0.154683
0.158183
0.160446
0.161549
0.161632
0.160666
0.15823
0.136868
0.144542
0.150987
0.156099
0.159827
0.162231
0.163421
0.163555
0.162615
0.160196
0.137108
0.14584
0.152854
0.158301
0.162208
0.164714
0.165977
0.166179
0.165325
0.163051
0.13806
0.148416
0.155932
0.161551
0.165471
0.167962
0.16924
0.169498
0.168766
0.166742
0.143619
0.154743
0.161422
0.166396
0.169844
0.172054
0.173214
0.173478
0.172875
0.171169
0.173487
0.169395
0.17063
0.17315
0.175346
0.176935
0.177826
0.178034
0.17755
0.176188
0.183216
0.178836
0.178646
0.179848
0.181167
0.18224
0.182877
0.183025
0.182652
0.181626
0.188586
0.186077
0.185746
0.186314
0.187094
0.187796
0.188232
0.188331
0.188059
0.187329
0.194003
0.192668
0.192376
0.192622
0.193067
0.193508
0.193793
0.193856
0.193668
0.19318
0.199582
0.198896
0.198693
0.198793
0.199041
0.199308
0.199486
0.199524
0.199403
0.199101
0.205278
0.204953
0.204834
0.204872
0.205004
0.205155
0.205257
0.205277
0.205206
0.205045
0.211078
0.210954
0.210895
0.210901
0.210956
0.211025
0.211069
0.211071
0.211035
0.210978
0.216957
0.216963
0.216935
0.216911
0.216904
0.216902
0.216892
0.21687
0.216853
0.216878
0.222927
0.223015
0.222995
0.222931
0.222856
0.222777
0.222702
0.222644
0.22263
0.222715
0.229012
0.229152
0.229114
0.228985
0.228817
0.228638
0.228476
0.228358
0.228327
0.228455
0.235262
0.235424
0.23533
0.235095
0.234794
0.234476
0.23419
0.233979
0.233901
0.234048
0.241757
0.241889
0.241684
0.241286
0.240794
0.24028
0.239819
0.23947
0.239304
0.239426
0.248612
0.248617
0.248217
0.247576
0.246816
0.246038
0.245337
0.244792
0.24448
0.244509
0.255978
0.255678
0.254959
0.253972
0.252855
0.251735
0.250725
0.249916
0.249382
0.249202
0.264057
0.263119
0.261904
0.260455
0.258893
0.25736
0.255977
0.254833
0.253977
0.253416
0.273093
0.270923
0.268968
0.266941
0.264872
0.262897
0.26111
0.259574
0.258277
0.257087
0.283215
0.278881
0.275871
0.27321
0.270665
0.268314
0.266169
0.264226
0.262362
0.260222
0.294086
0.286251
0.281961
0.278803
0.276006
0.273529
0.271226
0.268962
0.266426
0.262931
0.305348
0.292076
0.286178
0.282894
0.280377
0.278335
0.276345
0.274037
0.270806
0.265496
0.319654
0.293996
0.285694
0.283493
0.282617
0.282214
0.281496
0.279779
0.276033
0.268448
0.174197
0.169523
0.170731
0.173209
0.175367
0.176945
0.17783
0.178036
0.177568
0.176168
0.183321
0.178782
0.178684
0.179884
0.181184
0.18225
0.182883
0.183029
0.182667
0.181613
0.188589
0.186019
0.185753
0.18633
0.187104
0.187804
0.188237
0.188335
0.18807
0.18732
0.194021
0.192645
0.192379
0.19263
0.193074
0.193514
0.193798
0.193859
0.193676
0.193175
0.199593
0.198886
0.198693
0.198797
0.199045
0.199312
0.19949
0.199527
0.199408
0.199099
0.205282
0.204948
0.204833
0.204873
0.205006
0.205157
0.20526
0.205279
0.205209
0.205043
0.211079
0.210953
0.210895
0.210901
0.210957
0.211026
0.211071
0.211072
0.211036
0.210978
0.216956
0.216964
0.216934
0.216911
0.216905
0.216903
0.216893
0.216871
0.216853
0.216878
0.222926
0.223017
0.222995
0.222931
0.222856
0.222777
0.222703
0.222644
0.222628
0.222717
0.22901
0.229156
0.229114
0.228985
0.228817
0.228638
0.228477
0.228358
0.228323
0.228458
0.235259
0.235429
0.23533
0.235095
0.234794
0.234476
0.234191
0.233979
0.233897
0.234051
0.241753
0.241894
0.241683
0.241285
0.240793
0.24028
0.239819
0.23947
0.2393
0.239431
0.248607
0.24862
0.248215
0.247574
0.246815
0.246037
0.245338
0.244793
0.244478
0.244513
0.255975
0.255676
0.254955
0.253969
0.252854
0.251735
0.250726
0.249918
0.249382
0.249206
0.264057
0.263107
0.261897
0.260451
0.25889
0.25736
0.255979
0.254837
0.253984
0.253418
0.273104
0.270892
0.26896
0.266938
0.264869
0.262897
0.261112
0.25958
0.258294
0.257086
0.283271
0.278826
0.275866
0.27321
0.270661
0.268314
0.266172
0.264236
0.262395
0.260213
0.294208
0.286109
0.28194
0.278802
0.276
0.27353
0.27123
0.268976
0.266481
0.262908
0.305508
0.291752
0.286166
0.282929
0.280388
0.278347
0.276354
0.274058
0.270895
0.265453
0.320971
0.294054
0.285976
0.283677
0.282683
0.282246
0.281512
0.279809
0.276166
0.268377
0.174197
0.169523
0.170731
0.173209
0.175367
0.176945
0.17783
0.178036
0.177568
0.176168
0.183321
0.178782
0.178684
0.179884
0.181184
0.18225
0.182883
0.183029
0.182667
0.181613
0.188589
0.186019
0.185753
0.18633
0.187104
0.187804
0.188237
0.188335
0.18807
0.18732
0.194021
0.192645
0.192379
0.19263
0.193074
0.193514
0.193798
0.193859
0.193676
0.193175
0.199593
0.198886
0.198693
0.198797
0.199045
0.199312
0.19949
0.199527
0.199408
0.199099
0.205282
0.204948
0.204833
0.204873
0.205006
0.205157
0.20526
0.205279
0.205209
0.205043
0.211079
0.210953
0.210895
0.210901
0.210957
0.211026
0.211071
0.211072
0.211036
0.210978
0.216956
0.216964
0.216934
0.216911
0.216905
0.216903
0.216893
0.216871
0.216853
0.216878
0.222926
0.223017
0.222995
0.222931
0.222856
0.222777
0.222703
0.222644
0.222628
0.222717
0.22901
0.229156
0.229114
0.228985
0.228817
0.228638
0.228477
0.228358
0.228323
0.228458
0.235259
0.235429
0.23533
0.235095
0.234794
0.234476
0.234191
0.233979
0.233897
0.234051
0.241753
0.241894
0.241683
0.241285
0.240793
0.24028
0.239819
0.23947
0.2393
0.239431
0.248607
0.24862
0.248215
0.247574
0.246815
0.246037
0.245338
0.244793
0.244478
0.244513
0.255975
0.255676
0.254955
0.253969
0.252854
0.251735
0.250726
0.249918
0.249382
0.249206
0.264057
0.263107
0.261897
0.260451
0.25889
0.25736
0.255979
0.254837
0.253984
0.253418
0.273104
0.270892
0.26896
0.266938
0.264869
0.262897
0.261112
0.25958
0.258294
0.257086
0.283271
0.278826
0.275866
0.27321
0.270661
0.268314
0.266172
0.264236
0.262395
0.260213
0.294208
0.286109
0.28194
0.278802
0.276
0.27353
0.27123
0.268976
0.266481
0.262908
0.305508
0.291752
0.286166
0.282929
0.280388
0.278347
0.276354
0.274058
0.270895
0.265453
0.320971
0.294054
0.285976
0.283677
0.282683
0.282246
0.281512
0.279809
0.276166
0.268377
0.173487
0.169395
0.17063
0.17315
0.175346
0.176935
0.177826
0.178034
0.17755
0.176188
0.183216
0.178836
0.178646
0.179848
0.181167
0.18224
0.182877
0.183025
0.182652
0.181626
0.188586
0.186077
0.185746
0.186314
0.187094
0.187796
0.188232
0.188331
0.188059
0.187329
0.194003
0.192668
0.192376
0.192622
0.193067
0.193508
0.193793
0.193856
0.193668
0.19318
0.199582
0.198896
0.198693
0.198793
0.199041
0.199308
0.199486
0.199524
0.199403
0.199101
0.205278
0.204953
0.204834
0.204872
0.205004
0.205155
0.205257
0.205277
0.205206
0.205045
0.211078
0.210954
0.210895
0.210901
0.210956
0.211025
0.211069
0.211071
0.211035
0.210978
0.216957
0.216963
0.216935
0.216911
0.216904
0.216902
0.216892
0.21687
0.216853
0.216878
0.222927
0.223015
0.222995
0.222931
0.222856
0.222777
0.222702
0.222644
0.22263
0.222715
0.229012
0.229152
0.229114
0.228985
0.228817
0.228638
0.228476
0.228358
0.228327
0.228455
0.235262
0.235424
0.23533
0.235095
0.234794
0.234476
0.23419
0.233979
0.233901
0.234048
0.241757
0.241889
0.241684
0.241286
0.240794
0.24028
0.239819
0.23947
0.239304
0.239426
0.248612
0.248617
0.248217
0.247576
0.246816
0.246038
0.245337
0.244792
0.24448
0.244509
0.255978
0.255678
0.254959
0.253972
0.252855
0.251735
0.250725
0.249916
0.249382
0.249202
0.264057
0.263119
0.261904
0.260455
0.258893
0.25736
0.255977
0.254833
0.253977
0.253416
0.273093
0.270923
0.268968
0.266941
0.264872
0.262897
0.26111
0.259574
0.258277
0.257087
0.283215
0.278881
0.275871
0.27321
0.270665
0.268314
0.266169
0.264226
0.262362
0.260222
0.294086
0.286251
0.281961
0.278803
0.276006
0.273529
0.271226
0.268962
0.266426
0.262931
0.305348
0.292076
0.286178
0.282894
0.280377
0.278335
0.276345
0.274037
0.270806
0.265496
0.319654
0.293996
0.285694
0.283493
0.282617
0.282214
0.281496
0.279779
0.276033
0.268448
0.25766
0.266528
0.272737
0.277362
0.281178
0.28449
0.28662
0.286632
0.282901
0.272691
0.229465
0.24614
0.258081
0.267922
0.276955
0.285311
0.291942
0.295275
0.29259
0.279692
0.213055
0.229214
0.243055
0.256571
0.27065
0.284981
0.297867
0.306661
0.306807
0.291798
0.200027
0.214424
0.228787
0.244876
0.263579
0.284465
0.30535
0.322296
0.328102
0.312874
0.19007
0.202859
0.217222
0.235168
0.258005
0.285718
0.316219
0.344557
0.360344
0.349406
0.183605
0.19558
0.210215
0.229927
0.256699
0.29145
0.333128
0.376785
0.409165
0.411714
0.180723
0.192995
0.208737
0.230754
0.261809
0.304158
0.358869
0.422699
0.481414
0.514526
0.18081
0.194279
0.21189
0.236845
0.272797
0.323758
0.393863
0.483556
0.582793
0.685534
0.182364
0.196938
0.21595
0.242933
0.282475
0.340779
0.426552
0.548373
0.716302
0.995778
0.183851
0.197997
0.215972
0.241148
0.278338
0.335153
0.425935
0.578532
0.863912
1.4805
0.257954
0.266037
0.272604
0.277343
0.28117
0.284496
0.286624
0.286665
0.283088
0.272584
0.229901
0.246082
0.25803
0.267893
0.276934
0.285306
0.291935
0.295312
0.292848
0.279544
0.213322
0.229244
0.243039
0.256542
0.27062
0.28496
0.297841
0.306698
0.30715
0.291606
0.200123
0.214419
0.22875
0.244823
0.263518
0.284407
0.305282
0.322319
0.328526
0.312634
0.190101
0.202836
0.217164
0.235083
0.257901
0.285603
0.316085
0.344541
0.360803
0.349144
0.183613
0.195547
0.210142
0.229813
0.256543
0.29125
0.33288
0.376671
0.409554
0.411651
0.180734
0.192973
0.20867
0.230629
0.261607
0.303837
0.358405
0.422351
0.481431
0.514997
0.180851
0.194311
0.211908
0.236838
0.272732
0.323534
0.393444
0.483141
0.581553
0.685206
0.182431
0.197045
0.216125
0.243212
0.282889
0.341315
0.427262
0.548941
0.713079
0.993458
0.183908
0.198047
0.216005
0.241166
0.278364
0.335239
0.426305
0.578989
0.860251
1.48975
0.257954
0.266037
0.272604
0.277343
0.28117
0.284496
0.286624
0.286665
0.283088
0.272584
0.229901
0.246082
0.25803
0.267893
0.276934
0.285306
0.291935
0.295312
0.292848
0.279544
0.213323
0.229244
0.243039
0.256542
0.27062
0.28496
0.297841
0.306698
0.30715
0.291606
0.200123
0.214419
0.22875
0.244823
0.263518
0.284407
0.305282
0.322319
0.328526
0.312634
0.190101
0.202836
0.217164
0.235083
0.257901
0.285603
0.316085
0.344541
0.360803
0.349144
0.183613
0.195547
0.210142
0.229813
0.256543
0.29125
0.33288
0.376671
0.409554
0.411651
0.180734
0.192973
0.20867
0.230629
0.261607
0.303837
0.358405
0.422351
0.481431
0.514997
0.180851
0.194311
0.211908
0.236838
0.272732
0.323534
0.393444
0.483141
0.581553
0.685206
0.182431
0.197045
0.216125
0.243212
0.282889
0.341315
0.427262
0.548941
0.713079
0.993458
0.183908
0.198047
0.216005
0.241166
0.278364
0.335239
0.426305
0.578989
0.860251
1.48975
0.25766
0.266528
0.272737
0.277362
0.281178
0.28449
0.28662
0.286632
0.282901
0.272691
0.229465
0.24614
0.258081
0.267922
0.276955
0.285311
0.291942
0.295275
0.29259
0.279692
0.213055
0.229214
0.243055
0.256571
0.27065
0.284981
0.297867
0.306661
0.306807
0.291798
0.200027
0.214424
0.228787
0.244876
0.263579
0.284465
0.30535
0.322296
0.328102
0.312874
0.19007
0.202859
0.217222
0.235168
0.258005
0.285718
0.316219
0.344557
0.360345
0.349406
0.183605
0.19558
0.210215
0.229927
0.256699
0.29145
0.333128
0.376785
0.409165
0.411714
0.180723
0.192995
0.208737
0.230754
0.261809
0.304158
0.358869
0.422699
0.481414
0.514526
0.18081
0.194279
0.21189
0.236845
0.272797
0.323758
0.393863
0.483556
0.582793
0.685534
0.182364
0.196938
0.21595
0.242933
0.282476
0.340779
0.426552
0.548373
0.716302
0.995778
0.183851
0.197997
0.215972
0.241148
0.278338
0.335153
0.425935
0.578532
0.863912
1.4805
-0.145401
-0.125023
-0.107615
-0.0913925
-0.075044
-0.0584307
-0.041583
-0.024558
-0.00742664
0.00973579
0.0268513
0.0438451
0.0606497
0.0772098
0.0935377
0.109794
0.126418
0.144367
0.166811
0.203883
-0.133167
-0.119587
-0.105149
-0.0899577
-0.0741004
-0.0577828
-0.041134
-0.0242502
-0.0072155
0.00989535
0.0270167
0.0440901
0.0610734
0.0779659
0.0948334
0.111875
0.129481
0.148272
0.169783
0.197755
-0.130808
-0.118507
-0.104647
-0.0897059
-0.0739914
-0.057744
-0.0411211
-0.0242362
-0.00717791
0.00998189
0.0271841
0.0443807
0.0615388
0.0786527
0.0957635
0.112995
0.130579
0.148844
0.168426
0.190419
-0.132433
-0.119733
-0.105604
-0.090461
-0.0745882
-0.0582024
-0.0414551
-0.0244549
-0.00728187
0.0100027
0.0273494
0.044716
0.062066
0.0793694
0.0966088
0.113789
0.130938
0.148097
0.165386
0.182987
-0.135757
-0.122205
-0.10745
-0.0918331
-0.0756016
-0.0589391
-0.0419734
-0.0247925
-0.00745845
0.00998319
0.0274945
0.0450373
0.0625655
0.0800173
0.0973076
0.114322
0.130913
0.146899
0.162129
0.176557
-0.139069
-0.124661
-0.109253
-0.0931409
-0.0765393
-0.0595998
-0.042423
-0.0250744
-0.00759743
0.00997647
0.0276179
0.0452889
0.0629309
0.0804505
0.0977055
0.114494
0.130554
0.145594
0.159384
0.171922
-0.140604
-0.12572
-0.109979
-0.0936309
-0.0768634
-0.0598055
-0.0425412
-0.0251235
-0.00758677
0.0100429
0.0277369
0.0454524
0.0631177
0.0806162
0.0977712
0.114338
0.130016
0.1445
0.1576
0.169442
-0.13932
-0.124612
-0.109078
-0.0929245
-0.0763208
-0.059392
-0.0422246
-0.024877
-0.0073899
0.0102034
0.0278662
0.0455456
0.0631582
0.080575
0.0976086
0.114012
0.129501
0.14382
0.156869
0.168912
-0.135156
-0.121444
-0.106732
-0.0912195
-0.0750978
-0.0585213
-0.0416068
-0.0244395
-0.00708193
0.0104153
0.0280016
0.0456128
0.0631577
0.0805048
0.0974716
0.113828
0.129322
0.14375
0.157082
0.169647
-0.127913
-0.116318
-0.103169
-0.0887779
-0.0734414
-0.0574054
-0.0408594
-0.0239424
-0.00675526
0.0106261
0.0281364
0.0457063
0.0632457
0.0806285
0.097683
0.114191
0.12991
0.144629
0.158278
0.171099
-0.145634
-0.124871
-0.107595
-0.0914101
-0.0750539
-0.0584368
-0.0415876
-0.024561
-0.00742824
0.00973535
0.0268518
0.0438457
0.0606496
0.0772069
0.0935283
0.109774
0.126396
0.144323
0.166479
0.203191
-0.133115
-0.119447
-0.105089
-0.0899265
-0.0740768
-0.057766
-0.0411224
-0.0242422
-0.00721026
0.00989859
0.0270189
0.0440928
0.0610784
0.0779761
0.0948516
0.111906
0.129541
0.148348
0.169687
0.197478
-0.130859
-0.118482
-0.104624
-0.0896881
-0.0739773
-0.057734
-0.0411141
-0.0242313
-0.00717457
0.0099841
0.0271854
0.0443815
0.0615393
0.0786527
0.0957619
0.11299
0.130573
0.148827
0.168333
0.190322
-0.132463