/*--------------------------------*- C++ -*----------------------------------*\
| =========                 |                                                 |
| \\      /  F ield         | OpenFOAM: The Open Source CFD Toolbox           |
|  \\    /   O peration     | Version:  2.4.0                                 |
|   \\  /    A nd           | Web:      www.OpenFOAM.org                      |
|    \\/     M anipulation  |                                                 |
\*---------------------------------------------------------------------------*/
FoamFile
{
    version     2.0;
    format      ascii;
    class       surfaceScalarField;
    location    "0.8";
    object      phi;
}
// * * * * * * * * * * * * * * * * * * * * * * * * * * * * * * * * * * * * * //

dimensions      [0 3 -1 0 0 0 0];

internalField   nonuniform List<scalar> 
12720
(
2.69362e-08
-2.63089e-08
1.85463e-10
-6.47146e-07
6.72516e-07
1.56695e-09
-1.9817e-06
1.33239e-06
2.16748e-09
-3.7548e-06
1.77033e-06
2.76522e-09
-5.77677e-06
2.01889e-06
3.0844e-09
-7.8987e-06
2.11874e-06
3.19458e-09
-9.99907e-06
2.09719e-06
3.17549e-09
-1.19713e-05
1.96917e-06
3.02367e-09
-1.37206e-05
1.74661e-06
2.71787e-09
1.45117e-06
2.24192e-09
-1.5174e-05
-6.93216e-07
6.68176e-07
-1.26926e-09
-2.91642e-06
2.89545e-06
2.6844e-10
-6.38703e-06
4.80442e-06
-1.42659e-09
-1.07507e-05
6.13605e-06
-2.06963e-09
-1.56581e-05
6.92868e-06
-2.36178e-09
-2.07944e-05
7.25755e-06
-2.55065e-09
-2.58763e-05
7.18167e-06
-2.53952e-09
-3.06455e-05
6.74074e-06
-2.35804e-09
-3.48746e-05
5.97775e-06
-2.0745e-09
4.97181e-06
-1.79678e-09
-3.83934e-05
-1.42796e-06
2.09821e-06
-2.07045e-09
-5.02239e-06
6.48801e-06
1.87598e-09
-1.02389e-05
1.00209e-05
6.50048e-11
-1.65976e-05
1.24948e-05
-8.43957e-11
-2.36553e-05
1.39863e-05
1.04754e-10
-3.10021e-05
1.46043e-05
1.06497e-10
-3.82508e-05
1.44303e-05
1.16423e-10
-4.5032e-05
1.35218e-05
1.56245e-10
-5.10099e-05
1.19554e-05
1.96748e-10
9.88937e-06
1.05038e-10
-5.59276e-05
-1.97179e-06
4.07289e-06
-2.89675e-09
-6.64136e-06
1.11551e-05
2.52129e-09
-1.32054e-05
1.65848e-05
2.96923e-11
-2.10648e-05
2.03544e-05
-1.55151e-10
-2.97093e-05
2.26306e-05
1.54654e-10
-3.86705e-05
2.35653e-05
2.01067e-10
-4.74907e-05
2.32502e-05
2.37839e-10
-5.57095e-05
2.17402e-05
3.13343e-10
-6.28826e-05
1.91281e-05
4.48378e-10
1.56548e-05
3.74284e-10
-6.86484e-05
-2.3203e-06
6.39658e-06
-3.38904e-09
-7.71552e-06
1.65478e-05
2.4995e-09
-1.51985e-05
2.40681e-05
-2.58517e-10
-2.40813e-05
2.92377e-05
-6.08572e-10
-3.38099e-05
3.23596e-05
-3.03071e-10
-4.38831e-05
3.36387e-05
-2.63433e-10
-5.37942e-05
3.31616e-05
-2.06917e-10
-6.30004e-05
3.09465e-05
-5.78755e-11
-7.09309e-05
2.70582e-05
3.66163e-10
2.17894e-05
5.46403e-10
-7.7066e-05
-2.48412e-06
8.88431e-06
-3.6071e-09
-8.24055e-06
2.23011e-05
3.08614e-09
-1.61933e-05
3.20212e-05
-3.4287e-10
-2.56115e-05
3.86566e-05
-7.59572e-10
-3.59264e-05
4.26749e-05
-4.65273e-10
-4.66286e-05
4.43414e-05
-4.42381e-10
-5.71862e-05
4.37196e-05
-4.12598e-10
-6.69846e-05
4.07452e-05
-2.93133e-10
-7.53016e-05
3.53746e-05
5.63603e-10
2.7848e-05
1.36682e-09
-8.13616e-05
-2.47368e-06
1.13616e-05
-3.57831e-09
-8.22634e-06
2.80507e-05
3.09421e-09
-1.61852e-05
3.99804e-05
-3.6854e-10
-2.56237e-05
4.8096e-05
-8.28842e-10
-3.59865e-05
5.30384e-05
-5.85033e-10
-4.67829e-05
5.51383e-05
-6.01031e-10
-5.74874e-05
5.44249e-05
-6.63895e-10
-6.7445e-05
5.07035e-05
-8.16691e-10
-7.57781e-05
4.3707e-05
7.24497e-10
3.3377e-05
3.33229e-09
-8.13105e-05
-2.30027e-06
1.36651e-05
-3.3037e-09
-7.69662e-06
3.34441e-05
2.92828e-09
-1.51948e-05
4.7479e-05
-3.45813e-10
-2.41076e-05
5.70095e-05
-8.21478e-10
-3.3909e-05
6.28405e-05
-6.50781e-10
-4.41433e-05
6.53733e-05
-6.67408e-10
-5.43264e-05
6.46087e-05
-7.43145e-10
-6.38227e-05
6.02011e-05
-1.34689e-09
-7.16654e-05
5.15477e-05
1.9815e-09
3.78117e-05
1.18076e-08
-7.61118e-05
-1.98405e-06
1.5652e-05
-2.79357e-09
-6.70822e-06
3.81656e-05
2.63469e-09
-1.33072e-05
5.40783e-05
-2.5214e-10
-2.11444e-05
6.48474e-05
-7.23088e-10
-2.97113e-05
7.14081e-05
-6.98386e-10
-3.85672e-05
7.423e-05
-8.40527e-10
-4.72672e-05
7.33099e-05
-1.21295e-09
-5.52452e-05
6.8183e-05
-3.9316e-09
-6.16301e-05
5.79336e-05
-9.12191e-10
4.02614e-05
2.64823e-08
-6.41063e-05
-1.56381e-06
-2.08827e-09
1.72179e-05
-5.37823e-06
2.28817e-09
4.19778e-05
-1.07291e-05
-3.97573e-11
5.94292e-05
-1.70173e-05
-4.27182e-10
7.1136e-05
-2.37012e-05
-5.29515e-10
7.80925e-05
-3.026e-05
-9.42157e-10
8.07898e-05
-3.61498e-05
-2.1445e-09
7.92019e-05
-4.06882e-05
-1.07193e-08
7.2732e-05
-4.29183e-05
-2.40357e-08
6.01878e-05
5.97455e-09
-4.15617e-05
3.88989e-05
2.88719e-08
-2.87126e-08
2.63836e-11
-6.47401e-07
6.77826e-07
1.38315e-11
-1.98229e-06
1.33705e-06
1.0173e-11
-3.7549e-06
1.77537e-06
7.1468e-12
-5.77666e-06
2.02483e-06
4.78664e-12
-7.89857e-06
2.12511e-06
3.59729e-12
-9.999e-06
2.1036e-06
2.90534e-12
-1.19713e-05
1.97532e-06
2.31495e-12
-1.37208e-05
1.75221e-06
1.81571e-12
1.45581e-06
1.39068e-12
-1.51744e-05
-6.98328e-07
6.68333e-07
1.41113e-11
-2.92068e-06
2.90043e-06
1.14526e-11
-6.3907e-06
4.80563e-06
9.2545e-12
-1.07532e-05
6.13578e-06
7.05312e-12
-1.56592e-05
6.92848e-06
5.49068e-12
-2.07942e-05
7.25759e-06
4.2651e-12
-2.58752e-05
7.18201e-06
3.38065e-12
-3.06437e-05
6.74148e-06
2.68446e-12
-3.48725e-05
5.97892e-06
2.26751e-12
4.97283e-06
1.81377e-12
-3.83913e-05
-1.43274e-06
2.09899e-06
1.04283e-11
-5.02317e-06
6.49273e-06
9.73166e-12
-1.02396e-05
1.00221e-05
7.91551e-12
-1.65983e-05
1.24945e-05
6.39079e-12
-2.36556e-05
1.39859e-05
5.20361e-12
-3.1002e-05
1.4604e-05
4.17569e-12
-3.82503e-05
1.44305e-05
3.53314e-12
-4.50313e-05
1.35227e-05
2.84931e-12
-5.10093e-05
1.19571e-05
2.25892e-12
9.89088e-06
1.92964e-12
-5.59273e-05
-1.97722e-06
4.07331e-06
7.39629e-12
-6.64066e-06
1.11587e-05
7.29379e-12
-1.32045e-05
1.6586e-05
6.44324e-12
-2.10647e-05
2.03544e-05
5.49165e-12
-2.97091e-05
2.26305e-05
4.7018e-12
-3.86703e-05
2.35654e-05
4.03075e-12
-4.74903e-05
2.32507e-05
3.32084e-12
-5.5709e-05
2.17417e-05
2.80307e-12
-6.28827e-05
1.91312e-05
2.41785e-12
1.56578e-05
2.01939e-12
-6.86492e-05
-2.32673e-06
6.39664e-06
5.70703e-12
-7.71483e-06
1.65493e-05
5.21418e-12
-1.51975e-05
2.40684e-05
5.22002e-12
-2.4081e-05
2.92373e-05
4.69321e-12
-3.38098e-05
3.23589e-05
4.11281e-12
-4.38829e-05
3.36382e-05
3.5828e-12
-5.37938e-05
3.31614e-05
3.16486e-12
-6.29997e-05
3.09475e-05
2.74187e-12
-7.09309e-05
2.70628e-05
2.22312e-12
2.17953e-05
1.81617e-12
-7.70678e-05
-2.49119e-06
8.88422e-06
4.76609e-12
-8.23979e-06
2.2301e-05
4.73282e-12
-1.61924e-05
3.20207e-05
4.4575e-12
-2.56115e-05
3.86557e-05
3.95588e-12
-3.59267e-05
4.26736e-05
3.65328e-12
-4.66289e-05
4.434e-05
3.27518e-12
-5.71862e-05
4.37183e-05
2.90418e-12
-6.69837e-05
4.07447e-05
2.4613e-12
-7.53014e-05
3.53811e-05
2.02147e-12
2.78603e-05
1.71997e-12
-8.1365e-05
-2.48076e-06
1.13614e-05
4.05529e-12
-8.22568e-06
2.8049e-05
4.10983e-12
-1.61845e-05
3.99791e-05
3.75275e-12
-2.56242e-05
4.80945e-05
3.50396e-12
-3.59876e-05
5.30365e-05
3.21053e-12
-4.67843e-05
5.5136e-05
2.90734e-12
-5.74885e-05
5.44219e-05
2.5935e-12
-6.74442e-05
5.06996e-05
2.21718e-12
-7.5777e-05
4.37145e-05
1.85552e-12
3.34042e-05
1.53821e-12
-8.13175e-05
-2.30684e-06
1.36649e-05
3.4652e-12
-7.69612e-06
3.34412e-05
3.52502e-12
-1.51946e-05
4.74772e-05
3.30027e-12
-2.41088e-05
5.70079e-05
3.06342e-12
-3.39112e-05
6.28382e-05
2.80247e-12
-4.41461e-05
6.53703e-05
2.56965e-12
-5.4329e-05
6.4604e-05
2.35986e-12
-6.38214e-05
6.01906e-05
2.085e-12
-7.16544e-05
5.15496e-05
1.79981e-12
3.78814e-05
1.54397e-12
-7.61198e-05
-1.98966e-06
1.56518e-05
2.90268e-12
-6.70782e-06
3.8162e-05
2.89288e-12
-1.33073e-05
5.40765e-05
2.87134e-12
-2.11464e-05
6.48463e-05
2.58603e-12
-2.97155e-05
7.14066e-05
2.44101e-12
-3.85742e-05
7.42282e-05
2.24412e-12
-4.72786e-05
7.33072e-05
2.10117e-12
-5.52597e-05
6.81678e-05
1.84181e-12
-6.16085e-05
5.78975e-05
1.60271e-12
4.03621e-05
1.54067e-12
-6.40628e-05
-1.56802e-06
2.44426e-12
1.72177e-05
-5.37756e-06
2.46305e-12
4.19738e-05
-1.07287e-05
2.4208e-12
5.94276e-05
-1.70185e-05
2.26217e-12
7.11356e-05
-2.37056e-05
2.12362e-12
7.80931e-05
-3.02705e-05
1.98602e-12
8.07922e-05
-3.61746e-05
1.83653e-12
7.92092e-05
-4.07614e-05
1.55282e-12
7.27439e-05
-4.30331e-05
1.23361e-12
6.01452e-05
1.29455e-12
-4.13714e-05
3.87063e-05
2.88274e-08
-2.87567e-08
-4.39998e-11
-6.47437e-07
6.77797e-07
-1.51819e-09
-1.98231e-06
1.33703e-06
-2.14459e-09
-3.75492e-06
1.77536e-06
-2.75203e-09
-5.77667e-06
2.02483e-06
-3.0757e-09
-7.89858e-06
2.1251e-06
-3.18826e-09
-9.999e-06
2.1036e-06
-3.17079e-09
-1.19713e-05
1.97532e-06
-3.01998e-09
-1.37208e-05
1.75221e-06
-2.7149e-09
1.45581e-06
-2.23936e-09
-1.51744e-05
-6.98356e-07
6.68296e-07
1.31806e-09
-2.92071e-06
2.9004e-06
-2.39198e-10
-6.39072e-06
4.80561e-06
1.44541e-09
-1.07532e-05
6.13576e-06
2.08215e-09
-1.56592e-05
6.92847e-06
2.37049e-09
-2.07942e-05
7.25758e-06
2.55728e-09
-2.58752e-05
7.18201e-06
2.54469e-09
-3.06437e-05
6.74148e-06
2.36217e-09
-3.48725e-05
5.97891e-06
2.07778e-09
4.97282e-06
1.79952e-09
-3.83913e-05
-1.43276e-06
2.09897e-06
2.09374e-09
-5.02319e-06
6.4927e-06
-1.85704e-09
-1.02396e-05
1.0022e-05
-5.07288e-11
-1.65983e-05
1.24944e-05
9.49361e-11
-2.36556e-05
1.39859e-05
-9.6668e-11
-3.1002e-05
1.4604e-05
-1.00113e-10
-3.82503e-05
1.44304e-05
-1.11383e-10
-4.50313e-05
1.35226e-05
-1.52074e-10
-5.10093e-05
1.19571e-05
-1.93284e-10
9.89088e-06
-1.02311e-10
-5.59273e-05
-1.97723e-06
4.07329e-06
2.91049e-09
-6.64067e-06
1.11587e-05
-2.50841e-09
-1.32046e-05
1.6586e-05
-1.88937e-11
-2.10647e-05
2.03544e-05
1.63925e-10
-2.97091e-05
2.26305e-05
-1.47543e-10
-3.86703e-05
2.35653e-05
-1.95199e-10
-4.74903e-05
2.32507e-05
-2.3288e-10
-5.5709e-05
2.17417e-05
-3.09279e-10
-6.28827e-05
1.91312e-05
-4.45101e-10
1.56578e-05
-3.71617e-10
-6.86492e-05
-2.32673e-06
6.39663e-06
3.39801e-09
-7.71483e-06
1.65493e-05
-2.49253e-09
-1.51975e-05
2.40684e-05
2.66886e-10
-2.4081e-05
2.92373e-05
6.15906e-10
-3.38098e-05
3.23589e-05
3.09374e-10
-4.38829e-05
3.36382e-05
2.68817e-10
-5.37938e-05
3.31614e-05
2.11437e-10
-6.29997e-05
3.09475e-05
6.17165e-11
-7.09309e-05
2.70628e-05
-3.62947e-10
2.17953e-05
-5.43884e-10
-7.70678e-05
-2.49119e-06
8.88421e-06
3.61373e-09
-8.23978e-06
2.23009e-05
-3.0789e-09
-1.61924e-05
3.20206e-05
3.49696e-10
-2.56115e-05
3.86556e-05
7.65779e-10
-3.59267e-05
4.26736e-05
4.7073e-10
-4.66289e-05
4.434e-05
4.47166e-10
-5.71862e-05
4.37183e-05
4.16765e-10
-6.69837e-05
4.07447e-05
2.96717e-10
-7.53014e-05
3.53811e-05
-5.6067e-10
2.78603e-05
-1.36454e-09
-8.1365e-05
-2.48076e-06
1.13614e-05
3.58377e-09
-8.22568e-06
2.80489e-05
-3.08831e-09
-1.61845e-05
3.99791e-05
3.74279e-10
-2.56242e-05
4.80945e-05
8.34058e-10
-3.59876e-05
5.30364e-05
5.89821e-10
-4.67843e-05
5.5136e-05
6.05249e-10
-5.74885e-05
5.44219e-05
6.67595e-10
-6.74442e-05
5.06996e-05
8.19865e-10
-7.5777e-05
4.37145e-05
-7.21905e-10
3.34042e-05
-3.33023e-09
-8.13175e-05
-2.30684e-06
1.36649e-05
3.30825e-09
-7.69611e-06
3.34411e-05
-2.92336e-09
-1.51946e-05
4.74772e-05
3.50565e-10
-2.41088e-05
5.70079e-05
8.25939e-10
-3.39112e-05
6.28382e-05
6.54866e-10
-4.41461e-05
6.53703e-05
6.71047e-10
-5.4329e-05
6.4604e-05
7.46337e-10
-6.38214e-05
6.01906e-05
1.34959e-09
-7.16544e-05
5.15496e-05
-1.9793e-09
3.78814e-05
-1.18058e-08
-7.61198e-05
-1.98966e-06
1.56518e-05
2.79742e-09
-6.70782e-06
3.81619e-05
-2.63052e-09
-1.33073e-05
5.40765e-05
2.56079e-10
-2.11464e-05
6.48462e-05
7.26891e-10
-2.97155e-05
7.14066e-05
7.01868e-10
-3.85742e-05
7.42282e-05
8.43717e-10
-4.72786e-05
7.33072e-05
1.21573e-09
-5.52597e-05
6.81677e-05
3.93397e-09
-6.16085e-05
5.78975e-05
9.14194e-10
4.03621e-05
-2.64807e-08
-6.40628e-05
-1.56802e-06
2.09136e-09
1.72177e-05
-5.37756e-06
-2.28478e-09
4.19738e-05
-1.07287e-05
4.30592e-11
5.94276e-05
-1.70185e-05
4.30311e-10
7.11356e-05
-2.37056e-05
5.32508e-10
7.80931e-05
-3.02705e-05
9.4488e-10
8.07921e-05
-3.61746e-05
2.14694e-09
7.92092e-05
-4.07614e-05
1.07215e-08
7.27439e-05
-4.30332e-05
2.40377e-08
6.01452e-05
-5.97283e-09
-4.13714e-05
3.87063e-05
2.66005e-08
-2.66442e-08
-6.47303e-07
6.72387e-07
-1.98178e-06
1.33233e-06
-3.75484e-06
1.77031e-06
-5.77679e-06
2.01888e-06
-7.89871e-06
2.11873e-06
-9.99907e-06
2.09719e-06
-1.19713e-05
1.96917e-06
-1.37206e-05
1.74661e-06
1.45117e-06
-1.5174e-05
-6.93344e-07
6.68017e-07
-2.91653e-06
2.89534e-06
-6.3871e-06
4.80435e-06
-1.07507e-05
6.13601e-06
-1.56581e-05
6.92865e-06
-2.07944e-05
7.25753e-06
-2.58763e-05
7.18166e-06
-3.06455e-05
6.74073e-06
-3.48746e-05
5.97774e-06
4.9718e-06
-3.83934e-05
-1.42802e-06
2.09813e-06
-5.02245e-06
6.48792e-06
-1.0239e-05
1.00208e-05
-1.65976e-05
1.24948e-05
-2.36553e-05
1.39863e-05
-3.10021e-05
1.46042e-05
-3.82508e-05
1.44303e-05
-4.5032e-05
1.35218e-05
-5.10098e-05
1.19554e-05
9.88937e-06
-5.59275e-05
-1.97181e-06
4.07284e-06
-6.64138e-06
1.1155e-05
-1.32054e-05
1.65848e-05
-2.10648e-05
2.03544e-05
-2.97093e-05
2.26306e-05
-3.86705e-05
2.35653e-05
-4.74907e-05
2.32502e-05
-5.57094e-05
2.17402e-05
-6.28826e-05
1.91281e-05
1.56547e-05
-6.86483e-05
-2.32031e-06
6.39655e-06
-7.71553e-06
1.65477e-05
-1.51986e-05
2.40681e-05
-2.40812e-05
2.92377e-05
-3.38099e-05
3.23595e-05
-4.3883e-05
3.36387e-05
-5.37942e-05
3.31616e-05
-6.30004e-05
3.09465e-05
-7.09308e-05
2.70581e-05
2.17894e-05
-7.7066e-05
-2.48412e-06
8.88428e-06
-8.24055e-06
2.23011e-05
-1.61933e-05
3.20212e-05
-2.56115e-05
3.86566e-05
-3.59263e-05
4.26749e-05
-4.66286e-05
4.43413e-05
-5.71862e-05
4.37196e-05
-6.69845e-05
4.07451e-05
-7.53015e-05
3.53746e-05
2.7848e-05
-8.13615e-05
-2.47368e-06
1.13615e-05
-8.22634e-06
2.80506e-05
-1.61852e-05
3.99804e-05
-2.56236e-05
4.80959e-05
-3.59865e-05
5.30383e-05
-4.67829e-05
5.51383e-05
-5.74874e-05
5.44248e-05
-6.74449e-05
5.07035e-05
-7.57781e-05
4.3707e-05
3.3377e-05
-8.13105e-05
-2.30026e-06
1.36651e-05
-7.69661e-06
3.34441e-05
-1.51948e-05
4.74789e-05
-2.41075e-05
5.70094e-05
-3.3909e-05
6.28404e-05
-4.41433e-05
6.53733e-05
-5.43264e-05
6.46086e-05
-6.38227e-05
6.02011e-05
-7.16653e-05
5.15477e-05
3.78117e-05
-7.61118e-05
-1.98405e-06
1.5652e-05
-6.70821e-06
3.81656e-05
-1.33072e-05
5.40782e-05
-2.11444e-05
6.48474e-05
-2.97113e-05
7.1408e-05
-3.85672e-05
7.423e-05
-4.72672e-05
7.33099e-05
-5.52452e-05
6.8183e-05
-6.16301e-05
5.79336e-05
4.02614e-05
-6.41063e-05
-1.56381e-06
1.72179e-05
-5.37822e-06
4.19777e-05
-1.07291e-05
5.94292e-05
-1.70173e-05
7.11359e-05
-2.37012e-05
7.80925e-05
-3.026e-05
8.07898e-05
-3.61498e-05
7.92019e-05
-4.06882e-05
7.2732e-05
-4.29183e-05
6.01878e-05
-4.15617e-05
3.88989e-05
-1.62989e-05
1.12326e-06
1.65305e-09
-1.7114e-05
8.1396e-07
1.12659e-09
-1.76719e-05
5.57176e-07
7.21615e-10
-1.80365e-05
3.64194e-07
4.35494e-10
-1.82677e-05
2.30938e-07
2.50276e-10
-1.84141e-05
1.46257e-07
1.40716e-10
-1.85121e-05
9.7915e-08
8.34698e-11
-1.85878e-05
7.56286e-08
6.08424e-11
-1.86597e-05
7.18371e-08
6.11495e-11
-1.87409e-05
8.11684e-08
7.77196e-11
-1.88403e-05
9.9277e-08
1.06331e-10
-1.89619e-05
1.21387e-07
1.43032e-10
-1.91027e-05
1.40666e-07
1.82308e-10
-1.92495e-05
1.46596e-07
2.13662e-10
-1.93734e-05
1.23691e-07
2.1795e-10
-1.94256e-05
5.19878e-08
1.7064e-10
-1.93314e-05
-9.42153e-08
5.4002e-11
-1.8998e-05
-3.33201e-07
-2.03902e-10
-1.83225e-05
-6.74839e-07
-6.44647e-10
-1.10216e-06
-1.29604e-09
-1.72191e-05
-4.11302e-05
3.86162e-06
-1.59289e-09
-4.31322e-05
2.81734e-06
-1.32299e-09
-4.45233e-05
1.94926e-06
-1.03118e-09
-4.54513e-05
1.29299e-06
-7.68985e-10
-4.60544e-05
8.34598e-07
-5.54001e-10
-4.64454e-05
5.37601e-07
-3.93342e-10
-4.67091e-05
3.61938e-07
-2.84916e-10
-4.69067e-05
2.73387e-07
-2.20743e-10
-4.70806e-05
2.45943e-07
-1.90701e-10
-4.72594e-05
2.60203e-07
-1.84012e-10
-4.74598e-05
2.99814e-07
-1.89494e-10
-4.76852e-05
3.47013e-07
-1.94074e-10
-4.79221e-05
3.77769e-07
-1.80419e-10
-4.81325e-05
3.57097e-07
-1.25815e-10
-4.82445e-05
2.35714e-07
-1.85006e-12
-4.8143e-05
-4.97757e-08
2.17244e-10
-4.76674e-05
-5.70316e-07
5.3817e-10
-4.66162e-05
-1.38538e-06
9.7465e-10
-4.47776e-05
-2.51492e-06
1.48791e-09
-3.90081e-06
1.95624e-09
-4.19809e-05
-5.96824e-05
7.61671e-06
-2.24293e-10
-6.23725e-05
5.50778e-06
-3.5873e-10
-6.42058e-05
3.78297e-06
-3.74588e-10
-6.54097e-05
2.49725e-06
-3.44223e-10
-6.61829e-05
1.60803e-06
-2.85729e-10
-6.66792e-05
1.03418e-06
-2.21633e-10
-6.701e-05
6.92839e-07
-1.65704e-10
-6.72521e-05
5.15651e-07
-1.22108e-10
-6.74576e-05
4.51528e-07
-9.05851e-11
-6.76599e-05
4.6255e-07
-6.84219e-11
-6.78769e-05
5.16891e-07
-5.14016e-11
-6.81103e-05
5.80442e-07
-3.44745e-11
-6.83404e-05
6.07888e-07
-1.20092e-11
-6.85174e-05
5.34028e-07
2.24777e-11
-6.85489e-05
2.67201e-07
7.66037e-11
-6.82875e-05
-3.11372e-07
1.52345e-10
-6.75218e-05
-1.33629e-06
2.42219e-10
-6.59815e-05
-2.92601e-06
3.45639e-10
-6.33695e-05
-5.1273e-06
4.40734e-10
-7.8373e-06
3.61303e-10
-5.94334e-05
-7.28659e-05
1.18345e-05
-3.03223e-10
-7.57325e-05
8.37489e-06
-4.80677e-10
-7.75839e-05
5.63484e-06
-4.59195e-10
-7.87398e-05
3.6535e-06
-3.99999e-10
-7.94493e-05
2.31787e-06
-3.13449e-10
-7.98873e-05
1.47239e-06
-2.28693e-10
-8.01692e-05
9.74924e-07
-1.6049e-10
-8.03693e-05
7.15837e-07
-1.09902e-10
-8.05346e-05
6.16915e-07
-7.43402e-11
-8.06941e-05
6.22155e-07
-4.99173e-11
-8.08631e-05
6.85895e-07
-3.26721e-11
-8.10427e-05
7.60071e-07
-1.88733e-11
-8.12157e-05
7.80899e-07
-4.53964e-12
-8.13371e-05
6.55411e-07
1.55564e-11
-8.13196e-05
2.49645e-07
4.97008e-11
-8.10147e-05
-6.16443e-07
1.04518e-10
-8.01924e-05
-2.1587e-06
1.81197e-10
-7.85321e-05
-4.58658e-06
2.92158e-10
-7.56417e-05
-8.01827e-06
4.70178e-10
-1.23393e-05
3.95484e-10
-7.114e-05
-8.11888e-05
1.59581e-05
-8.29762e-10
-8.36956e-05
1.08826e-05
-8.99966e-10
-8.51274e-05
7.06738e-06
-6.93624e-10
-8.5914e-05
4.44064e-06
-5.32065e-10
-8.63389e-05
2.74309e-06
-3.68583e-10
-8.65707e-05
1.70449e-06
-2.37735e-10
-8.67043e-05
1.10864e-06
-1.49457e-10
-8.67916e-05
8.0318e-07
-9.32308e-11
-8.68613e-05
6.86733e-07
-5.92931e-11
-8.69301e-05
6.90928e-07
-4.03685e-11
-8.70069e-05
7.62776e-07
-3.10497e-11
-8.70947e-05
8.47846e-07
-2.72705e-11
-8.71869e-05
8.73124e-07
-2.54414e-11
-8.726e-05
7.28572e-07
-1.97176e-11
-8.72582e-05
2.47803e-07
3.85916e-12
-8.70673e-05
-8.0737e-07
6.16626e-11
-8.64771e-05
-2.74908e-06
1.5579e-10
-8.51392e-05
-5.92473e-06
3.28338e-10
-8.2546e-05
-1.06123e-05
8.00404e-10
-1.6791e-05
1.02826e-09
-7.80954e-05
-8.47601e-05
1.93585e-05
-1.86711e-09
-8.63126e-05
1.24365e-05
-1.49687e-09
-8.6887e-05
7.64266e-06
-8.73055e-10
-8.70225e-05
4.57671e-06
-5.76663e-10
-8.69945e-05
2.71537e-06
-3.35455e-10
-8.69232e-05
1.63336e-06
-1.73408e-10
-8.68517e-05
1.03729e-06
-8.48425e-11
-8.67905e-05
7.41986e-07
-3.88382e-11
-8.67386e-05
6.34877e-07
-1.64932e-11
-8.66937e-05
6.45991e-07
-7.52387e-12
-8.66558e-05
7.2493e-07
-6.68878e-12
-8.66297e-05
8.21702e-07
-1.17286e-11
-8.66243e-05
8.678e-07
-2.16883e-11
-8.665e-05
7.543e-07
-3.3796e-11
-8.67066e-05
3.04425e-07
-3.16586e-11
-8.67555e-05
-7.58523e-07
1.42104e-11
-8.66629e-05
-2.84173e-06
8.19386e-11
-8.6109e-05
-6.47886e-06
2.57915e-10
-8.44733e-05
-1.22494e-05
1.32036e-09
-2.0476e-05
2.50587e-09
-8.07908e-05
-8.31712e-05
2.12243e-05
-5.07194e-09
-8.30972e-05
1.23657e-05
-3.14491e-09
-8.24285e-05
6.97538e-06
-1.35294e-09
-8.17387e-05
3.88758e-06
-7.03586e-10
-8.11984e-05
2.17533e-06
-2.97988e-10
-8.08157e-05
1.25079e-06
-8.94784e-11
-8.05495e-05
7.71054e-07
-1.01065e-11
-8.0354e-05
5.46476e-07
1.59828e-11
-8.01931e-05
4.74018e-07
2.05068e-11
-8.00432e-05
4.96033e-07
1.55475e-11
-7.98933e-05
5.7503e-07
5.13931e-12
-7.97473e-05
6.75722e-07
-1.0376e-11
-7.96276e-05
7.48111e-07
-3.17084e-11
-7.95795e-05
7.06296e-07
-5.89196e-11
-7.96719e-05
3.96827e-07
-6.70897e-11
-7.99799e-05
-4.50526e-07
2.35998e-11
-8.05269e-05
-2.29487e-06
1.75077e-10
-8.11444e-05
-5.86186e-06
5.09863e-10
-8.1198e-05
-1.21989e-05
3.02068e-09
-2.24802e-05
6.82548e-09
-7.92006e-05
-7.52248e-05
2.0346e-05
-8.72846e-09
-7.2849e-05
9.99313e-06
-3.28722e-09
-7.07747e-05
4.90165e-06
-5.72291e-10
-6.93284e-05
2.44161e-06
-2.50336e-10
-6.84034e-05
1.25031e-06
1.40259e-11
-6.78272e-05
6.74445e-07
1.13314e-10
-6.7458e-05
4.01749e-07
1.05096e-10
-6.71975e-05
2.85834e-07
8.38942e-11
-6.69815e-05
2.58018e-07
6.81424e-11
-6.67705e-05
2.84989e-07
5.73712e-11
-6.65437e-05
3.4817e-07
4.86796e-11
-6.62997e-05
4.31622e-07
3.74633e-11
-6.6063e-05
5.11447e-07
1.61216e-11
-6.5898e-05
5.41297e-07
-3.29956e-11
-6.59274e-05
4.26371e-07
-9.40747e-11
-6.63477e-05
-3.02581e-08
-4.2965e-13
-6.74104e-05
-1.2322e-06
7.49105e-11
-6.93059e-05
-3.96611e-06
-2.95647e-10
-7.17297e-05
-9.77786e-06
2.78066e-09
-2.14927e-05
1.11216e-08
-7.27284e-05
-5.82782e-05
1.45291e-05
-1.11258e-08
-5.33849e-05
5.09513e-06
4.70134e-09
-5.04186e-05
1.93029e-06
5.06224e-09
-4.87576e-05
7.78548e-07
2.01222e-09
-4.78436e-05
3.3534e-07
9.89079e-10
-4.73305e-05
1.60732e-07
5.7126e-10
-4.70215e-05
9.24158e-08
3.23503e-10
-4.6806e-05
7.01483e-08
2.15299e-10
-4.66199e-05
7.17229e-08
1.88797e-10
-4.64241e-05
8.89576e-08
2.04532e-10
-4.6195e-05
1.18818e-07
2.43869e-10
-4.59232e-05
1.59552e-07
2.92215e-10
-4.56198e-05
2.07791e-07
3.23317e-10
-4.53328e-05
2.5399e-07
2.68359e-10
-4.51789e-05
2.72424e-07
3.65936e-11
-4.54014e-05
1.92625e-07
-3.43071e-10
-4.64274e-05
-2.04768e-07
-1.43886e-09
-4.8986e-05
-1.40149e-06
-6.01004e-09
-5.38731e-05
-4.88332e-06
-7.49299e-09
-1.51965e-05
1.29547e-08
-6.01822e-05
-2.69742e-05
-5.84907e-08
-2.18704e-05
-8.66581e-09
-1.99398e-05
-3.05406e-10
-1.91598e-05
-1.43601e-09
-1.88236e-05
-9.04965e-10
-1.86625e-05
-3.8597e-10
-1.85698e-05
-1.9766e-10
-1.84996e-05
-1.24642e-10
-1.84277e-05
-9.64364e-11
-1.83387e-05
-9.64577e-11
-1.82198e-05
-1.14431e-10
-1.80601e-05
-1.40809e-10
-1.78521e-05
-1.62056e-10
-1.7598e-05
-1.54424e-10
-1.73255e-05
-3.06837e-11
-1.71333e-05
4.52716e-10
-1.7339e-05
8.45107e-10
-1.87388e-05
-1.68765e-09
-2.36269e-05
4.77396e-09
6.9478e-08
-3.88928e-05
-1.62993e-05
1.12654e-06
1.23497e-12
-1.71143e-05
8.16128e-07
1.08511e-12
-1.76721e-05
5.58545e-07
7.9126e-13
-1.80367e-05
3.65005e-07
5.28901e-13
-1.82678e-05
2.31396e-07
5.29418e-13
-1.84142e-05
1.46514e-07
5.75359e-13
-1.85122e-05
9.80723e-08
3.41426e-13
-1.85879e-05
7.5755e-08
6.80718e-14
-1.86598e-05
7.1977e-08
1.21665e-13
-1.8741e-05
8.13501e-08
1.84269e-13
-1.88405e-05
9.9519e-08
8.49516e-16
-1.8962e-05
1.21697e-07
-1.30543e-13
-1.91029e-05
1.4104e-07
-1.46943e-13
-1.92497e-05
1.47008e-07
-1.28787e-13
-1.93735e-05
1.24087e-07
-4.80756e-14
-1.94255e-05
5.21141e-08
5.7734e-14
-1.93312e-05
-9.41758e-08
2.0185e-13
-1.89978e-05
-3.33701e-07
3.19289e-13
-1.83223e-05
-6.76105e-07
4.90654e-13
-1.10466e-06
8.02025e-13
-1.72189e-05
-4.11279e-05
3.86157e-06
1.48271e-12
-4.313e-05
2.81687e-06
1.24499e-12
-4.45213e-05
1.94881e-06
9.59573e-13
-4.54497e-05
1.29264e-06
6.65675e-13
-4.60532e-05
8.34364e-07
4.00509e-13
-4.64446e-05
5.37462e-07
3.82621e-13
-4.67086e-05
3.6186e-07
4.25108e-13
-4.69065e-05
2.7334e-07
3.66773e-13
-4.70806e-05
2.45901e-07
2.51783e-13
-4.72595e-05
2.60143e-07
6.39298e-14
-4.74599e-05
2.99715e-07
-1.01548e-13
-4.76853e-05
3.46856e-07
-1.56824e-13
-4.7922e-05
3.77545e-07
-1.31624e-13
-4.81319e-05
3.56816e-07
-7.43527e-14
-4.82432e-05
2.35419e-07
5.48696e-15
-4.81409e-05
-4.99932e-08
6.60421e-14
-4.76644e-05
-5.70192e-07
8.17718e-14
-4.66124e-05
-1.3847e-06
1.63102e-13
-4.47735e-05
-2.51351e-06
4.02178e-13
-3.89922e-06
6.78418e-13
-4.1977e-05
-5.96816e-05
7.61566e-06
1.64124e-12
-6.23712e-05
5.50609e-06
1.22229e-12
-6.42044e-05
3.78162e-06
8.97231e-13
-6.54084e-05
2.49632e-06
7.6933e-13
-6.61818e-05
1.60746e-06
6.19925e-13
-6.66784e-05
1.03388e-06
4.61168e-13
-6.70094e-05
6.92696e-07
2.42048e-13
-6.72518e-05
5.15583e-07
8.14957e-14
-6.74575e-05
4.51473e-07
3.03778e-14
-6.76598e-05
4.62465e-07
5.81663e-14
-6.78769e-05
5.16736e-07
5.50116e-14
-6.81103e-05
5.80183e-07
6.98811e-14
-6.83402e-05
6.075e-07
7.50602e-14
-6.85169e-05
5.33521e-07
6.4007e-14
-6.85481e-05
2.6665e-07
3.83256e-14
-6.82861e-05
-3.11798e-07
3.58146e-15
-6.75198e-05
-1.33626e-06
3.03585e-14
-6.59792e-05
-2.92502e-06
1.2831e-13
-6.33674e-05
-5.12484e-06
3.00477e-13
-7.83446e-06
4.07251e-13
-5.94318e-05
-7.28655e-05
1.18317e-05
1.57131e-12
-7.57312e-05
8.37126e-06
1.14405e-12
-7.75823e-05
5.6323e-06
8.94362e-13
-7.87383e-05
3.65188e-06
7.94774e-13
-7.94481e-05
2.31696e-06
6.19069e-13
-7.98864e-05
1.47195e-06
3.76174e-13
-8.01686e-05
9.74738e-07
2.33402e-13
-8.03689e-05
7.15769e-07
1.79165e-13
-8.05344e-05
6.16876e-07
7.35993e-14
-8.0694e-05
6.22083e-07
-1.82371e-14
-8.08631e-05
6.8574e-07
-6.4382e-14
-8.10427e-05
7.59785e-07
8.21346e-15
-8.12156e-05
7.80443e-07
5.74021e-14
-8.13369e-05
6.54776e-07
1.66363e-14
-8.13191e-05
2.4892e-07
-5.55176e-14
-8.10137e-05
-6.17089e-07
-7.42752e-14
-8.01909e-05
-2.15884e-06
-1.47784e-14
-7.85303e-05
-4.58537e-06
5.05569e-14
-7.56403e-05
-8.0144e-06
9.97913e-14
-1.23346e-05
1.92667e-13
-7.11397e-05
-8.1188e-05
1.5951e-05
1.52776e-12
-8.36932e-05
1.08756e-05
1.23493e-12
-8.5125e-05
7.06341e-06
9.21089e-13
-8.59121e-05
4.43842e-06
6.54582e-13
-8.63375e-05
2.74198e-06
5.03e-13
-8.65698e-05
1.70403e-06
4.51414e-13
-8.67037e-05
1.1085e-06
3.85518e-13
-8.67912e-05
8.03157e-07
2.423e-13
-8.68611e-05
6.86729e-07
4.88053e-15
-8.69299e-05
6.90879e-07
-1.32736e-13
-8.70069e-05
7.6263e-07
-5.87311e-14
-8.70947e-05
8.47547e-07
3.63982e-14
-8.71868e-05
8.72613e-07
-3.76047e-15
-8.72599e-05
7.27808e-07
-1.0948e-13
-8.72579e-05
2.46878e-07
-1.41777e-13
-8.70665e-05
-8.08338e-07
-1.12927e-13
-8.64756e-05
-2.74963e-06
-9.00845e-14
-8.51371e-05
-5.92356e-06
-6.52635e-14
-8.25445e-05
-1.06062e-05
-1.14889e-14
-1.67821e-05
1.13238e-13
-7.8096e-05
-8.47579e-05
1.93419e-05
1.39951e-12
-8.63083e-05
1.24246e-05
1.08243e-12
-8.68835e-05
7.63771e-06
9.10203e-13
-8.70202e-05
4.57452e-06
7.49858e-13
-8.6993e-05
2.71454e-06
5.74849e-13
-8.69224e-05
1.63317e-06
3.751e-13
-8.68513e-05
1.03733e-06
1.68175e-13
-8.67902e-05
7.42075e-07
4.78201e-14
-8.67385e-05
6.34942e-07
-2.93619e-15
-8.66936e-05
6.45991e-07
1.38078e-14
-8.66558e-05
7.24825e-07
5.06075e-14
-8.66297e-05
8.21437e-07
-2.17125e-16
-8.66244e-05
8.67298e-07
-1.10423e-13
-8.66501e-05
7.5347e-07
-1.45246e-13
-8.67066e-05
3.03298e-07
-1.46234e-13
-8.6755e-05
-7.59916e-07
-2.08311e-13
-8.66614e-05
-2.84313e-06
-2.88649e-13
-8.61061e-05
-6.47859e-06
-2.74194e-13
-8.44709e-05
-1.22401e-05
-1.37924e-13
-2.04574e-05
-3.21353e-14
-8.07931e-05
-8.31654e-05
2.11847e-05
1.15963e-12
-8.30894e-05
1.23454e-05
8.62067e-13
-8.24237e-05
6.97058e-06
8.14504e-13
-8.17363e-05
3.88642e-06
6.59224e-13
-8.11973e-05
2.17528e-06
4.85147e-13
-8.08153e-05
1.25109e-06
2.85102e-13
-8.05493e-05
7.71338e-07
2.64427e-13
-8.03539e-05
5.4667e-07
2.04034e-13
-8.01931e-05
4.74125e-07
1.19679e-13
-8.00431e-05
4.96056e-07
2.68576e-14
-7.98932e-05
5.74951e-07
-5.50661e-14
-7.97473e-05
6.75492e-07
-1.18578e-13
-7.96277e-05
7.47639e-07
-1.15648e-13
-7.95797e-05
7.05431e-07
-1.09149e-13
-7.96719e-05
3.95479e-07
-2.20521e-13
-7.99795e-05
-4.52341e-07
-3.81995e-13
-8.05252e-05
-2.29729e-06
-4.88446e-13
-8.11402e-05
-5.86304e-06
-4.62749e-13
-8.11938e-05
-1.21834e-05
-3.86312e-13
-2.24365e-05
-4.64589e-13
-7.92079e-05
-7.52139e-05
2.027e-05
1.12692e-12
-7.28415e-05
9.96971e-06
7.10652e-13
-7.07724e-05
4.90094e-06
6.81235e-13
-6.93285e-05
2.44227e-06
5.60667e-13
-6.84041e-05
1.25083e-06
4.71108e-13
-6.78278e-05
6.74885e-07
3.85381e-13
-6.74583e-05
4.02021e-07
3.15105e-13
-6.71976e-05
2.85979e-07
1.86269e-13
-6.69815e-05
2.58092e-07
3.03544e-14
-6.67704e-05
2.85015e-07
-8.30712e-14
-6.65435e-05
3.4815e-07
-1.22474e-13
-6.62995e-05
4.31534e-07
-8.88629e-14
-6.60631e-05
5.11229e-07
-6.18774e-14
-6.58985e-05
5.40803e-07
-1.68604e-13
-6.59285e-05
4.25348e-07
-3.41606e-13
-6.63493e-05
-3.15194e-08
-5.07639e-13
-6.74124e-05
-1.23409e-06
-6.22076e-13
-6.93063e-05
-3.96949e-06
-6.31674e-13
-7.1726e-05
-9.7609e-06
-5.72084e-13
-2.14112e-05
-6.39095e-13
-7.27402e-05
-5.82656e-05
1.44618e-05
1.2469e-12
-5.33923e-05
5.10115e-06
8.92647e-13
-5.0426e-05
1.93966e-06
6.98936e-13
-4.87628e-05
7.81103e-07
5.58474e-13
-4.78467e-05
3.35664e-07
4.62846e-13
-4.7332e-05
1.6075e-07
3.79992e-13
-4.7022e-05
9.24316e-08
2.40179e-13
-4.68061e-05
7.02104e-08
9.65376e-14
-4.66196e-05
7.18534e-08
2.82146e-14
-4.64236e-05
8.9178e-08
2.32361e-14
-4.61944e-05
1.19162e-07
7.29576e-14
-4.59226e-05
1.60067e-07
1.15237e-13
-4.56196e-05
2.08539e-07
7.16097e-14
-4.53336e-05
2.55038e-07
-3.88308e-14
-4.51818e-05
2.73584e-07
-1.37405e-13
-4.54065e-05
1.92873e-07
-2.73181e-13
-4.64382e-05
-2.03853e-07
-5.63009e-13
-4.90045e-05
-1.40917e-06
-7.76449e-13
-5.38806e-05
-4.89231e-06
-9.39489e-13
-1.51392e-05
-1.08575e-12
-6.01396e-05
-2.69682e-05
8.06028e-13
-2.18757e-05
4.48525e-13
-1.99363e-05
3.51323e-13
-1.91567e-05
2.95626e-13
-1.88219e-05
2.6787e-13
-1.86615e-05
2.4754e-13
-1.85693e-05
1.98557e-13
-1.84992e-05
1.27418e-13
-1.84275e-05
5.72871e-14
-1.83384e-05
3.99862e-14
-1.82193e-05
5.12135e-14
-1.80594e-05
2.5192e-14
-1.7851e-05
-4.50797e-14
-1.75961e-05
-8.99723e-14
-1.73226e-05
-1.51926e-13
-1.71293e-05
-3.82869e-13
-1.73323e-05
-7.24553e-13
-1.87431e-05
-1.06248e-12
-2.36307e-05
-1.27086e-12
-1.46969e-12
-3.87004e-05
-1.62992e-05
1.12654e-06
-1.65103e-09
-1.71142e-05
8.16127e-07
-1.12508e-09
-1.76721e-05
5.58545e-07
-7.20387e-10
-1.80366e-05
3.65005e-07
-4.34475e-10
-1.82678e-05
2.31396e-07
-2.4956e-10
-1.84142e-05
1.46513e-07
-1.40295e-10
-1.85122e-05
9.80723e-08
-8.30278e-11
-1.85878e-05
7.57554e-08
-6.03796e-11
-1.86598e-05
7.1977e-08
-6.09593e-11
-1.8741e-05
8.13497e-08
-7.77168e-11
-1.88404e-05
9.95185e-08
-1.06218e-10
-1.8962e-05
1.21697e-07
-1.42915e-10
-1.91029e-05
1.4104e-07
-1.82258e-10
-1.92497e-05
1.47008e-07
-2.13581e-10
-1.93735e-05
1.24087e-07
-2.17806e-10
-1.94255e-05
5.2114e-08
-1.70505e-10
-1.93312e-05
-9.41759e-08
-5.38354e-11
-1.89977e-05
-3.33701e-07
2.04245e-10
-1.83223e-05
-6.76104e-07
6.45189e-10
-1.10466e-06
1.29667e-09
-1.72189e-05
-4.11279e-05
3.86157e-06
1.59505e-09
-4.313e-05
2.81687e-06
1.3246e-09
-4.45213e-05
1.94881e-06
1.03245e-09
-4.54497e-05
1.29264e-06
7.70024e-10
-4.60532e-05
8.34364e-07
5.54882e-10
-4.64446e-05
5.37462e-07
3.93988e-10
-4.67086e-05
3.61859e-07
2.85274e-10
-4.69064e-05
2.73339e-07
2.20863e-10
-4.70806e-05
2.459e-07
1.90789e-10