/*--------------------------------*- C++ -*----------------------------------*\
| =========                 |                                                 |
| \\      /  F ield         | OpenFOAM: The Open Source CFD Toolbox           |
|  \\    /   O peration     | Version:  2.4.0                                 |
|   \\  /    A nd           | Web:      www.OpenFOAM.org                      |
|    \\/     M anipulation  |                                                 |
\*---------------------------------------------------------------------------*/
FoamFile
{
    version     2.0;
    format      ascii;
    class       volVectorField;
    location    "0.8";
    object      U;
}
// * * * * * * * * * * * * * * * * * * * * * * * * * * * * * * * * * * * * * //

dimensions      [0 1 -1 0 0 0 0];

internalField   nonuniform List<vector> 
4800
(
(0.000197323 -0.000199472 6.02777e-07)
(-0.000209123 0.000213139 0.00017823)
(-0.00191988 0.000625389 0.000326662)
(-0.00447412 0.000886272 0.000406362)
(-0.00756429 0.00102568 0.00038221)
(-0.0109266 0.00107916 0.000239138)
(-0.0143456 0.00106855 -2.624e-05)
(-0.0176401 0.00100369 -0.000411625)
(-0.0206474 0.000889693 -0.000909749)
(-0.0232281 0.000736122 -0.00150731)
(-0.000231151 0.000212324 -0.00017676)
(-0.00230797 0.00225352 3.06325e-06)
(-0.00701943 0.00410129 0.000108123)
(-0.0134413 0.00536874 0.000134751)
(-0.0209823 0.00610737 6.95366e-05)
(-0.029131 0.0064115 -0.000100041)
(-0.0374105 0.00635096 -0.000378154)
(-0.0453864 0.00596791 -0.000764574)
(-0.0526635 0.00530038 -0.0012552)
(-0.0589091 0.0044156 -0.00184113)
(-0.000693373 0.00200218 -0.000326644)
(-0.00436119 0.00703212 -9.7951e-05)
(-0.0116385 0.0112362 6.89326e-06)
(-0.0211139 0.0141913 1.72168e-05)
(-0.0320114 0.015968 -6.11085e-05)
(-0.0436906 0.0167093 -0.000236034)
(-0.0555175 0.0165303 -0.000510347)
(-0.066883 0.0155131 -0.000884863)
(-0.0772109 0.0137542 -0.00135846)
(-0.0859996 0.0114357 -0.00192638)
(-0.0010234 0.00478993 -0.000396045)
(-0.00591954 0.0137811 -0.000106014)
(-0.015208 0.0208529 1.51062e-05)
(-0.0270104 0.0257957 2.60277e-05)
(-0.0404031 0.0287825 -5.24009e-05)
(-0.0546701 0.0300167 -0.000224291)
(-0.06908 0.029642 -0.000491425)
(-0.0828953 0.027758 -0.00085635)
(-0.095376 0.0245102 -0.00132201)
(-0.10583 0.0202175 -0.00188931)
(-0.00122563 0.00828842 -0.000332555)
(-0.00693467 0.0219597 9.44568e-06)
(-0.0175945 0.032256 0.000146866)
(-0.0309845 0.0393717 0.000164828)
(-0.0460779 0.0436679 9.41046e-05)
(-0.0621186 0.0454269 -6.74049e-05)
(-0.0783181 0.0447979 -0.000322237)
(-0.0938403 0.0418554 -0.000676645)
(-0.10778 0.0367477 -0.00114024)
(-0.119185 0.029916 -0.00172443)
(-0.00131537 0.0121975 -0.000106448)
(-0.00741857 0.0310112 0.000274325)
(-0.0187717 0.0447775 0.000424264)
(-0.0329817 0.054203 0.00045347)
(-0.0489772 0.0598976 0.000397834)
(-0.0659973 0.0622364 0.000255368)
(-0.0832364 0.0613469 2.05276e-05)
(-0.0997955 0.057213 -0.000319449)
(-0.114611 0.049892 -0.000784931)
(-0.126358 0.0398567 -0.00140902)
(-0.00130391 0.0162269 0.000293357)
(-0.00739276 0.0403477 0.000699156)
(-0.0187481 0.0576854 0.000856213)
(-0.0329774 0.0694931 0.000899874)
(-0.0490227 0.0766589 0.000867193)
(-0.066153 0.0796588 0.000754967)
(-0.0835907 0.0785707 0.000552547)
(-0.100434 0.0732065 0.000237658)
(-0.115526 0.0633744 -0.00022555)
(-0.127042 0.0493289 -0.000915856)
(-0.00120014 0.020104 0.000863344)
(-0.00688772 0.0493886 0.00128131)
(-0.017567 0.0702271 0.00143988)
(-0.0309924 0.0843885 0.00150106)
(-0.0461587 0.0930385 0.00150027)
(-0.0623794 0.096762 0.00143294)
(-0.0789369 0.0955771 0.00128236)
(-0.0950056 0.0890521 0.00101487)
(-0.109525 0.0765382 0.000577561)
(-0.120128 0.0575232 -0.000199296)
(-0.00101666 0.0235793 0.00158643)
(-0.0059625 0.0575876 0.00200589)
(-0.0153485 0.0816622 0.00216092)
(-0.0271764 0.0979958 0.00224232)
(-0.0404929 0.108002 0.00228231)
(-0.0546216 0.112386 0.00227637)
(-0.0688705 0.111146 0.00220246)
(-0.0825067 0.103631 0.00201439)
(-0.0948881 0.0886507 0.00164843)
(-0.10345 0.0641493 0.000766218)
(-0.000776541 0.0264476 0.00243308)
(-0.00473062 0.0644832 0.00284702)
(-0.0123502 0.0913292 0.00299425)
(-0.0219301 0.109449 0.00309711)
(-0.0325239 0.120423 0.003185)
(-0.0433519 0.125057 0.00325821)
(-0.0535539 0.123372 0.00329793)
(-0.0621717 0.114611 0.00325627)
(-0.0689831 0.0972827 0.00310886)
(-0.0728878 0.0682104 0.00233852)
(0.0002013 -0.000203798 1.86003e-07)
(-0.000203665 0.000207663 1.23342e-06)
(-0.00191711 0.000613302 1.69678e-06)
(-0.00447209 0.000869757 2.1594e-06)
(-0.00756326 0.00100694 2.4062e-06)
(-0.0109264 0.00105944 2.4911e-06)
(-0.014346 0.00104897 2.47567e-06)
(-0.0176412 0.000985266 2.35697e-06)
(-0.0206494 0.000873271 2.11841e-06)
(-0.023231 0.000722199 1.7474e-06)
(-0.000225114 0.000205834 -9.75589e-07)
(-0.00230581 0.00225139 2.18803e-07)
(-0.00702572 0.00409192 -1.10227e-06)
(-0.0134447 0.0053554 -1.60445e-06)
(-0.0209839 0.00609282 -1.83297e-06)
(-0.0291315 0.00639651 -1.98078e-06)
(-0.0374097 0.00633622 -1.97276e-06)
(-0.0453849 0.00595419 -1.8321e-06)
(-0.0526621 0.00528832 -1.61189e-06)
(-0.0589083 0.00440524 -1.39619e-06)
(-0.000680344 0.00199807 -1.60416e-06)
(-0.00435211 0.00703749 1.46662e-06)
(-0.0116441 0.0112396 5.65005e-08)
(-0.0211155 0.0141949 -6.09772e-08)
(-0.0320113 0.015973 8.52167e-08)
(-0.0436905 0.0167151 8.58242e-08)
(-0.0555169 0.0165365 9.30507e-08)
(-0.0668823 0.0155193 1.23553e-07)
(-0.077211 0.0137605 1.54653e-07)
(-0.0860015 0.0114408 8.3065e-08)
(-0.00100532 0.00478667 -2.25077e-06)
(-0.00590648 0.0137841 1.96646e-06)
(-0.0152149 0.0208528 2.78222e-08)
(-0.0270117 0.0257945 -1.16698e-07)
(-0.0404021 0.0287816 1.23647e-07)
(-0.0546694 0.0300162 1.59246e-07)
(-0.069079 0.0296419 1.87358e-07)
(-0.0828941 0.0277586 2.45705e-07)
(-0.0953762 0.0245123 3.50439e-07)
(-0.105834 0.0202197 2.92526e-07)
(-0.0012046 0.00828659 -2.63571e-06)
(-0.00692024 0.0219611 2.27769e-06)
(-0.0176037 0.0322548 -1.97266e-07)
(-0.0309866 0.0393691 -4.69952e-07)
(-0.046077 0.043665 -2.32771e-07)
(-0.0621177 0.0454239 -2.02331e-07)
(-0.0783164 0.0447951 -1.58693e-07)
(-0.0938373 0.0418535 -4.30758e-08)
(-0.107779 0.0367492 2.86377e-07)
(-0.119192 0.029919 4.26265e-07)
(-0.00129305 0.0121971 -2.80635e-06)
(-0.00740363 0.0310118 2.40374e-06)
(-0.0187821 0.0447768 -2.63476e-07)
(-0.0329844 0.0542014 -5.87923e-07)
(-0.0489765 0.0598955 -3.5927e-07)
(-0.0659965 0.0622338 -3.41743e-07)
(-0.0832344 0.061344 -3.18848e-07)
(-0.09979 0.0572105 -2.26238e-07)
(-0.114607 0.0498957 4.398e-07)
(-0.126371 0.0398661 1.06429e-06)
(-0.0012817 0.0162278 -2.78445e-06)
(-0.00737819 0.0403474 2.40952e-06)
(-0.0187591 0.0576851 -2.83949e-07)
(-0.0329807 0.0694924 -6.42154e-07)
(-0.0490227 0.0766574 -4.52732e-07)
(-0.066153 0.0796566 -4.65401e-07)
(-0.083589 0.0785674 -5.14522e-07)
(-0.100424 0.0732024 -6.33627e-07)
(-0.115512 0.0633828 5.64813e-07)
(-0.127068 0.0493596 2.59286e-06)
(-0.00117941 0.0201063 -2.57097e-06)
(-0.00687434 0.0493877 2.28004e-06)
(-0.0175779 0.0702274 -2.66625e-07)
(-0.0309963 0.0843888 -6.36749e-07)
(-0.0461594 0.0930379 -5.04168e-07)
(-0.0623804 0.09676 -5.17274e-07)
(-0.0789366 0.0955713 -5.76341e-07)
(-0.0949876 0.0890375 -1.04612e-06)
(-0.109483 0.0765328 1.54241e-06)
(-0.120168 0.0575709 9.18473e-06)
(-0.000998569 0.0235828 -2.17399e-06)
(-0.00595097 0.0575867 2.05126e-06)
(-0.0153585 0.0816635 -1.94088e-07)
(-0.0271807 0.0979982 -5.60556e-07)
(-0.0404952 0.108004 -5.41456e-07)
(-0.0546263 0.112386 -6.52149e-07)
(-0.0688805 0.11114 -9.41926e-07)
(-0.0824938 0.1036 -3.05662e-06)
(-0.0948036 0.0885845 -7.08363e-07)
(-0.103492 0.0641174 2.05984e-05)
(-0.000761838 0.0264517 -1.62494e-06)
(-0.00472112 0.0644824 1.78142e-06)
(-0.0123581 0.091332 -2.92175e-08)
(-0.0219335 0.109455 -3.30655e-07)
(-0.0325262 0.120433 -4.10339e-07)
(-0.0433595 0.125074 -7.31386e-07)
(-0.0535831 0.123406 -1.66665e-06)
(-0.0622078 0.114662 -8.33615e-06)
(-0.0689155 0.0973332 -1.86935e-05)
(-0.0729563 0.0683021 4.64779e-06)
(0.000201252 -0.000203846 -1.32129e-08)
(-0.000203746 0.000207634 -1.16973e-06)
(-0.00191716 0.000613287 -1.6621e-06)
(-0.00447211 0.000869749 -2.13825e-06)
(-0.00756328 0.00100694 -2.39219e-06)
(-0.0109264 0.00105944 -2.4808e-06)
(-0.014346 0.00104896 -2.46775e-06)
(-0.0176412 0.000985265 -2.35072e-06)
(-0.0206494 0.000873271 -2.11343e-06)
(-0.023231 0.000722199 -1.74328e-06)
(-0.000225143 0.000205754 1.0398e-06)
(-0.00230587 0.00225133 -1.76026e-07)
(-0.00702576 0.00409188 1.1315e-06)
(-0.0134448 0.00535538 1.62471e-06)
(-0.0209839 0.00609281 1.84768e-06)
(-0.0291315 0.0063965 1.99206e-06)
(-0.0374097 0.00633621 1.98163e-06)
(-0.0453849 0.00595418 1.83917e-06)
(-0.0526621 0.00528832 1.61766e-06)
(-0.0589083 0.00440524 1.40093e-06)
(-0.000680358 0.00199802 1.63952e-06)
(-0.00435214 0.00703744 -1.43684e-06)
(-0.0116441 0.0112396 -3.35145e-08)
(-0.0211155 0.0141949 7.8503e-08)
(-0.0320113 0.015973 -7.14452e-08)
(-0.0436905 0.0167151 -7.48727e-08)
(-0.0555169 0.0165365 -8.4132e-08)
(-0.0668823 0.0155193 -1.16251e-07)
(-0.077211 0.0137605 -1.48705e-07)
(-0.0860014 0.0114408 -7.82062e-08)
(-0.00100532 0.00478664 2.27277e-06)
(-0.00590649 0.013784 -1.94553e-06)
(-0.0152149 0.0208527 -9.96695e-09)
(-0.0270117 0.0257945 1.31472e-07)
(-0.0404021 0.0287816 -1.11394e-07)
(-0.0546694 0.0300162 -1.48961e-07)
(-0.069079 0.0296419 -1.78757e-07)
(-0.082894 0.0277586 -2.38557e-07)
(-0.0953762 0.0245123 -3.44489e-07)
(-0.105834 0.0202197 -2.87619e-07)
(-0.0012046 0.00828657 2.65104e-06)
(-0.00692024 0.0219611 -2.26218e-06)
(-0.0176037 0.0322547 2.1138e-07)
(-0.0309866 0.039369 4.82419e-07)
(-0.046077 0.043665 2.43575e-07)
(-0.0621177 0.0454239 2.11642e-07)
(-0.0783164 0.0447951 1.66694e-07)
(-0.0938373 0.0418535 4.99403e-08)
(-0.107779 0.0367492 -2.80709e-07)
(-0.119192 0.029919 -4.21736e-07)
(-0.00129305 0.012197 2.81829e-06)
(-0.00740363 0.0310117 -2.39129e-06)
(-0.0187821 0.0447768 2.75187e-07)
(-0.0329844 0.0542014 5.9846e-07)
(-0.0489765 0.0598954 3.68732e-07)
(-0.0659965 0.0622338 3.50126e-07)
(-0.0832344 0.0613439 3.26212e-07)
(-0.09979 0.0572105 2.32535e-07)
(-0.114607 0.0498957 -4.34635e-07)
(-0.126371 0.0398661 -1.0601e-06)
(-0.0012817 0.0162278 2.79443e-06)
(-0.00737818 0.0403474 -2.39911e-06)
(-0.0187591 0.0576851 2.93799e-07)
(-0.0329807 0.0694924 6.51212e-07)
(-0.0490227 0.0766574 4.61044e-07)
(-0.0661529 0.0796566 4.72818e-07)
(-0.083589 0.0785674 5.21082e-07)
(-0.100424 0.0732024 6.39249e-07)
(-0.115512 0.0633828 -5.60166e-07)
(-0.127068 0.0493596 -2.5891e-06)
(-0.00117941 0.0201062 2.5794e-06)
(-0.00687434 0.0493877 -2.27124e-06)
(-0.0175779 0.0702273 2.75003e-07)
(-0.0309963 0.0843888 6.44576e-07)
(-0.0461594 0.0930379 5.11335e-07)
(-0.0623804 0.0967599 5.23747e-07)
(-0.0789365 0.0955713 5.82145e-07)
(-0.0949875 0.0890375 1.05114e-06)
(-0.109483 0.0765328 -1.5382e-06)
(-0.120168 0.0575709 -9.18122e-06)
(-0.000998568 0.0235827 2.18109e-06)
(-0.00595097 0.0575866 -2.04391e-06)
(-0.0153585 0.0816635 2.01194e-07)
(-0.0271807 0.0979982 5.67205e-07)
(-0.0404952 0.108004 5.4763e-07)
(-0.0546263 0.112386 6.57818e-07)
(-0.0688804 0.11114 9.47045e-07)
(-0.0824938 0.1036 3.06105e-06)
(-0.0948036 0.0885845 7.12158e-07)
(-0.103492 0.0641174 -2.0595e-05)
(-0.000761837 0.0264517 1.63078e-06)
(-0.00472112 0.0644823 -1.77532e-06)
(-0.0123581 0.091332 3.51953e-08)
(-0.0219335 0.109455 3.36284e-07)
(-0.0325262 0.120433 4.15679e-07)
(-0.0433594 0.125074 7.36309e-07)
(-0.0535831 0.123406 1.67113e-06)
(-0.0622078 0.114662 8.34009e-06)
(-0.0689155 0.0973332 1.86969e-05)
(-0.0729563 0.0683021 -4.64462e-06)
(0.000196965 -0.00019983 -7.84428e-07)
(-0.000209642 0.00021301 -0.000178297)
(-0.00192007 0.000625337 -0.000326698)
(-0.00447421 0.000886249 -0.000406384)
(-0.00756434 0.00102567 -0.000382225)
(-0.0109266 0.00107916 -0.000239149)
(-0.0143457 0.00106855 2.62317e-05)
(-0.0176401 0.00100369 0.000411618)
(-0.0206474 0.000889692 0.000909744)
(-0.0232281 0.000736122 0.0015073)
(-0.000231279 0.000211806 0.000176693)
(-0.0023082 0.00225329 -3.10847e-06)
(-0.00701958 0.00410118 -0.000108154)
(-0.0134414 0.00536868 -0.000134773)
(-0.0209823 0.00610734 -6.95521e-05)
(-0.029131 0.00641149 0.000100029)
(-0.0374105 0.00635095 0.000378145)
(-0.0453864 0.0059679 0.000764566)
(-0.0526635 0.00530037 0.0012552)
(-0.0589091 0.0044156 0.00184113)
(-0.000693422 0.00200199 0.000326607)
(-0.00436129 0.00703195 9.79195e-05)
(-0.0116386 0.0112361 -6.91756e-06)
(-0.021114 0.0141913 -1.72353e-05)
(-0.0320114 0.0159679 6.10939e-05)
(-0.0436906 0.0167092 0.000236022)
(-0.0555174 0.0165303 0.000510338)
(-0.066883 0.015513 0.000884855)
(-0.0772108 0.0137542 0.00135845)
(-0.0859995 0.0114357 0.00192637)
(-0.00102342 0.00478983 0.000396022)
(-0.00591958 0.0137809 0.000105992)
(-0.0152081 0.0208528 -1.51251e-05)
(-0.0270105 0.0257956 -2.60433e-05)
(-0.0404031 0.0287824 5.2388e-05)
(-0.0546701 0.0300167 0.00022428)
(-0.0690799 0.029642 0.000491416)
(-0.0828952 0.027758 0.000856343)
(-0.0953759 0.0245101 0.001322)
(-0.10583 0.0202174 0.0018893)
(-0.00122564 0.00828835 0.000332539)
(-0.00693469 0.0219596 -9.46208e-06)
(-0.0175946 0.0322559 -0.000146881)
(-0.0309845 0.0393716 -0.000164841)
(-0.0460779 0.0436678 -9.4116e-05)
(-0.0621186 0.0454268 6.73951e-05)
(-0.078318 0.0447979 0.000322229)
(-0.0938402 0.0418554 0.000676638)
(-0.10778 0.0367477 0.00114023)
(-0.119185 0.029916 0.00172442)
(-0.00131537 0.0121974 0.000106435)
(-0.00741857 0.0310112 -0.000274338)
(-0.0187716 0.0447774 -0.000424276)
(-0.0329817 0.0542029 -0.000453481)
(-0.0489771 0.0598975 -0.000397844)
(-0.0659972 0.0622363 -0.000255377)
(-0.0832364 0.0613469 -2.05353e-05)
(-0.0997955 0.057213 0.000319442)
(-0.114611 0.049892 0.000784926)
(-0.126358 0.0398567 0.00140902)
(-0.0013039 0.0162268 -0.000293368)
(-0.00739276 0.0403476 -0.000699167)
(-0.0187481 0.0576853 -0.000856223)
(-0.0329773 0.069493 -0.000899884)
(-0.0490227 0.0766588 -0.000867202)
(-0.066153 0.0796587 -0.000754975)
(-0.0835907 0.0785707 -0.000552554)
(-0.100434 0.0732065 -0.000237664)
(-0.115526 0.0633744 0.000225545)
(-0.127042 0.0493289 0.000915852)
(-0.00120014 0.020104 -0.000863353)
(-0.00688771 0.0493885 -0.00128132)
(-0.0175669 0.070227 -0.00143989)
(-0.0309924 0.0843884 -0.00150107)
(-0.0461586 0.0930385 -0.00150028)
(-0.0623794 0.0967619 -0.00143294)
(-0.0789369 0.095577 -0.00128237)
(-0.0950055 0.089052 -0.00101488)
(-0.109525 0.0765382 -0.000577566)
(-0.120128 0.0575231 0.000199292)
(-0.00101666 0.0235793 -0.00158644)
(-0.00596249 0.0575876 -0.0020059)
(-0.0153485 0.0816621 -0.00216093)
(-0.0271764 0.0979958 -0.00224233)
(-0.0404929 0.108002 -0.00228232)
(-0.0546216 0.112386 -0.00227638)
(-0.0688705 0.111146 -0.00220246)
(-0.0825067 0.103631 -0.0020144)
(-0.0948881 0.0886507 -0.00164844)
(-0.10345 0.0641493 -0.000766221)
(-0.000776539 0.0264475 -0.00243308)
(-0.00473061 0.0644831 -0.00284703)
(-0.0123502 0.0913291 -0.00299426)
(-0.0219301 0.109449 -0.00309712)
(-0.0325239 0.120423 -0.003185)
(-0.0433519 0.125057 -0.00325822)
(-0.0535539 0.123372 -0.00329794)
(-0.0621717 0.114611 -0.00325627)
(-0.0689831 0.0972827 -0.00310886)
(-0.0728878 0.0682104 -0.00233852)
(-0.0252928 0.000563942 -0.00218449)
(-0.0268317 0.000401585 -0.00291777)
(-0.0279092 0.000268017 -0.00368623)
(-0.0286253 0.000169329 -0.00447436)
(-0.0290828 0.00010295 -0.00527204)
(-0.0293698 6.24398e-05 -0.00607358)
(-0.0295543 4.09558e-05 -0.00687631)
(-0.0296854 3.2975e-05 -0.00767958)
(-0.029798 3.46897e-05 -0.00848402)
(-0.0299169 4.36681e-05 -0.00929126)
(-0.0300594 5.81656e-05 -0.0101038)
(-0.0302364 7.62452e-05 -0.0109251)
(-0.0304496 9.47747e-05 -0.0117596)
(-0.0306876 0.00010836 -0.0126127)
(-0.0309182 0.000108405 -0.0134899)
(-0.0310804 8.29195e-05 -0.014396)
(-0.0310756 1.81038e-05 -0.0153335)
(-0.0307669 -0.000101288 -0.0162987)
(-0.0299912 -0.000282123 -0.0172797)
(-0.0285875 -0.000516795 -0.0182533)
(-0.063916 0.00343384 -0.00250752)
(-0.0676698 0.00250515 -0.00323485)
(-0.0703287 0.00172971 -0.00400553)
(-0.0721276 0.0011423 -0.00480546)
(-0.0733043 0.00073261 -0.00562421)
(-0.0740623 0.000468864 -0.00645469)
(-0.074559 0.000315317 -0.00729258)
(-0.074909 0.0002413 -0.00813564)
(-0.0751932 0.000223703 -0.00898317)
(-0.0754673 0.000245617 -0.0098357)
(-0.0757671 0.000293058 -0.0106948)
(-0.0761097 0.000350731 -0.0115629)
(-0.0764893 0.000397351 -0.0124433)
(-0.0768678 0.000401031 -0.0133395)
(-0.0771607 0.000315872 -0.0142554)
(-0.0772213 8.20429e-05 -0.0151933)
(-0.0768287 -0.000367279 -0.0161531)
(-0.0756867 -0.00109134 -0.0171304)
(-0.0734496 -0.00211069 -0.0181136)
(-0.069786 -0.00337372 -0.0190822)
(-0.0929335 0.0088776 -0.00257664)
(-0.0980206 0.00647695 -0.00328881)
(-0.101548 0.00448535 -0.00404597)
(-0.103893 0.00298092 -0.0048348)
(-0.105406 0.00192932 -0.00564498)
(-0.106371 0.00124597 -0.00646921)
(-0.106998 0.000838907 -0.00730275)
(-0.107432 0.00062973 -0.00814279)
(-0.107775 0.00055869 -0.00898808)
(-0.108091 0.000580885 -0.00983852)
(-0.108423 0.000658268 -0.010695)
(-0.108787 0.000749711 -0.0115592)
(-0.109171 0.000800276 -0.0124336)
(-0.109523 0.000730932 -0.0133208)
(-0.109736 0.000431256 -0.0142236)
(-0.109621 -0.000240141 -0.0151443)
(-0.108893 -0.00144025 -0.0160831)
(-0.107161 -0.00330148 -0.0170368)
(-0.103951 -0.00586729 -0.0179969)
(-0.0987826 -0.00900763 -0.0189469)
(-0.113795 0.0154933 -0.00254816)
(-0.119342 0.0111402 -0.00326938)
(-0.122979 0.00761148 -0.00403384)
(-0.125272 0.00500253 -0.00482809)
(-0.126683 0.00321024 -0.00564183)
(-0.127547 0.0020588 -0.00646812)
(-0.128088 0.0013746 -0.00730254)
(-0.128451 0.00101715 -0.00814248)
(-0.12873 0.00088276 -0.00898663)
(-0.128982 0.000895068 -0.00983469)
(-0.129241 0.00099041 -0.0106871)
(-0.129523 0.001101 -0.0115449)
(-0.129817 0.00113718 -0.0124099)
(-0.130078 0.000969995 -0.0132841)
(-0.130206 0.000417565 -0.0141702)
(-0.130021 -0.000757735 -0.015071)
(-0.129227 -0.00282855 -0.0159886)
(-0.127383 -0.00604087 -0.0169236)
(-0.123902 -0.0105026 -0.0178726)
(-0.118104 -0.0160212 -0.0188256)
(-0.127335 0.022381 -0.0024226)
(-0.132426 0.0156457 -0.00318025)
(-0.135376 0.0104017 -0.00397358)
(-0.137015 0.00667141 -0.0047894)
(-0.137901 0.00419305 -0.00561804)
(-0.138379 0.00264258 -0.0064539)
(-0.138645 0.00173783 -0.00729392)
(-0.138807 0.00126815 -0.00813648)
(-0.138925 0.00108698 -0.00898077)
(-0.139031 0.00109156 -0.00982658)
(-0.139146 0.0011996 -0.0106741)
(-0.139278 0.00132524 -0.0115238)
(-0.139428 0.00135433 -0.0123766)
(-0.139575 0.00111879 -0.0132342)
(-0.139664 0.000372783 -0.0140988)
(-0.139571 -0.00122152 -0.0149742)
(-0.139054 -0.00408034 -0.0158656)
(-0.137682 -0.00862711 -0.016779)
(-0.134768 -0.0151339 -0.0177196)
(-0.129338 -0.0234398 -0.0186899)
(-0.133797 0.0286622 -0.00219777)
(-0.137382 0.0191314 -0.00302915)
(-0.138803 0.0121677 -0.00387554)
(-0.139225 0.00750131 -0.00472858)
(-0.139244 0.00455791 -0.00558156)
(-0.139138 0.0027936 -0.00643244)
(-0.139016 0.00179783 -0.00728111)
(-0.13891 0.0012939 -0.00812788)
(-0.13882 0.00110444 -0.00897302)
(-0.138743 0.00111383 -0.00981666)
(-0.138676 0.00123511 -0.0106588)
(-0.138622 0.00138018 -0.0114992)
(-0.138594 0.00142983 -0.0123381)
(-0.138608 0.00120048 -0.0131759)
(-0.13868 0.000406811 -0.0140145)
(-0.138796 -0.00137522 -0.014858)
(-0.138844 -0.00472504 -0.015715)
(-0.138509 -0.0103293 -0.0165982)
(-0.137089 -0.0188057 -0.0175253)
(-0.133212 -0.03027 -0.0185252)
(-0.132664 0.0332157 -0.0018882)
(-0.133441 0.0205764 -0.00284398)
(-0.132488 0.0122176 -0.00376675)
(-0.131288 0.00709397 -0.00466741)
(-0.130285 0.0040991 -0.0055481)
(-0.129558 0.0024137 -0.00641436)
(-0.129057 0.00150988 -0.00727112)
(-0.128704 0.00107317 -0.00812144)
(-0.12843 0.000921859 -0.00896695)
(-0.128188 0.00094838 -0.00980817)
(-0.127949 0.00107881 -0.0106448)
(-0.127707 0.00124143 -0.0114758)
(-0.127482 0.00133635 -0.0123001)
(-0.127326 0.00119879 -0.0131165)
(-0.127334 0.000549467 -0.0139254)
(-0.127634 -0.00107354 -0.0147302)
(-0.128336 -0.00439123 -0.0155416)
(-0.129412 -0.0104195 -0.0163794)
(-0.13039 -0.0203842 -0.0172778)
(-0.129518 -0.0352226 -0.0183179)
(-0.122222 0.034308 -0.00153261)
(-0.118567 0.0186834 -0.00267432)
(-0.114661 0.00993599 -0.00368726)
(-0.111857 0.00526309 -0.00463452)
(-0.110027 0.00282238 -0.00553617)
(-0.108885 0.0015706 -0.0064109)
(-0.108172 0.000948806 -0.00727067)
(-0.107698 0.000670506 -0.00812139)
(-0.107335 0.000590623 -0.00896565)
(-0.107004 0.00063354 -0.00980399)
(-0.106658 0.000753675 -0.0106355)
(-0.106277 0.000909925 -0.011458)
(-0.105876 0.00104233 -0.0122688)
(-0.105521 0.00104133 -0.0130645)
(-0.105355 0.000697108 -0.0138424)
(-0.105632 -0.00039066 -0.0146036)
(-0.106723 -0.00296285 -0.015359)
(-0.109079 -0.00829575 -0.0161336)
(-0.112994 -0.0184657 -0.0169754)
(-0.116888 -0.0363371 -0.0180528)
(-0.0984473 0.0298291 -0.00135926)
(-0.0887866 0.0126324 -0.00269663)
(-0.0824289 0.00544503 -0.00373232)
(-0.0789814 0.00242732 -0.00467759)
(-0.0770886 0.00113237 -0.00556855)
(-0.0760366 0.000570999 -0.00643258)
(-0.0754304 0.000330511 -0.00728477)
(-0.0750408 0.000240325 -0.00813062)
(-0.0747373 0.000230242 -0.00897161)
(-0.0744426 0.000270946 -0.00980718)
(-0.0741083 0.000349063 -0.0106352)
(-0.0737069 0.000454767 -0.0114522)
(-0.0732359 0.000571803 -0.0122531)
(-0.0727342 0.000662536 -0.0130315)
(-0.0723211 0.000636854 -0.0137796)
(-0.0722615 0.000280108 -0.0144919)
(-0.0730399 -0.000921254 -0.0151747)
(-0.0755889 -0.00418156 -0.0158397)
(-0.0817229 -0.0122774 -0.0165168)
(-0.0921169 -0.031478 -0.0175129)
(-0.0513109 0.0186233 -0.00187898)
(-0.0380617 0.00526499 -0.00315518)
(-0.0328144 0.00155182 -0.00387666)
(-0.0310158 0.000465341 -0.00461255)
(-0.0302851 0.000138437 -0.00536873)
(-0.029945 4.40182e-05 -0.0061397)
(-0.0297672 2.11983e-05 -0.00692223)
(-0.0296497 2.12554e-05 -0.00771119)
(-0.0295433 3.08082e-05 -0.00850223)
(-0.0294195 4.73123e-05 -0.00929169)
(-0.0292565 7.15582e-05 -0.0100756)
(-0.0290355 0.000105369 -0.0108489)
(-0.0287402 0.000150399 -0.0116043)
(-0.0283621 0.000205588 -0.0123308)
(-0.027916 0.000259066 -0.0130124)
(-0.0274806 0.000262347 -0.0136256)
(-0.0272936 3.75307e-05 -0.0141412)
(-0.0280893 -0.0010531 -0.0145273)
(-0.0327208 -0.00515719 -0.0147073)
(-0.0472968 -0.0202298 -0.0152075)
(-0.0252958 0.000552617 1.28855e-06)
(-0.0268342 0.000392909 8.78334e-07)
(-0.027911 0.000261729 5.6268e-07)
(-0.0286264 0.000164961 3.39643e-07)
(-0.0290834 0.000100007 1.9533e-07)
(-0.0293701 6.04747e-05 1.10002e-07)
(-0.0295544 3.96031e-05 6.52613e-08)
(-0.0296854 3.19556e-05 4.74475e-08)
(-0.0297979 3.38003e-05 4.77226e-08)
(-0.0299167 4.27678e-05 6.06654e-08)
(-0.0300592 5.71691e-05 8.28272e-08)
(-0.0302361 7.51281e-05 1.11323e-07)
(-0.0304493 9.35931e-05 1.41909e-07)
(-0.0306873 0.000107285 1.66343e-07)
(-0.030918 0.000107765 1.69733e-07)
(-0.0310805 8.32049e-05 1.32969e-07)
(-0.0310762 1.99273e-05 4.2202e-08)
(-0.0307684 -9.70783e-05 -1.58608e-07)
(-0.0299939 -0.0002747 -5.01807e-07)
(-0.0285914 -0.000505703 -1.009e-06)
(-0.0639153 0.00342468 -1.23785e-06)
(-0.0676685 0.00249774 -1.02812e-06)
(-0.070327 0.00172417 -8.01353e-07)
(-0.0721259 0.00113837 -5.97614e-07)
(-0.0733029 0.000729918 -4.30555e-07)
(-0.0740612 0.00046706 -3.05646e-07)
(-0.0745582 0.000314094 -2.21312e-07)
(-0.0749085 0.000240419 -1.71442e-07)
(-0.0751929 0.000222987 -1.48154e-07)
(-0.0754671 0.000244939 -1.43062e-07)
(-0.0757669 0.000292332 -1.47466e-07)
(-0.0761094 0.000349916 -1.51061e-07)
(-0.0764888 0.000396463 -1.40417e-07)
(-0.0768667 0.000400173 -9.79117e-08)
(-0.077159 0.00031527 -1.43455e-09)
(-0.0772189 8.2056e-05 1.69015e-07)
(-0.0768256 -0.000366176 4.18652e-07)
(-0.0756834 -0.00108842 7.58207e-07)
(-0.0734468 -0.00210529 1.15755e-06)
(-0.0697845 -0.00336588 1.52198e-06)
(-0.0929356 0.00887962 -1.73302e-07)
(-0.0980211 0.00647761 -2.78145e-07)
(-0.101547 0.00448565 -2.90703e-07)
(-0.103892 0.00298107 -2.67193e-07)
(-0.105405 0.00192945 -2.21802e-07)
(-0.10637 0.00124614 -1.72059e-07)
(-0.106997 0.000839108 -1.28686e-07)
(-0.107431 0.000629979 -9.4908e-08)
(-0.107774 0.000558997 -7.04308e-08)
(-0.108091 0.000581252 -5.31641e-08)
(-0.108423 0.000658681 -3.99409e-08)
(-0.108787 0.000750131 -2.67647e-08)
(-0.10917 0.000800628 -9.28959e-09)
(-0.109523 0.000731102 1.75258e-08)
(-0.109735 0.000431105 5.96073e-08)
(-0.10962 -0.000240753 1.18494e-07)
(-0.108891 -0.00144141 1.88417e-07)
(-0.107159 -0.00330316 2.68947e-07)
(-0.10395 -0.00586946 3.43014e-07)
(-0.0987847 -0.00901148 2.81311e-07)
(-0.1138 0.0154908 -2.34735e-07)
(-0.119342 0.0111374 -3.73048e-07)
(-0.122978 0.00760973 -3.56517e-07)
(-0.125271 0.00500164 -3.10557e-07)
(-0.126682 0.00320994 -2.4336e-07)
(-0.127546 0.00205886 -1.77581e-07)
(-0.128087 0.00137481 -1.24619e-07)
(-0.128451 0.00101742 -8.53212e-08)
(-0.128729 0.000883035 -5.77534e-08)
(-0.128981 0.000895319 -3.88392e-08)
(-0.129241 0.000990612 -2.54585e-08)
(-0.129523 0.00110112 -1.46726e-08)
(-0.129817 0.00113715 -3.4915e-09)
(-0.130077 0.000969774 1.21112e-08)
(-0.130205 0.000417135 3.86181e-08)
(-0.13002 -0.000758292 8.124e-08)
(-0.129225 -0.002829 1.40919e-07)
(-0.127381 -0.0060406 2.27278e-07)
(-0.123902 -0.0105005 3.65786e-07)
(-0.118109 -0.016019 3.07773e-07)
(-0.127342 0.0223735 -6.44308e-07)
(-0.132426 0.0156396 -6.99117e-07)
(-0.135374 0.0103989 -5.38835e-07)
(-0.137012 0.00667038 -4.1335e-07)
(-0.137898 0.00419299 -2.86307e-07)
(-0.138377 0.00264297 -1.84587e-07)
(-0.138644 0.00173834 -1.15981e-07)
(-0.138807 0.00126863 -7.23423e-08)
(-0.138925 0.00108737 -4.6113e-08)
(-0.139031 0.00109186 -3.14886e-08)
(-0.139145 0.00119979 -2.41875e-08)
(-0.139278 0.0013253 -2.11813e-08)
(-0.139427 0.00135422 -1.97922e-08)
(-0.139574 0.00111847 -1.54079e-08)
(-0.139663 0.00037229 2.90784e-09)
(-0.13957 -0.00122199 4.78846e-08)
(-0.139052 -0.0040804 1.2111e-07)
(-0.137677 -0.0086255 2.55322e-07)
(-0.134765 -0.0151275 6.22528e-07)
(-0.129346 -0.0234305 7.9985e-07)
(-0.133811 0.0286465 -1.45121e-06)
(-0.137379 0.019121 -1.16346e-06)
(-0.138797 0.0121646 -6.78403e-07)
(-0.13922 0.00750095 -4.47996e-07)
(-0.139241 0.00455861 -2.60511e-07)
(-0.139137 0.00279458 -1.34595e-07)
(-0.139015 0.00179871 -6.58374e-08)
(-0.138909 0.00129459 -3.01692e-08)
(-0.13882 0.00110496 -1.28304e-08)
(-0.138743 0.00111422 -5.84086e-09)
(-0.138676 0.00123538 -5.1619e-09)
(-0.138622 0.00138033 -9.12239e-09)
(-0.138593 0.00142981 -1.6941e-08)
(-0.138607 0.00120024 -2.63816e-08)
(-0.138679 0.000406361 -2.47212e-08)
(-0.138794 -0.0013756 1.09148e-08)
(-0.13884 -0.00472488 6.35373e-08)
(-0.138501 -0.0103267 2.00419e-07)
(-0.137081 -0.0187936 1.02684e-06)
(-0.133225 -0.0302498 1.94899e-06)
(-0.13269 0.0331936 -3.94401e-06)
(-0.133428 0.0205691 -2.4454e-06)
(-0.132476 0.0122202 -1.05172e-06)
(-0.131282 0.00709709 -5.46773e-07)
(-0.130282 0.00410161 -2.31421e-07)
(-0.129557 0.00241552 -6.93608e-08)
(-0.129057 0.0015111 -7.67132e-09)
(-0.128703 0.00107399 1.25711e-08)
(-0.12843 0.000922454 1.60318e-08)
(-0.128188 0.000948874 1.2114e-08)
(-0.127949 0.00107926 3.96168e-09)
(-0.127708 0.00124186 -8.14778e-09)
(-0.127482 0.00133667 -2.47417e-08)
(-0.127326 0.00119885 -4.59103e-08)
(-0.127334 0.000549055 -5.23287e-08)
(-0.127632 -0.00107443 1.81022e-08)
(-0.128331 -0.00439304 1.35845e-07)
(-0.129396 -0.0104219 3.96242e-07)
(-0.130371 -0.0203753 2.34913e-06)
(-0.129545 -0.0351953 5.30838e-06)
(-0.122271 0.0342714 -6.78801e-06)
(-0.118539 0.0186913 -2.55616e-06)
(-0.114645 0.00995338 -4.44624e-07)
(-0.111853 0.00527258 -1.94313e-07)
(-0.110026 0.00282704 1.12364e-08)
(-0.108885 0.00157301 8.84034e-08)
(-0.108173 0.000950064 8.19596e-08)
(-0.107698 0.000671256 6.53821e-08)
(-0.107335 0.000591231 5.30239e-08)
(-0.107004 0.000634197 4.45684e-08)
(-0.106658 0.000754479 3.77823e-08)
(-0.106277 0.000910908 2.90752e-08)
(-0.105877 0.00104342 1.24806e-08)
(-0.105521 0.0010422 -2.5784e-08)
(-0.105355 0.00069711 -7.3399e-08)
(-0.105632 -0.000392681 -6.75035e-10)
(-0.106722 -0.00297002 5.78428e-08)
(-0.109063 -0.00831334 -2.30387e-07)
(-0.112959 -0.0184745 2.16231e-06)
(-0.116939 -0.0362916 8.64966e-06)
(-0.0985061 0.0296632 -8.65258e-06)
(-0.0887277 0.0125849 3.65724e-06)
(-0.0824196 0.00543702 3.9378e-06)
(-0.0789895 0.00242202 1.56545e-06)
(-0.077093 0.00112854 7.69603e-07)
(-0.0760388 0.000568758 4.44578e-07)
(-0.0754315 0.00032915 2.51793e-07)
(-0.0750412 0.000239398 1.67541e-07)
(-0.0747374 0.000229517 1.46866e-07)
(-0.0744424 0.000270282 1.59099e-07)
(-0.074108 0.00034838 1.89734e-07)
(-0.0737068 0.000454056 2.27371e-07)
(-0.0732363 0.000571154 2.51526e-07)
(-0.0727355 0.000662222 2.08693e-07)
(-0.0723238 0.000637416 2.83361e-08)
(-0.0722678 0.000282247 -2.67074e-07)
(-0.0730535 -0.000917533 -1.1195e-06)
(-0.0755839 -0.00417489 -4.67501e-06)
(-0.0816515 -0.0122257 -5.82854e-06)
(-0.0921639 -0.031276 1.00751e-05)
(-0.0513393 0.0185015 -4.55606e-05)
(-0.0379259 0.00521027 -6.74984e-06)
(-0.0327786 0.00153047 -2.37585e-07)
(-0.0310131 0.000453472 -1.11832e-06)
(-0.0302828 0.000131774 -7.04704e-07)
(-0.0299434 4.05029e-05 -3.00465e-07)
(-0.0297666 1.92555e-05 -1.53823e-07)
(-0.0296494 2.0005e-05 -9.70003e-08)
(-0.0295432 2.97966e-05 -7.50741e-08)
(-0.0294195 4.62906e-05 -7.51034e-08)
(-0.0292566 7.0389e-05 -8.90949e-08)
(-0.0290356 0.000104013 -1.09663e-07)
(-0.0287403 0.000148976 -1.26269e-07)
(-0.0283618 0.000204537 -1.2037e-07)
(-0.0279149 0.000259371 -2.40412e-08)
(-0.0274797 0.000265654 3.52369e-07)
(-0.0272951 4.61497e-05 6.57801e-07)
(-0.0280552 -0.00103373 -1.31532e-06)
(-0.0325514 -0.00509906 3.71778e-06)
(-0.0472922 -0.0200782 5.41186e-05)
(-0.0252958 0.000552617 -1.28515e-06)
(-0.0268342 0.000392909 -8.75606e-07)
(-0.027911 0.000261729 -5.60565e-07)
(-0.0286264 0.000164961 -3.38017e-07)
(-0.0290834 0.000100006 -1.94016e-07)
(-0.0293701 6.04743e-05 -1.0889e-07)
(-0.0295544 3.96031e-05 -6.44316e-08)
(-0.0296854 3.1956e-05 -4.69781e-08)
(-0.0297979 3.38004e-05 -4.73937e-08)
(-0.0299167 4.27674e-05 -6.04114e-08)
(-0.0300592 5.71687e-05 -8.27379e-08)
(-0.0302361 7.51278e-05 -1.11414e-07)
(-0.0304493 9.35928e-05 -1.42069e-07)
(-0.0306872 0.000107285 -1.66457e-07)
(-0.030918 0.000107765 -1.69698e-07)
(-0.0310805 8.32048e-05 -1.32765e-07)
(-0.0310761 1.99272e-05 -4.17977e-08)
(-0.0307684 -9.70782e-05 1.59316e-07)
(-0.0299939 -0.0002747 5.02908e-07)