/*--------------------------------*- C++ -*----------------------------------*\
| =========                 |                                                 |
| \\      /  F ield         | OpenFOAM: The Open Source CFD Toolbox           |
|  \\    /   O peration     | Version:  2.4.0                                 |
|   \\  /    A nd           | Web:      www.OpenFOAM.org                      |
|    \\/     M anipulation  |                                                 |
\*---------------------------------------------------------------------------*/
FoamFile
{
    version     2.0;
    format      ascii;
    class       volScalarField;
    location    "0.0049";
    object      T;
}
// * * * * * * * * * * * * * * * * * * * * * * * * * * * * * * * * * * * * * //

dimensions      [0 0 0 1 0 0 0];

internalField   nonuniform List<scalar> 
4800
(
100.194
100.581
100.967
101.353
101.737
102.116
102.487
102.844
103.181
103.493
100.581
101.742
102.903
104.063
105.217
106.358
107.475
108.552
109.57
110.51
100.967
102.903
104.84
106.778
108.709
110.624
112.502
114.318
116.038
117.625
101.354
104.063
106.778
109.498
112.219
114.925
117.592
120.18
122.639
124.907
101.737
105.217
108.709
112.219
115.743
119.267
122.76
126.173
129.429
132.437
102.117
106.358
110.624
114.926
119.267
123.639
128.01
132.32
136.469
140.313
102.487
107.475
112.503
117.593
122.761
128.01
133.32
138.63
143.814
148.658
102.844
108.553
114.319
120.182
126.174
132.322
138.631
145.065
151.5
157.639
103.182
109.572
116.04
122.641
129.432
136.472
143.816
151.501
159.48
167.458
103.494
110.513
117.628
124.911
132.442
140.317
148.662
157.642
167.46
178.221
100.194
100.581
100.967
101.354
101.737
102.116
102.487
102.844
103.181
103.493
100.581
101.742
102.903
104.063
105.217
106.358
107.475
108.552
109.57
110.51
100.967
102.903
104.84
106.778
108.709
110.624
112.502
114.318
116.038
117.625
101.354
104.063
106.778
109.498
112.219
114.925
117.592
120.18
122.638
124.907
101.737
105.217
108.709
112.219
115.743
119.267
122.76
126.173
129.429
132.437
102.117
106.358
110.624
114.926
119.267
123.639
128.01
132.321
136.469
140.312
102.487
107.475
112.503
117.593
122.761
128.011
133.321
138.63
143.815
148.658
102.844
108.553
114.32
120.182
126.174
132.322
138.631
145.066
151.5
157.639
103.182
109.572
116.04
122.642
129.433
136.472
143.817
151.501
159.48
167.458
103.494
110.513
117.629
124.912
132.442
140.318
148.663
157.643
167.46
178.221
100.194
100.581
100.967
101.354
101.737
102.116
102.487
102.844
103.181
103.493
100.581
101.742
102.903
104.063
105.217
106.358
107.475
108.552
109.57
110.51
100.967
102.903
104.84
106.778
108.709
110.624
112.502
114.318
116.038
117.625
101.354
104.063
106.778
109.498
112.219
114.925
117.592
120.18
122.638
124.907
101.737
105.217
108.709
112.219
115.743
119.267
122.76
126.173
129.429
132.437
102.117
106.358
110.624
114.926
119.267
123.639
128.01
132.321
136.469
140.312
102.487
107.475
112.503
117.593
122.761
128.011
133.321
138.63
143.815
148.658
102.844
108.553
114.32
120.182
126.174
132.322
138.631
145.066
151.5
157.639
103.182
109.572
116.04
122.642
129.433
136.472
143.817
151.501
159.48
167.458
103.494
110.513
117.629
124.912
132.442
140.318
148.663
157.643
167.46
178.221
100.194
100.581
100.967
101.353
101.737
102.116
102.487
102.844
103.181
103.493
100.581
101.742
102.903
104.063
105.217
106.358
107.475
108.552
109.57
110.51
100.967
102.903
104.84
106.778
108.709
110.624
112.502
114.318
116.038
117.625
101.354
104.063
106.778
109.498
112.219
114.925
117.592
120.18
122.639
124.907
101.737
105.217
108.709
112.219
115.743
119.267
122.76
126.173
129.429
132.437
102.117
106.358
110.624
114.926
119.267
123.639
128.01
132.32
136.469
140.313
102.487
107.475
112.503
117.593
122.761
128.01
133.32
138.63
143.814
148.658
102.844
108.553
114.319
120.182
126.174
132.322
138.631
145.065
151.5
157.639
103.182
109.572
116.04
122.641
129.432
136.472
143.816
151.501
159.48
167.458
103.494
110.513
117.628
124.911
132.442
140.317
148.662
157.642
167.46
178.221
103.772
104.016
104.222
104.391
104.526
104.63
104.707
104.761
104.796
104.812
104.812
104.796
104.761
104.707
104.63
104.526
104.391
104.222
104.016
103.772
111.353
112.086
112.703
113.208
113.608
113.916
114.144
114.304
114.405
114.454
114.454
114.405
114.304
114.144
113.915
113.608
113.207
112.703
112.085
111.353
119.044
120.271
121.298
122.129
122.783
123.282
123.649
123.905
124.067
124.144
124.144
124.066
123.904
123.648
123.281
122.782
122.128
121.296
120.27
119.043
126.927
128.658
130.086
131.228
132.113
132.78
133.265
133.601
133.812
133.913
133.913
133.811
133.6
133.264
132.778
132.111
131.226
130.084
128.656
126.925
135.099
137.346
139.163
140.583
141.661
142.458
143.031
143.423
143.666
143.783
143.782
143.665
143.422
143.029
142.457
141.659
140.58
139.161
137.343
135.097
143.685
146.463
148.637
150.279
151.489
152.362
152.977
153.392
153.648
153.769
153.769
153.647
153.391
152.976
152.361
151.487
150.276
148.634
146.461
143.684
152.867
156.184
158.642
160.407
161.654
162.525
163.124
163.521
163.763
163.878
163.878
163.763
163.52
163.123
162.523
161.652
160.405
158.64
156.182
152.866
162.941
166.764
169.341
171.052
172.194
172.96
173.472
173.806
174.007
174.101
174.101
174.006
173.805
173.471
172.958
172.192
171.051
169.339
166.763
162.94
174.493
178.59
180.905
182.268
183.109
183.648
183.998
184.223
184.356
184.419
184.419
184.356
184.222
183.998
183.648
183.109
182.267
180.904
178.59
174.493
188.983
192.199
193.422
194.003
194.328
194.525
194.651
194.73
194.777
194.799
194.799
194.777
194.73
194.651
194.525
194.328
194.003
193.421
192.199
188.982
103.772
104.016
104.222
104.391
104.526
104.63
104.707
104.761
104.796
104.812
104.812
104.795
104.761
104.706
104.629
104.525
104.39
104.221
104.015
103.772
111.353
112.086
112.703
113.208
113.608
113.916
114.144
114.303
114.405
114.453
114.453
114.404
114.303
114.143
113.915
113.607
113.206
112.702
112.084
111.352
119.044
120.271
121.297
122.129
122.783
123.281
123.649
123.905
124.066
124.144
124.144
124.065
123.904
123.647
123.28
122.781
122.127
121.295
120.269
119.042
126.927
128.657
130.086
131.227
132.112
132.779
133.265
133.601
133.811
133.912
133.912
133.81
133.599
133.263
132.777
132.11
131.225
130.083
128.654
126.924
135.099
137.345
139.163
140.582
141.66
142.458
143.03
143.422
143.665
143.782
143.782
143.665
143.42
143.028
142.455
141.657
140.579
139.159
137.342
135.095
143.685
146.463
148.637
150.278
151.488
152.362
152.977
153.392
153.647
153.768
153.768
153.646
153.39
152.975
152.359
151.485
150.275
148.633
146.459
143.682
152.867
156.184
158.642
160.406
161.653
162.524
163.123
163.521
163.762
163.877
163.877
163.762
163.519
163.121
162.522
161.65
160.403
158.639
156.181
152.864
162.941
166.764
169.341
171.052
172.193
172.959
173.471
173.805
174.006
174.1
174.1
174.005
173.804
173.47
172.957
172.191
171.049
169.338
166.761
162.938
174.493
178.59
180.905
182.267
183.109
183.648
183.998
184.222
184.356
184.418
184.418
184.355
184.221
183.997
183.646
183.107
182.265
180.903
178.588
174.491
188.983
192.199
193.421
194.003
194.327
194.525
194.65
194.73
194.777
194.799
194.798
194.776
194.729
194.65
194.524
194.327
194.002
193.421
192.198
188.981
103.772
104.016
104.222
104.391
104.526
104.63
104.707
104.761
104.796
104.812
104.812
104.795
104.761
104.706
104.629
104.525
104.39
104.221
104.015
103.772
111.353
112.086
112.703
113.208
113.608
113.916
114.144
114.303
114.405
114.453
114.453
114.404
114.303
114.143
113.915
113.607
113.206
112.702
112.084
111.352
119.044
120.271
121.297
122.129
122.783
123.281
123.649
123.905
124.066
124.144
124.144
124.065
123.904
123.647
123.28
122.781
122.127
121.295
120.269
119.042
126.927
128.657
130.086
131.227
132.112
132.779
133.265
133.601
133.811
133.912
133.912
133.81
133.599
133.263
132.777
132.11
131.225
130.083
128.654
126.924
135.099
137.345
139.163
140.582
141.66
142.458
143.03
143.422
143.665
143.782
143.782
143.665
143.42
143.028
142.455
141.657
140.579
139.159
137.342
135.095
143.685
146.463
148.637
150.278
151.488
152.362
152.977
153.392
153.647
153.768
153.768
153.646
153.39
152.975
152.359
151.485
150.275
148.633
146.459
143.682
152.867
156.184
158.642
160.406
161.653
162.524
163.123
163.521
163.762
163.877
163.877
163.762
163.519
163.121
162.522
161.65
160.403
158.639
156.181
152.864
162.941
166.764
169.341
171.052
172.193
172.959
173.471
173.805
174.006
174.1
174.1
174.005
173.804
173.47
172.957
172.191
171.049
169.338
166.761
162.938
174.493
178.59
180.905
182.267
183.109
183.648
183.998
184.222
184.356
184.418
184.418
184.355
184.221
183.997
183.646
183.107
182.265
180.903
178.588
174.491
188.983
192.199
193.421
194.003
194.327
194.525
194.65
194.73
194.777
194.799
194.798
194.776
194.729
194.65
194.524
194.327
194.002
193.421
192.198
188.981
103.772
104.016
104.222
104.391
104.526
104.63
104.707
104.761
104.796
104.812
104.812
104.796
104.761
104.707
104.63
104.526
104.391
104.222
104.016
103.772
111.353
112.086
112.703
113.208
113.608
113.916
114.144
114.304
114.405
114.454
114.454
114.405
114.304
114.144
113.915
113.608
113.207
112.703
112.085
111.353
119.044
120.271
121.298
122.129
122.783
123.282
123.649
123.905
124.067
124.144
124.144
124.066
123.904
123.648
123.281
122.782
122.128
121.296
120.27
119.043
126.927
128.658
130.086
131.228
132.113
132.78
133.265
133.601
133.812
133.913
133.913
133.811
133.6
133.264
132.778
132.111
131.226
130.084
128.656
126.925
135.099
137.346
139.163
140.583
141.661
142.458
143.031
143.423
143.666
143.783
143.782
143.665
143.422
143.029
142.457
141.659
140.58
139.161
137.343
135.097
143.685
146.463
148.637
150.279
151.489
152.362
152.977
153.392
153.648
153.769
153.769
153.647
153.391
152.976
152.361
151.487
150.276
148.634
146.461
143.684
152.867
156.184
158.642
160.407
161.654
162.525
163.124
163.521
163.763
163.878
163.878
163.763
163.52
163.123
162.523
161.652
160.405
158.64
156.182
152.866
162.941
166.764
169.341
171.052
172.194
172.96
173.472
173.806
174.007
174.101
174.101
174.006
173.805
173.471
172.958
172.192
171.051
169.339
166.763
162.94
174.493
178.59
180.905
182.268
183.109
183.648
183.998
184.223
184.356
184.419
184.419
184.356
184.222
183.998
183.648
183.109
182.267
180.904
178.59
174.493
188.983
192.199
193.422
194.003
194.328
194.525
194.651
194.73
194.777
194.799
194.799
194.777
194.73
194.651
194.525
194.328
194.003
193.421
192.199
188.982
103.493
103.182
102.844
102.487
102.117
101.738
101.354
100.968
100.581
100.194
110.51
109.57
108.552
107.475
106.358
105.217
104.063
102.904
101.742
100.581
117.624
116.037
114.318
112.502
110.624
108.71
106.778
104.841
102.904
100.968
124.906
122.638
120.18
117.592
114.926
112.22
109.499
106.779
104.064
101.354
132.435
129.429
126.172
122.761
119.267
115.744
112.22
108.71
105.218
101.738
140.311
136.469
132.32
128.01
123.639
119.268
114.927
110.625
106.359
102.117
148.657
143.814
138.631
133.321
128.012
122.763
117.594
112.504
107.476
102.488
157.639
151.5
145.067
138.633
132.324
126.176
120.184
114.321
108.554
102.845
167.459
159.481
151.503
143.819
136.475
129.435
122.644
116.042
109.573
103.183
178.222
167.461
157.645
148.665
140.32
132.445
124.914
117.631
110.514
103.494
103.492
103.181
102.843
102.487
102.116
101.737
101.353
100.967
100.58
100.193
110.509
109.569
108.551
107.474
106.357
105.216
104.062
102.902
101.741
100.58
117.623
116.036
114.316
112.501
110.623
108.708
106.777
104.84
102.903
100.967
124.904
122.636
120.178
117.591
114.924
112.218
109.498
106.777
104.062
101.353
132.434
129.427
126.171
122.759
119.266
115.742
112.218
108.709
105.216
101.737
140.31
136.467
132.319
128.009
123.638
119.267
114.925
110.624
106.358
102.116
148.656
143.812
138.629
133.32
128.01
122.761
117.593
112.503
107.475
102.487
157.637
151.498
145.065
138.631
132.322
126.174
120.182
114.319
108.553
102.844
167.457
159.479
151.501
143.817
136.473
129.433
122.642
116.041
109.572
103.182
178.22
167.459
157.643
148.663
140.318
132.443
124.912
117.629
110.513
103.494
103.492
103.181
102.843
102.487
102.116
101.737
101.353
100.967
100.58
100.193
110.509
109.569
108.551
107.474
106.357
105.216
104.062
102.902
101.741
100.58
117.623
116.036
114.316
112.501
110.623
108.708
106.777
104.84
102.903
100.967
124.904
122.636
120.178
117.591
114.924
112.218
109.498
106.777
104.062
101.353
132.434
129.427
126.171
122.759
119.266
115.742
112.218
108.709
105.216
101.737
140.31
136.467
132.319
128.009
123.638
119.267
114.925
110.624
106.358
102.116
148.656
143.812
138.629
133.32
128.01
122.761
117.593
112.503
107.475
102.487
157.637
151.498
145.065
138.631
132.322
126.174
120.182
114.319
108.553
102.844
167.457
159.479
151.501
143.817
136.473
129.433
122.642
116.041
109.572
103.182
178.22
167.459
157.643
148.663
140.318
132.443
124.912
117.629
110.513
103.494
103.493
103.182
102.844
102.487
102.117
101.738
101.354
100.968
100.581
100.194
110.51
109.57
108.552
107.475
106.358
105.217
104.063
102.904
101.742
100.581
117.624
116.037
114.318
112.502
110.624
108.71
106.778
104.841
102.904
100.968
124.906
122.638
120.18
117.592
114.926
112.22
109.499
106.779
104.064
101.354
132.435
129.429
126.172
122.761
119.267
115.744
112.22
108.71
105.218
101.738
140.311
136.469
132.32
128.01
123.639
119.268
114.927
110.625
106.359
102.117
148.657
143.814
138.631
133.321
128.012
122.763
117.594
112.504
107.476
102.488
157.639
151.5
145.067
138.633
132.324
126.176
120.184
114.321
108.554
102.845
167.459
159.481
151.503
143.819
136.475
129.435
122.644
116.042
109.573
103.183
178.222
167.461
157.645
148.665
140.32
132.445
124.914
117.631
110.514
103.494
188.985
174.499
162.949
152.878
143.697
135.11
126.937
119.052
111.359
103.775
192.202
178.598
166.776
156.199
146.479
137.362
128.672
120.283
112.094
104.019
193.426
180.916
169.357
158.662
148.659
139.185
130.106
121.314
112.714
104.226
194.009
182.282
171.075
160.435
150.309
140.613
131.255
122.151
113.222
104.396
194.335
183.129
172.224
161.692
151.531
141.703
132.151
122.813
113.628
104.533
194.535
183.676
173.002
162.578
152.42
142.516
132.832
123.323
113.943
104.639
194.664
184.036
173.53
163.196
153.057
143.11
133.337
123.706
114.181
104.72
194.748
184.274
173.885
163.621
153.502
143.532
133.699
123.983
114.354
104.779
194.802
184.428
174.116
163.901
153.799
143.816
133.947
124.173
114.474
104.82
194.833
184.517
174.253
164.067
153.978
143.989
134.098
124.29
114.547
104.845
194.846
184.555
174.311
164.139
154.056
144.066
134.166
124.344
114.581
104.856
194.843
184.545
174.297
164.124
154.042
144.055
134.158
124.338
114.579
104.856
194.822
184.486
174.209
164.02
153.935
143.955
134.073
124.275
114.539
104.842
194.78
184.367
174.035
163.816
153.724
143.759
133.908
124.15
114.462
104.816
194.709
184.17
173.749
163.486
153.391
143.453
133.652
123.959
114.344
104.776
194.593
183.856
173.309
162.994
152.905
143.016
133.291
123.691
114.18
104.721
194.397
183.355
172.642
162.279
152.224
142.42
132.808
123.339
113.966
104.65
194.035
182.53
171.632
161.263
151.301
141.638
132.191
122.895
113.699
104.561
193.249
181.102
170.1
159.85
150.088
140.649
131.429
122.356
113.379
104.454
191.11
178.537
167.826
157.963
148.566
139.454
130.53
121.73
113.009
104.332
188.984
174.496
162.947
152.875
143.695
135.108
126.935
119.051
111.357
103.774
192.2
178.596
166.773
156.196
146.477
137.359
128.67
120.281
112.092
104.018
193.424
180.913
169.355
158.66
148.657
139.183
130.104
121.312
112.712
104.225
194.007
182.28
171.072
160.432
150.307
140.611
131.253
122.149
113.221
104.395
194.333
183.127
172.222
161.689
151.528
141.7
132.148
122.811
113.626
104.532
194.533
183.673
172.999
162.575
152.418
142.514
132.829
123.321
113.941
104.638
194.662
184.033
173.527
163.193
153.054
143.108
133.334
123.704
114.179
104.719
194.746
184.271
173.882
163.618
153.499
143.529
133.697
123.981
114.352
104.778
194.8
184.424
174.113
163.898
153.796
143.814
133.944
124.171
114.472
104.818
194.831
184.514
174.249
164.064
153.974
143.986
134.095
124.288
114.545
104.844
194.844
184.551
174.307
164.136
154.053
144.063
134.163
124.341
114.579
104.855
194.841
184.542
174.293
164.121
154.039
144.052
134.155
124.336
114.576
104.854
194.82
184.482
174.205
164.017
153.931
143.952
134.071
124.272
114.537
104.841
194.777
184.364
174.031
163.812
153.721
143.756
133.905
124.148
114.46
104.815
194.706
184.166
173.746
163.483
153.388
143.45
133.649
123.956
114.342
104.775
194.59
183.852
173.305
162.99
152.901
143.012
133.288
123.688
114.178
104.72
194.394
183.351
172.638
162.275
152.221
142.416
132.805
123.336
113.964
104.648
194.032
182.526
171.628
161.259
151.297
141.634
132.188
122.892
113.697
104.559
193.246
181.097
170.096
159.847
150.085
140.646
131.426
122.354
113.376
104.453
191.107
178.533
167.822
157.959
148.562
139.451
130.527
121.727
113.007
104.331
188.984
174.496
162.947
152.875
143.695
135.108
126.935
119.051
111.357
103.774
192.2
178.596
166.773
156.196
146.477
137.359
128.67
120.281
112.092
104.018
193.424
180.913
169.355
158.66
148.657
139.183
130.104
121.312
112.712
104.225
194.007
182.28
171.072
160.432
150.307
140.611
131.253
122.149
113.221
104.395
194.333
183.127
172.222
161.689
151.528
141.7
132.148
122.811
113.626
104.532
194.533
183.673
172.999
162.575
152.418
142.514
132.829
123.321
113.941
104.638
194.662
184.033
173.527
163.193
153.054
143.108
133.334
123.704
114.179
104.719
194.746
184.271
173.882
163.618
153.499
143.529
133.697
123.981
114.352
104.778
194.8
184.424
174.113
163.898
153.796
143.814
133.944
124.171
114.472
104.818
194.831
184.514
174.249
164.064
153.974
143.986
134.095
124.288
114.545
104.844
194.844
184.551
174.307
164.136
154.053
144.063
134.163
124.341
114.579
104.855
194.841
184.542
174.293
164.121
154.039
144.052
134.155
124.336
114.576
104.854
194.82
184.482
174.205
164.017
153.931
143.952
134.071
124.272
114.537
104.841
194.777
184.364
174.031
163.812
153.721
143.756
133.905
124.148
114.46
104.815
194.706
184.166
173.746
163.483
153.388
143.45
133.649
123.956
114.342
104.775
194.59
183.852
173.305
162.99
152.901
143.012
133.288
123.688
114.178
104.72
194.394
183.351
172.638
162.275
152.221
142.416
132.805
123.336
113.964
104.648
194.032
182.526
171.628
161.259
151.297
141.634
132.188
122.892
113.697
104.559
193.246
181.097
170.096
159.847
150.085
140.646
131.426
122.354
113.376
104.453
191.107
178.532
167.822
157.959
148.562
139.451
130.527
121.727
113.007
104.331
188.985
174.499
162.949
152.878
143.697
135.11
126.937
119.052
111.359
103.775
192.202
178.598
166.776
156.199
146.479
137.362
128.672
120.283
112.094
104.019
193.426
180.916
169.357
158.662
148.659
139.185
130.106
121.314
112.714
104.226
194.009
182.282
171.075
160.435
150.309
140.613
131.255
122.151
113.222
104.396
194.335
183.129
172.224
161.692
151.531
141.703
132.151
122.813
113.628
104.533
194.535
183.676
173.002
162.578
152.42
142.516
132.832
123.323
113.943
104.639
194.664
184.036
173.53
163.196
153.057
143.11
133.337
123.706
114.181
104.72
194.748
184.274
173.885
163.621
153.502
143.532
133.699
123.983
114.354
104.779
194.802
184.428
174.116
163.901
153.799
143.816
133.947
124.173
114.474
104.82
194.833
184.517
174.253
164.067
153.978
143.989
134.098
124.29
114.547
104.845
194.846
184.555
174.311
164.139
154.056
144.066
134.166
124.344
114.581
104.856
194.843
184.545
174.297
164.124
154.042
144.055
134.158
124.338
114.579
104.856
194.822
184.486
174.209
164.02
153.935
143.955
134.073
124.275
114.539
104.842
194.78
184.367
174.035
163.816
153.724
143.759
133.908
124.15
114.462
104.816
194.709
184.17
173.749
163.486
153.391
143.453
133.652
123.959
114.344
104.776
194.593
183.856
173.309
162.994
152.905
143.016
133.291
123.691
114.18
104.721
194.397
183.355
172.642
162.279
152.224
142.42
132.808
123.339
113.966
104.65
194.035
182.53
171.632
161.263
151.301
141.638
132.191
122.895
113.699
104.561
193.249
181.101
170.1
159.85
150.088
140.649
131.429
122.356
113.379
104.454
191.109
178.536
167.826
157.963
148.566
139.454
130.53
121.73
113.009
104.332
183.762
174.121
164.72
155.628
146.773
138.087
129.52
121.034
112.601
104.197
177.242
169.485
161.328
153.076
144.831
136.62
128.443
120.297
112.17
104.056
171.934
165.278
158.059
150.545
142.881
135.139
127.356
119.551
111.735
103.913
167.655
161.668
155.119
148.198
141.038
133.724
126.311
118.833
111.315
103.774
164.215
158.663
152.59
146.128
139.384
132.439
125.353
118.171
110.927
103.646
161.483
156.23
150.498
144.382
137.967
131.326
124.518
117.592
110.586
103.534
159.375
154.33
148.841
142.98
136.817
130.415
123.83
117.111
110.302
103.441
157.835
152.931
147.611
141.931
135.949
129.722
123.304
116.744
110.084
103.369
156.826
152.012
146.798
141.233
135.369
129.258
122.951
116.496
109.937
103.32
156.327
151.556
146.394
140.885
135.079
129.025
122.774
116.373
109.864
103.3
183.759
174.117
164.716
155.624
146.769
138.084
129.517
121.031
112.599
104.196
177.239
169.482
161.325
153.073
144.828
136.616
128.44
120.294
112.168
104.054
171.931
165.274
158.055
150.542
142.878
135.135
127.352
119.548
111.732
103.911
167.652
161.665
155.115
148.195
141.035
133.721
126.307
118.829
111.312
103.773
164.212
158.66
152.587
146.125
139.38
132.435
125.35
118.168
110.924
103.645
161.481
156.227
150.495
144.379
137.964
131.323
124.514
117.588
110.582
103.532
159.373
154.327
148.838
142.977
136.814
130.411
123.826
117.107
110.298
103.438
157.832
152.928
147.608
141.928
135.945
129.718
123.3
116.739
110.079
103.365
156.823
152.009
146.795
141.23
135.365
129.254
122.947
116.491
109.931
103.316
156.324
151.554
146.391
140.882
135.076
129.022
122.77
116.367
109.857
103.294
183.759
174.117
164.716
155.624
146.769
138.084
129.517
121.031
112.599
104.196
177.238
169.482
161.325
153.073
144.828
136.616
128.44
120.294
112.168
104.054
171.931
165.274
158.055
150.542
142.878
135.135
127.353
119.548
111.732
103.911
167.652
161.665
155.115
148.195
141.035
133.721
126.307
118.829
111.312
103.773
164.212
158.66
152.587
146.125
139.38
132.435
125.35
118.168
110.924
103.645
161.481
156.227
150.495
144.379
137.964
131.323
124.514
117.588
110.582
103.532
159.373
154.327
148.838
142.977
136.814
130.411
123.826
117.107
110.298
103.438
157.832
152.928
147.608
141.928
135.945
129.718
123.3
116.739
110.079
103.365
156.823
152.009
146.795
141.23
135.366
129.254
122.947
116.491
109.931
103.316
156.324
151.554
146.392
140.882
135.076
129.022
122.77
116.367
109.857
103.294
183.762
174.121
164.72
155.628
146.773
138.087
129.52
121.034
112.601
104.197
177.242
169.485
161.328
153.076
144.831
136.62
128.443
120.297
112.17
104.056
171.934
165.278
158.059
150.545
142.881
135.139
127.356
119.551
111.735
103.913
167.655
161.668
155.119
148.198
141.038
133.724
126.311
118.833
111.315
103.774
164.215
158.663
152.59
146.128
139.384
132.439
125.353
118.171
110.927
103.646
161.483
156.23
150.498
144.382
137.967
131.326
124.518
117.592
110.586
103.534
159.375
154.329
148.841
142.98
136.817
130.415
123.83
117.111
110.302
103.441
157.834
152.931
147.611
141.931
135.949
129.722
123.304
116.744
110.084
103.369
156.826
152.012
146.798
141.233
135.369
129.258
122.952
116.497
109.937
103.32
156.327
151.556
146.394
140.885
135.079
129.026
122.775
116.373
109.864
103.3
192.591
195.397
196.579
197.215
197.616
197.89
198.081
198.211
198.293
198.333
198.334
198.294
198.213
198.083
197.892
197.619
197.218
196.581
195.399
192.592
183.807
187.826
190.289
191.889
192.985
193.761
194.311
194.691
194.931
195.047
195.048
194.933
194.694
194.315
193.766
192.991
191.895
190.295
187.83
183.81
177.591
181.831
184.885
187.089
188.698
189.879
190.736
191.335
191.715
191.901
191.902
191.718
191.34
190.742
189.887
188.707
187.099
184.895
181.84
177.599
172.833
177.055
180.366
182.92
184.876
186.358
187.457
188.235
188.734
188.978
188.98
188.738
188.242
187.466
186.37
184.89
182.935
180.381
177.07
172.847
169.087
173.236
176.65
179.399
181.578
183.271
184.55
185.467
186.06
186.351
186.353
186.066
185.477
184.563
183.288
181.597
179.421
176.672
173.259
169.11
166.139
170.209
173.655
176.51
178.826
180.662
182.069
183.089
183.752
184.08
184.083
183.76
183.101
182.087
180.684
178.852
176.539
173.687
170.243
166.173
163.871
167.872
171.32
174.228
176.628
178.556
180.05
181.142
181.857
182.212
182.215
181.867
181.159
180.073
178.584
176.661
174.266
171.361
167.917
163.918
162.215
166.162
169.6
172.534
174.982
176.968
178.519
179.659
180.409
180.782
180.786
180.42
179.678
178.546
177.002
175.022
172.58
169.651
166.217
162.274
161.13
165.039
168.467
171.412
173.886
175.905
177.49
178.659
179.431
179.815
179.82
179.444
178.681
177.52
175.944
173.933
171.466
168.527
165.104
161.199
160.592
164.483
167.904
170.854
173.339
175.373
176.973
178.156
178.938
179.328
179.333
178.952
178.18
177.006
175.415
173.389
170.912
167.969
164.554
160.668
192.593
195.399
196.58
197.217
197.618
197.891
198.082
198.212
198.294
198.333
198.333
198.294
198.212
198.082
197.891
197.618
197.216
196.58
195.398
192.59
183.81
187.828
190.292
191.891
192.987
193.762
194.312
194.692
194.931
195.047
195.048
194.932
194.693
194.314
193.764
192.99
191.893
190.293
187.828
183.807
177.595
181.834
184.888
187.092
188.7
189.88
190.737
191.335
191.716
191.901
191.902
191.718
191.339
190.741
189.885
188.706
187.097
184.892
181.837
177.596
172.836
177.058
180.368
182.923
184.878
186.36
187.458
188.236
188.734
188.978
188.979
188.737
188.241
187.465
186.368
184.888
182.933
180.379
177.067
172.844
169.09
173.239
176.652
179.402
181.58
183.273
184.551
185.468
186.06
186.351
186.353
186.065
185.476
184.562
183.286
181.595
179.419
176.67
173.257
169.107
166.142
170.212
173.658
176.512
178.828
180.664
182.07
183.089
183.753
184.08
184.083
183.759
183.1
182.085
180.683
178.85
176.537
173.685
170.24
166.17
163.874
167.875
171.322
174.23
176.63
178.558
180.052
181.143
181.858
182.212
182.215
181.866
181.158
180.071
178.583
176.659
174.264
171.359
167.914
163.915
162.218
166.164
169.602
172.536
174.984
176.969
178.52
179.66
180.409
180.782
180.786
180.42
179.678
178.544
177
175.021
172.578
169.649
166.215
162.272
161.133
165.042
168.469
171.414
173.888
175.907
177.491
178.66
179.431
179.815
179.819
179.443
178.681
177.519
175.943
173.931
171.464
168.525
165.102
161.197
160.595
164.485
167.906
170.855
173.34
175.374
176.974
178.157
178.938
179.328
179.333
178.952
178.179
177.005
175.413
173.387
170.91
167.967
164.552
160.666
192.593
195.399
196.58
197.216
197.618
197.891
198.082
198.212
198.294
198.333
198.333
198.294
198.212
198.082
197.891
197.618
197.216
196.58
195.398
192.59
183.81
187.828
190.292
191.891
192.987
193.762
194.312
194.692
194.931
195.047
195.048
194.932
194.693
194.314
193.764
192.989
191.893
190.293
187.828
183.807
177.595
181.834
184.888
187.092
188.7
189.88
190.737
191.335
191.716
191.901
191.902
191.718
191.339
190.741
189.885
188.706
187.097
184.892
181.837
177.596
172.836
177.058
180.368
182.923
184.878
186.36
187.458
188.236
188.734
188.978
188.979
188.737
188.241
187.465
186.368
184.888
182.933
180.379
177.067
172.844
169.09
173.239
176.652
179.402
181.58
183.273
184.551
185.468
186.06
186.351
186.353
186.065
185.476
184.562
183.286
181.595
179.419
176.67
173.257
169.107
166.142
170.212
173.658
176.512
178.828
180.664
182.07
183.089
183.753
184.08
184.083
183.759
183.1
182.085
180.683
178.85
176.537
173.684
170.24
166.17
163.874
167.875
171.322
174.23
176.63
178.558
180.051
181.143
181.858
182.212
182.215
181.866
181.157
180.071
178.583
176.659
174.264
171.359
167.914
163.915
162.218
166.164
169.602
172.536
174.984
176.969
178.52
179.66
180.409
180.782
180.786
180.42
179.677
178.544
177
175.02
172.578
169.649
166.215
162.272
161.133
165.042
168.469
171.414
173.888
175.907
177.491
178.66
179.431
179.815
179.82
179.443
178.681
177.519
175.943
173.931
171.464
168.525
165.102
161.197
160.595
164.485
167.906
170.856
173.34
175.374
176.974
178.157
178.938
179.328
179.333
178.952
178.18
177.005
175.413
173.388
170.91
167.967
164.552
160.666
192.591
195.397
196.579
197.215
197.616
197.89
198.081
198.211
198.293
198.333
198.333
198.294
198.213
198.082
197.892
197.619
197.218
196.581
195.399
192.592
183.807
187.826
190.289
191.889
192.985
193.761
194.311
194.691
194.931
195.047
195.048
194.933
194.694
194.315
193.766
192.991
191.895
190.295
187.83
183.81
177.591
181.831
184.885
187.089
188.698
189.879
190.736
191.335
191.715
191.901
191.902
191.718
191.34
190.742
189.887
188.707
187.099
184.895
181.84
177.599
172.833
177.055
180.366
182.921
184.876
186.358
187.457
188.235
188.734
188.978
188.98
188.738
188.242
187.466
186.37
184.89
182.935
180.381
177.07
172.847
169.087
173.236
176.65
179.399
181.578
183.271
184.55
185.467
186.06
186.351
186.353
186.066
185.477
184.563
183.288
181.597
179.421
176.672
173.259
169.11
166.139
170.209
173.655
176.51
178.826
180.662
182.069
183.089
183.752
184.08
184.083
183.76
183.101
182.086
180.684
178.852
176.539
173.687
170.243
166.173
163.871
167.872
171.319
174.228
176.628
178.556
180.05
181.142
181.857
182.212
182.215
181.867
181.158
180.072
178.584
176.661
174.265
171.361
167.916
163.917
162.215
166.161
169.6
172.534
174.982
176.968
178.519
179.659
180.409
180.782
180.786
180.42
179.678
178.545
177.001
175.022
172.58
169.651
166.217
162.274
161.13
165.039
168.467
171.412
173.886
175.905
177.49
178.659
179.431
179.815
179.82
179.444
178.682
177.52
175.944
173.933
171.466
168.527
165.105
161.199
160.592
164.483
167.904
170.854
173.339
175.373
176.973
178.156
178.938
179.328
179.333
178.952
178.18
177.006
175.415
173.389
170.912
167.969
164.554
160.668
104.198
112.603
121.039
129.527
138.096
146.782
155.636
164.727
174.125
183.763
104.056
112.172
120.301
128.45
136.627
144.839
153.083
161.333
169.487
177.241
103.912
111.736
119.554
127.36
135.143
142.885
150.548
158.059
165.275
171.929
103.773
111.314
118.832
126.31
133.723
141.036
148.194
155.112
161.658
167.643
103.645
110.923
118.167
125.347
132.43
139.372
146.114
152.573
158.644
164.193
103.531
110.579
117.582
124.504
131.308
137.945
144.356
150.468
156.198
161.45
103.436
110.292
117.095
123.807
130.385
136.782
142.94
148.797
154.283
159.328
103.362
110.07
116.719
123.271
129.68
135.899
141.876
147.553
152.871
157.774
103.312
109.919
116.463
122.906
129.203
135.306
141.165
146.727
151.939
156.754
103.282
109.842