/*--------------------------------*- C++ -*----------------------------------*\
| =========                 |                                                 |
| \\      /  F ield         | OpenFOAM: The Open Source CFD Toolbox           |
|  \\    /   O peration     | Version:  2.4.0                                 |
|   \\  /    A nd           | Web:      www.OpenFOAM.org                      |
|    \\/     M anipulation  |                                                 |
\*---------------------------------------------------------------------------*/
FoamFile
{
    version     2.0;
    format      ascii;
    class       volScalarField;
    location    "1.2";
    object      p;
}
// * * * * * * * * * * * * * * * * * * * * * * * * * * * * * * * * * * * * * //

dimensions      [0 2 -2 0 0 0 0];

internalField   nonuniform List<scalar> 
4800
(
1.20697e-07
-0.0014462
-0.00282709
-0.00372633
-0.00385522
-0.00308305
-0.00137428
0.00125916
0.00476572
0.00904597
0.00144521
-2.3517e-05
-0.00098357
-0.00141816
-0.00122088
-0.000293759
0.00140125
0.00387011
0.0070915
0.0110086
0.00284877
0.000898851
-6.38286e-05
-0.000362403
-5.50641e-05
0.000913999
0.00257033
0.00492893
0.00799461
0.0117464
0.0036665
0.00117001
6.3428e-05
-0.000243965
5.78913e-05
0.000989091
0.00256607
0.00481883
0.00778806
0.0115014
0.00343717
0.000521503
-0.000733268
-0.00110794
-0.000884105
-6.1914e-05
0.0013806
0.00350512
0.00641101
0.0102141
0.0018749
-0.00127733
-0.00264891
-0.00312907
-0.00305053
-0.0024172
-0.00118293
0.000768432
0.00363039
0.00769718
-0.00114382
-0.00433255
-0.00577335
-0.00638662
-0.0065207
-0.00617106
-0.00525036
-0.0035651
-0.000786588
0.00375042
-0.0056032
-0.00863339
-0.0100912
-0.0108597
-0.0112754
-0.0113224
-0.0108641
-0.00961841
-0.00710316
-0.00191041
-0.0113566
-0.0140586
-0.0154835
-0.0164205
-0.0171776
-0.0177365
-0.0179176
-0.0173515
-0.0154589
-0.00942518
-0.0181401
-0.0203901
-0.0217366
-0.0228371
-0.0239685
-0.0251449
-0.0262082
-0.0267992
-0.0267071
-0.0216454
-5.20915e-07
-0.00146547
-0.00285603
-0.00376335
-0.00389683
-0.00312643
-0.00141755
0.00121781
0.00472842
0.00901503
0.00146139
-2.71961e-05
-0.00096663
-0.00139245
-0.00119097
-0.000261194
0.00143379
0.00390033
0.00711802
0.0110315
0.00287679
0.000875252
-6.47635e-05
-0.000361402
-5.64014e-05
0.000912682
0.0025689
0.00492695
0.00799203
0.0117449
0.00370625
0.00113748
6.33704e-05
-0.000241526
5.63829e-05
0.00098705
0.00256358
0.00481533
0.00778268
0.0114968
0.0034847
0.0004839
-0.000729269
-0.00109926
-0.000879344
-5.75623e-05
0.00138431
0.00350686
0.00640705
0.0102076
0.00192594
-0.00131852
-0.00264381
-0.00311819
-0.00304343
-0.0024103
-0.00117631
0.000773505
0.00362403
0.00767992
-0.00109305
-0.00437445
-0.00576796
-0.00637478
-0.00651203
-0.00616209
-0.0052404
-0.00355299
-0.000794815
0.00370761
-0.00555645
-0.00867332
-0.0100863
-0.0108481
-0.0112661
-0.0113129
-0.0108534
-0.0095991
-0.00712631
-0.00206078
-0.0113174
-0.0140946
-0.0154801
-0.0164106
-0.0171683
-0.0177258
-0.0179026
-0.0173011
-0.0154457
-0.00976272
-0.0181113
-0.0204213
-0.0217361
-0.0228314
-0.0239619
-0.0251341
-0.0261841
-0.0266673
-0.0264056
-0.0217337
-3.8396e-07
-0.00146541
-0.002856
-0.00376335
-0.00389685
-0.00312645
-0.00141758
0.00121779
0.00472839
0.00901502
0.00146146
-2.71647e-05
-0.000966624
-0.00139247
-0.00119099
-0.000261222
0.00143376
0.0039003
0.00711799
0.0110315
0.00287679
0.000875248
-6.47784e-05
-0.000361431
-5.64323e-05
0.000912646
0.00256886
0.00492692
0.007992
0.0117449
0.00370622
0.00113745
6.33454e-05
-0.00024156
5.63462e-05
0.000987012
0.00256356
0.0048153
0.00778265
0.0114968
0.00348466
0.000483865
-0.000729306
-0.0010993
-0.000879383
-5.75989e-05
0.00138427
0.00350684
0.00640703
0.0102075
0.0019259
-0.00131856
-0.00264385
-0.00311823
-0.00304348
-0.00241033
-0.00117633
0.000773481
0.00362401
0.00767991
-0.00109308
-0.00437448
-0.005768
-0.00637482
-0.00651206
-0.00616212
-0.00524042
-0.00355302
-0.000794836
0.0037076
-0.00555649
-0.00867336
-0.0100864
-0.0108482
-0.0112661
-0.0113129
-0.0108534
-0.00959911
-0.00712632
-0.00206078
-0.0113174
-0.0140947
-0.0154801
-0.0164107
-0.0171683
-0.0177258
-0.0179026
-0.0173011
-0.0154457
-0.00976272
-0.0181114
-0.0204213
-0.0217361
-0.0228314
-0.0239619
-0.0251341
-0.0261842
-0.0266673
-0.0264056
-0.0217337
5.71414e-07
-0.00144606
-0.00282707
-0.00372636
-0.00385527
-0.00308312
-0.00137434
0.0012591
0.00476567
0.00904592
0.00144541
-2.34423e-05
-0.000983573
-0.00141821
-0.00122095
-0.000293835
0.00140118
0.00387004
0.00709144
0.0110085
0.00284882
0.000898843
-6.38723e-05
-0.000362476
-5.51495e-05
0.000913911
0.00257025
0.00492886
0.00799454
0.0117463
0.00366646
0.00116996
6.33597e-05
-0.000244052
5.77992e-05
0.000988997
0.00256599
0.00481876
0.00778799
0.0115014
0.00343708
0.000521421
-0.000733353
-0.00110804
-0.000884208
-6.20149e-05
0.00138053
0.00350505
0.00641095
0.0102141
0.00187481
-0.00127743
-0.00264901
-0.00312918
-0.00305062
-0.00241729
-0.001183
0.000768372
0.00363033
0.00769714
-0.00114393
-0.00433266
-0.00577345
-0.00638673
-0.00652079
-0.00617114
-0.00525042
-0.00356515
-0.000786634
0.00375039
-0.00560329
-0.00863348
-0.0100913
-0.0108598
-0.0112755
-0.0113224
-0.0108642
-0.00961846
-0.00710319
-0.00191043
-0.0113566
-0.0140587
-0.0154836
-0.0164206
-0.0171777
-0.0177365
-0.0179176
-0.0173515
-0.0154589
-0.0094252
-0.0181402
-0.0203902
-0.0217366
-0.0228372
-0.0239685
-0.025145
-0.0262083
-0.0267992
-0.0267072
-0.0216455
0.0139485
0.019292
0.0249142
0.0306941
0.0365524
0.0424438
0.0483473
0.0542579
0.0601819
0.0661349
0.0721415
0.0782363
0.084464
0.0908781
0.0975361
0.104489
0.111766
0.119341
0.127117
0.134891
0.0155192
0.0204853
0.0257798
0.0312995
0.0369666
0.0427281
0.0485511
0.0544189
0.060327
0.0662819
0.0722991
0.0784026
0.084624
0.0909998
0.0975669
0.104354
0.111367
0.118578
0.125896
0.133156
0.0161076
0.0209376
0.026115
0.0315415
0.0371393
0.0428523
0.0486435
0.0544911
0.0603857
0.0663283
0.0723281
0.0784022
0.0845738
0.0908707
0.0973217
0.103951
0.110769
0.117758
0.124856
0.131934
0.0159
0.0207831
0.02601
0.0314778
0.0371065
0.0428407
0.0486446
0.0544969
0.0603872
0.0663136
0.0722809
0.0783001
0.0843875
0.0905645
0.0968568
0.103293
0.109899
0.116691
0.123654
0.130715
0.0148837
0.0200383
0.025492
0.0311365
0.0368929
0.0427135
0.0485717
0.054453
0.0603504
0.0662618
0.0721888
0.078136
0.0841122
0.0901313
0.0962158
0.1024
0.108736
0.115285
0.122109
0.129247
0.0130291
0.0187586
0.0246431
0.0305986
0.0365651
0.0425206
0.0484607
0.0543858
0.0602971
0.0661946
0.072077
0.0779423
0.0837895
0.0896223
0.0954553
0.101326
0.107308
0.113521
0.120138
0.127421
0.0104473
0.0171697
0.0236884
0.0300481
0.0362576
0.0423538
0.0483723
0.0543365
0.060258
0.0661399
0.0719774
0.0777602
0.0834751
0.0891098
0.094663
0.100163
0.105695
0.111436
0.117697
0.125174
0.00748094
0.0157081
0.0229805
0.0297359
0.0361325
0.0423116
0.0483658
0.0543419
0.0602599
0.0661227
0.0719199
0.077631
0.0832273
0.0886757
0.0939474
0.0990422
0.104052
0.10917
0.114826
0.122428
0.00594391
0.0158343
0.0233204
0.0300639
0.0363838
0.0424858
0.0484863
0.0544297
0.0603274
0.0661732
0.0719471
0.0776156
0.0831315
0.0884333
0.093448
0.0981168
0.102485
0.1066
0.110749
0.117499
0.0103129
0.0206867
0.0261545
0.0316146
0.0372317
0.042958
0.0487683
0.0546245
0.0604919
0.0663391
0.0721293
0.0778133
0.0833206
0.088548
0.0933453
0.0974999
0.100728
0.102747
0.10293
0.105886
0.0139255
0.0192761
0.0249039
0.0306878
0.0365487
0.0424416
0.0483459
0.0542568
0.0601807
0.0661334
0.0721395
0.0782336
0.0844606
0.0908741
0.0975318
0.104485
0.111764
0.119342
0.127124
0.134909
0.0155394
0.0205021
0.025793
0.0313094
0.0369739
0.0427334
0.0485551
0.0544221
0.06033
0.066285
0.0723024
0.0784062
0.0846276
0.0910029
0.0975684
0.104352
0.111361
0.118566
0.125877
0.13313
0.0161102
0.020942
0.0261198
0.031546
0.037143
0.0428553
0.0486457
0.0544927
0.060387
0.0663293
0.0723289
0.0784028
0.0845742
0.0908707
0.097321
0.10395
0.110766
0.117754
0.124851
0.131929
0.0159039
0.0207894
0.0260161
0.0314831
0.0371107
0.0428438
0.0486468
0.0544984
0.0603882
0.0663143
0.0722814
0.0783004
0.0843877
0.0905645
0.0968564
0.103292
0.109897
0.116688
0.123648
0.13071
0.0148943
0.02005
0.0255012
0.0311437
0.0368979
0.0427167
0.0485737
0.0544543
0.0603512
0.0662624
0.0721893
0.0781365
0.0841127
0.0901319
0.0962162
0.1024
0.108735
0.115281
0.122099
0.129234
0.0130524
0.0187779
0.0246547
0.0306063
0.0365696
0.042523
0.0484619
0.0543863
0.0602973
0.0661947
0.0720771
0.0779425
0.0837899
0.0896229
0.0954559
0.101326
0.107308
0.113519
0.120121
0.127388
0.0105101
0.0172098
0.0237062
0.0300574
0.0362616
0.0423549
0.0483725
0.0543363
0.0602578
0.0661397
0.0719774
0.0777605
0.0834756
0.0891108
0.0946642
0.100163
0.105694
0.11143
0.117659
0.125085
0.00758842
0.01575
0.0229884
0.0297391
0.0361322
0.0423101
0.0483644
0.0543407
0.060259
0.0661218
0.0719192
0.0776305
0.083227
0.0886761
0.0939488
0.0990431
0.104051
0.109174
0.114792
0.122283
0.00607943
0.0157753
0.023256
0.0300375
0.0363705
0.042478
0.0484817
0.0544264
0.0603243
0.0661698
0.0719429
0.0776106
0.0831259
0.0884282
0.0934458
0.0981196
0.102502
0.106678
0.110851
0.117336
0.0110864
0.0208091
0.026161
0.0316345
0.0372445
0.0429637
0.0487714
0.0546265
0.0604936
0.0663409
0.0721315
0.0778161
0.083324
0.0885516
0.0933474
0.0974953
0.100718
0.102772
0.10287
0.10494
0.0139255
0.0192761
0.0249039
0.0306878
0.0365487
0.0424416
0.0483459
0.0542568
0.0601807
0.0661334
0.0721395
0.0782336
0.0844606
0.0908741
0.0975318
0.104485
0.111764
0.119342
0.127124
0.134909
0.0155394
0.0205021
0.025793
0.0313094
0.0369739
0.0427334
0.0485551
0.0544221
0.06033
0.066285
0.0723024
0.0784062
0.0846276
0.0910029
0.0975684
0.104352
0.111361
0.118566
0.125877
0.13313
0.0161102
0.020942
0.0261198
0.0315459
0.037143
0.0428552
0.0486457
0.0544927
0.060387
0.0663293
0.0723289
0.0784028
0.0845742
0.0908707
0.097321
0.10395
0.110766
0.117754
0.124851
0.131929
0.0159039
0.0207893
0.0260161
0.0314831
0.0371107
0.0428438
0.0486468
0.0544984
0.0603882
0.0663143
0.0722814
0.0783004
0.0843877
0.0905645
0.0968564
0.103292
0.109897
0.116688
0.123648
0.13071
0.0148943
0.02005
0.0255012
0.0311437
0.0368979
0.0427167
0.0485737
0.0544543
0.0603512
0.0662624
0.0721893
0.0781365
0.0841127
0.0901319
0.0962162
0.1024
0.108735
0.115281
0.122099
0.129234
0.0130524
0.0187778
0.0246547
0.0306063
0.0365696
0.042523
0.0484619
0.0543863
0.0602973
0.0661947
0.0720771
0.0779425
0.0837899
0.0896229
0.0954559
0.101326
0.107308
0.113519
0.120121
0.127388
0.0105101
0.0172098
0.0237062
0.0300574
0.0362616
0.0423549
0.0483725
0.0543363
0.0602578
0.0661397
0.0719774
0.0777605
0.0834756
0.0891108
0.0946642
0.100163
0.105694
0.11143
0.117659
0.125085
0.00758842
0.01575
0.0229883
0.0297391
0.0361322
0.0423101
0.0483644
0.0543407
0.060259
0.0661218
0.0719192
0.0776305
0.083227
0.0886761
0.0939488
0.0990431
0.104051
0.109174
0.114792
0.122283
0.00607943
0.0157753
0.023256
0.0300375
0.0363705
0.042478
0.0484817
0.0544264
0.0603243
0.0661698
0.0719429
0.0776106
0.0831259
0.0884282
0.0934458
0.0981196
0.102502
0.106678
0.110851
0.117336
0.0110864
0.0208091
0.026161
0.0316345
0.0372445
0.0429637
0.0487713
0.0546265
0.0604937
0.0663409
0.0721315
0.0778161
0.083324
0.0885516
0.0933474
0.0974953
0.100718
0.102772
0.10287
0.10494
0.0139484
0.0192919
0.0249142
0.0306941
0.0365524
0.0424438
0.0483473
0.0542579
0.0601819
0.0661349
0.0721415
0.0782363
0.084464
0.0908781
0.0975362
0.104489
0.111766
0.119341
0.127117
0.134891
0.0155191
0.0204852
0.0257798
0.0312995
0.0369666
0.0427281
0.0485511
0.0544188
0.060327
0.0662819
0.0722991
0.0784026
0.084624
0.0909998
0.0975669
0.104354
0.111367
0.118578
0.125896
0.133156
0.0161075
0.0209375
0.026115
0.0315415
0.0371393
0.0428523
0.0486435
0.0544911
0.0603857
0.0663283
0.0723281
0.0784022
0.0845738
0.0908707
0.0973217
0.103951
0.110769
0.117759
0.124857
0.131934
0.0159
0.0207831
0.02601
0.0314778
0.0371065
0.0428407
0.0486446
0.0544969
0.0603872
0.0663136
0.0722809
0.0783001
0.0843875
0.0905645
0.0968568
0.103293
0.109899
0.116691
0.123654
0.130715
0.0148837
0.0200383
0.0254919
0.0311365
0.0368928
0.0427134
0.0485717
0.054453
0.0603504
0.0662618
0.0721888
0.0781361
0.0841122
0.0901314
0.0962158
0.1024
0.108736
0.115285
0.122109
0.129247
0.013029
0.0187586
0.024643
0.0305986
0.0365651
0.0425206
0.0484607
0.0543858
0.0602971
0.0661946
0.072077
0.0779423
0.0837896
0.0896223
0.0954553
0.101326
0.107308
0.113521
0.120138
0.127421
0.0104473
0.0171697
0.0236883
0.0300481
0.0362576
0.0423538
0.0483724
0.0543365
0.060258
0.0661399
0.0719774
0.0777603
0.0834751
0.0891098
0.094663
0.100163
0.105695
0.111436
0.117697
0.125174
0.00748093
0.0157081
0.0229805
0.0297359
0.0361325
0.0423117
0.0483658
0.0543419
0.0602599
0.0661227
0.0719199
0.077631
0.0832273
0.0886758
0.0939474
0.0990422
0.104052
0.10917
0.114826
0.122428
0.0059439
0.0158343
0.0233204
0.0300639
0.0363838
0.0424858
0.0484863
0.0544297
0.0603274
0.0661732
0.0719471
0.0776156
0.0831315
0.0884333
0.093448
0.0981168
0.102485
0.1066
0.110749
0.117499
0.0103129
0.0206867
0.0261545
0.0316146
0.0372317
0.042958
0.0487683
0.0546245
0.060492
0.0663391
0.0721293
0.0778133
0.0833206
0.088548
0.0933453
0.0974999
0.100728
0.102747
0.10293
0.105886
0.142357
0.149142
0.154897
0.159358
0.162379
0.163944
0.164175
0.163358
0.161954
0.160509
0.140108
0.14644
0.151867
0.15617
0.159227
0.161028
0.161678
0.161407
0.160485
0.159062
0.138761
0.145015
0.150409
0.154729
0.157855
0.159773
0.160571
0.160445
0.159525
0.15768
0.13766
0.144078
0.14964
0.154115
0.157375
0.159398
0.160264
0.160147
0.159091
0.156782
0.136528
0.14332
0.149223
0.15398
0.157453
0.159623
0.160567
0.160455
0.15929
0.156654
0.135351
0.142759
0.149175
0.154329
0.158087
0.160446
0.1615
0.161427
0.16022
0.157428
0.134286
0.142576
0.149631
0.155248
0.159321
0.161889
0.163079
0.163086
0.161919
0.159141
0.133693
0.143139
0.150874
0.156932
0.161271
0.164015
0.165335
0.16545
0.164393
0.161781
0.133782
0.145027
0.153384
0.159707
0.164133
0.166923
0.168309
0.168522
0.167623
0.165297
0.138838
0.151051
0.158569
0.164239
0.168198
0.170728
0.172028
0.172283
0.171552
0.169592
0.142386
0.149181
0.154944
0.159409
0.162431
0.163991
0.164215
0.163386
0.161971
0.160508
0.140077
0.146404
0.151827
0.156128
0.159186
0.16099
0.161645
0.161384
0.160481
0.159042
0.138762
0.145019
0.150414
0.154734
0.157861
0.159777
0.160571
0.160444
0.159542
0.157652
0.137666
0.144088
0.149652
0.154127
0.157386
0.159407
0.160267
0.160148
0.159117
0.156745
0.136535
0.143329
0.149233
0.153989
0.157461
0.159628
0.160566
0.160454
0.15932
0.156612
0.135362
0.14277
0.149185
0.154338
0.158094
0.16045
0.161498
0.161426
0.160252
0.157385
0.13431
0.142591
0.149642
0.155259
0.159327
0.161893
0.163077
0.163085
0.161951
0.159098
0.133825
0.143189
0.150893
0.156944
0.161277
0.164017
0.165332
0.165448
0.164424
0.16174
0.134084
0.14504
0.153361
0.159699
0.164126
0.166919
0.168303
0.16852
0.16765
0.16526
0.13875
0.150714
0.158419
0.164196
0.168181
0.170722
0.172024
0.172282
0.171575
0.169561
0.142386
0.149181
0.154944
0.159409
0.162431
0.163992
0.164215
0.163386
0.161971
0.160508
0.140077
0.146404
0.151827
0.156128
0.159186
0.16099
0.161645
0.161384
0.160481
0.159042
0.138762
0.145019
0.150414
0.154734
0.157861
0.159777
0.160571
0.160444
0.159542
0.157652
0.137666
0.144088
0.149652
0.154127
0.157386
0.159407
0.160267
0.160148
0.159117
0.156745
0.136535
0.143329
0.149233
0.153989
0.157461
0.159628
0.160566
0.160454
0.15932
0.156612
0.135362
0.14277
0.149185
0.154338
0.158094
0.16045
0.161498
0.161426
0.160252
0.157385
0.13431
0.142591
0.149642
0.155259
0.159327
0.161893
0.163077
0.163085
0.161951
0.159098
0.133825
0.14319
0.150893
0.156944
0.161277
0.164017
0.165332
0.165448
0.164424
0.16174
0.134084
0.14504
0.153361
0.159699
0.164126
0.166919
0.168303
0.16852
0.16765
0.16526
0.13875
0.150714
0.158419
0.164196
0.168181
0.170722
0.172024
0.172282
0.171575
0.169561
0.142357
0.149142
0.154897
0.159358
0.16238
0.163944
0.164175
0.163358
0.161954
0.160509
0.140108
0.14644
0.151867
0.15617
0.159227
0.161028
0.161678
0.161407
0.160485
0.159062
0.138761
0.145015
0.150409
0.154729
0.157855
0.159773
0.160571
0.160445
0.159525
0.15768
0.13766
0.144078
0.14964
0.154115
0.157375
0.159399
0.160264
0.160147
0.159091
0.156782
0.136528
0.14332
0.149224
0.153981
0.157454
0.159623
0.160567
0.160456
0.15929
0.156654
0.135351
0.142759
0.149175
0.154329
0.158087
0.160446
0.1615
0.161427
0.16022
0.157428
0.134286
0.142576
0.149631
0.155249
0.159321
0.161889
0.163079
0.163086
0.161919
0.159141
0.133693
0.143139
0.150874
0.156932
0.161271
0.164015
0.165335
0.16545
0.164393
0.161781
0.133782
0.145027
0.153384
0.159707
0.164133
0.166923
0.168309
0.168522
0.167623
0.165297
0.138838
0.151051
0.158569
0.164239
0.168198
0.170728
0.172028
0.172283
0.171552
0.169592
0.170767
0.166401
0.167947
0.170928
0.173528
0.175401
0.176434
0.176656
0.176079
0.174515
0.181104
0.176266
0.176157
0.177641
0.179255
0.180559
0.181327
0.181501
0.181065
0.179887
0.186531
0.183725
0.183412
0.184149
0.185136
0.186017
0.186564
0.186695
0.186384
0.185546
0.191944
0.190441
0.19015
0.1905
0.191089
0.191664
0.19204
0.192136
0.191929
0.19137
0.197511
0.196738
0.196538
0.196706
0.197055
0.197422
0.197673
0.197743
0.197617
0.197276
0.203193
0.202833
0.202723
0.202809
0.203014
0.20324
0.2034
0.20345
0.203385
0.203211
0.208981
0.208857
0.208814
0.208856
0.208964
0.209088
0.209177
0.209207
0.209185
0.209136
0.214856
0.214888
0.214879
0.214883
0.214912
0.214947
0.214968
0.214969
0.214971
0.215024
0.220839
0.220969
0.220969
0.220922
0.220864
0.220803
0.220744
0.2207
0.220706
0.220834
0.226962
0.227154
0.22713
0.227002
0.226829
0.226643
0.226476
0.226359
0.226343
0.226523
0.233287
0.233499
0.233407
0.23315
0.232813
0.232455
0.232136
0.231906
0.231833
0.232029
0.239906
0.240071
0.239845
0.239392
0.238822
0.238227
0.237695
0.237299
0.23712
0.237278
0.246942
0.246941
0.246487
0.245747
0.244859
0.243945
0.243127
0.2425
0.242148
0.242181
0.254548
0.254179
0.253362
0.252221
0.250916
0.249598
0.248417
0.24748
0.246871
0.246646
0.262923
0.261811
0.260449
0.258792
0.256971
0.255173
0.253559
0.252244
0.251273
0.250586
0.272238
0.269821
0.267651
0.265356
0.262961
0.260654
0.258579
0.256826
0.255362
0.253985
0.282591
0.277918
0.274646
0.271665
0.268736
0.266
0.263526
0.261331
0.259256
0.256852
0.293598
0.285305
0.28072
0.277211
0.273994
0.27111
0.268465
0.265938
0.263165
0.259339
0.30498
0.291037
0.284743
0.281085
0.278154
0.275733
0.273441
0.270904
0.267447
0.261766
0.31773
0.292528
0.283742
0.281174
0.279967
0.2793
0.278401
0.276555
0.272646
0.264705
0.17154
0.166536
0.168055
0.170991
0.173551
0.175412
0.176438
0.176659
0.176099
0.174492
0.181226
0.176207
0.176199
0.177681
0.179274
0.180571
0.181333
0.181505
0.181082
0.179871
0.186537
0.183661
0.183419
0.184167
0.185148
0.186026
0.18657
0.186699
0.186397
0.185535
0.191963
0.190415
0.190154
0.190509
0.191097
0.191671
0.192045
0.192141
0.191938
0.191364
0.197523
0.196726
0.196538
0.19671
0.197059
0.197427
0.197677
0.197747
0.197623
0.197273
0.203197
0.202828
0.202722
0.202811
0.203016
0.203243
0.203403
0.203453
0.203388
0.20321
0.208982
0.208856
0.208813
0.208856
0.208965
0.20909
0.209179
0.209208
0.209186
0.209136
0.214856
0.214889
0.214879
0.214883
0.214912
0.214948
0.21497
0.21497
0.21497
0.215025
0.220837
0.220972
0.220969
0.220922
0.220864
0.220803
0.220745
0.2207
0.220703
0.220837
0.226958
0.227158
0.22713
0.227001
0.226829
0.226643
0.226477
0.226359
0.226339
0.226526
0.233282
0.233504
0.233407
0.233149
0.232812
0.232455
0.232136
0.231906
0.231828
0.232034
0.239901
0.240076
0.239844
0.23939
0.238822
0.238226
0.237695
0.237299
0.237116
0.237283
0.246936
0.246944
0.246485
0.245745
0.244858
0.243944
0.243128
0.242501
0.242145
0.242186
0.254544
0.254175
0.253357
0.252219
0.250914
0.249596
0.248417
0.247482
0.246872
0.24665
0.262921
0.261796
0.260442
0.258788
0.256968
0.255171
0.253559
0.252247
0.251281
0.250588
0.272249
0.269785
0.267643
0.265353
0.262956
0.260653
0.25858
0.256831
0.255381
0.253982
0.282646
0.277855
0.27464
0.271665
0.268731
0.265999
0.263527
0.26134
0.259293
0.25684
0.293698
0.285145
0.280697
0.277209
0.273986
0.271109
0.268468
0.265952
0.263226
0.259312
0.305122
0.290691
0.284727
0.281123
0.278166
0.275745
0.27345
0.270925
0.267542
0.261719
0.319077
0.292614
0.284027
0.281363
0.280037
0.279334
0.278417
0.276586
0.272786
0.26463
0.17154
0.166536
0.168055
0.170991
0.173551
0.175412
0.176438
0.176659
0.176099
0.174492
0.181226
0.176207
0.176199
0.177681
0.179274
0.180571
0.181333
0.181505
0.181082
0.179871
0.186537
0.183661
0.183419
0.184167
0.185148
0.186026
0.18657
0.186699
0.186397
0.185535
0.191963
0.190415
0.190154
0.190509
0.191097
0.191671
0.192045
0.192141
0.191938
0.191364
0.197523
0.196727
0.196538
0.19671
0.197059
0.197427
0.197677
0.197747
0.197623
0.197273
0.203197
0.202828
0.202722
0.202811
0.203016
0.203243
0.203403
0.203453
0.203388
0.20321
0.208982
0.208856
0.208813
0.208856
0.208965
0.20909
0.209179
0.209208
0.209186
0.209136
0.214856
0.214889
0.214879
0.214883
0.214912
0.214948
0.21497
0.21497
0.21497
0.215025
0.220837
0.220972
0.220969
0.220922
0.220864
0.220803
0.220745
0.2207
0.220703
0.220837
0.226958
0.227158
0.22713
0.227001
0.226829
0.226643
0.226477
0.226359
0.226339
0.226526
0.233282
0.233504
0.233407
0.233149
0.232812
0.232455
0.232136
0.231906
0.231828
0.232034
0.239901
0.240076
0.239844
0.23939
0.238822
0.238226
0.237695
0.237299
0.237116
0.237283
0.246936
0.246944
0.246485
0.245745
0.244858
0.243944
0.243128
0.242501
0.242145
0.242186
0.254544
0.254175
0.253357
0.252219
0.250914
0.249596
0.248417
0.247482
0.246872
0.24665
0.262921
0.261796
0.260442
0.258788
0.256968
0.255171
0.253559
0.252247
0.251281
0.250588
0.272249
0.269785
0.267643
0.265353
0.262956
0.260653
0.25858
0.256831
0.255381
0.253982
0.282646
0.277855
0.27464
0.271665
0.268731
0.265999
0.263527
0.26134
0.259293
0.25684
0.293698
0.285145
0.280697
0.277209
0.273986
0.271109
0.268468
0.265952
0.263226
0.259312
0.305122
0.290691
0.284727
0.281123
0.278166
0.275745
0.27345
0.270925
0.267542
0.261719
0.319077
0.292614
0.284027
0.281363
0.280037
0.279334
0.278417
0.276586
0.272786
0.26463
0.170767
0.166401
0.167947
0.170928
0.173528
0.175401
0.176435
0.176656
0.176079
0.174515
0.181104
0.176266
0.176157
0.177641
0.179255
0.180559
0.181327
0.181501
0.181065
0.179887
0.186531
0.183725
0.183412
0.184149
0.185136
0.186017
0.186564
0.186695
0.186384
0.185546
0.191944
0.190441
0.19015
0.1905
0.191089
0.191664
0.19204
0.192136
0.191929
0.19137
0.197511
0.196738
0.196538
0.196706
0.197055
0.197422
0.197673
0.197743
0.197617
0.197276
0.203193
0.202833
0.202723
0.202809
0.203014
0.20324
0.2034
0.20345
0.203385
0.203211
0.208981
0.208857
0.208814
0.208856
0.208964
0.209088
0.209177
0.209207
0.209185
0.209136
0.214856
0.214888
0.214879
0.214883
0.214912
0.214947
0.214968
0.214969
0.214971
0.215024
0.220839
0.220969
0.220969
0.220922
0.220864
0.220803
0.220744
0.2207
0.220706
0.220834
0.226962
0.227154
0.22713
0.227002
0.226829
0.226643
0.226476
0.226359
0.226343
0.226523
0.233287
0.233499
0.233407
0.23315
0.232813
0.232455
0.232136
0.231906
0.231833
0.232029
0.239906
0.240071
0.239845
0.239392
0.238822
0.238227
0.237695
0.237299
0.23712
0.237278
0.246942
0.246941
0.246487
0.245747
0.244859
0.243945
0.243127
0.2425
0.242148
0.242181
0.254548
0.254179
0.253362
0.252221
0.250916
0.249598
0.248417
0.24748
0.246871
0.246646
0.262923
0.261811
0.260449
0.258792
0.256971
0.255173
0.253559
0.252244
0.251273
0.250586
0.272238
0.269821
0.267651
0.265356
0.262961
0.260654
0.258579
0.256826
0.255362
0.253985
0.282591
0.277918
0.274646
0.271665
0.268736
0.266
0.263526
0.261331
0.259256
0.256852
0.293598
0.285305
0.28072
0.277211
0.273994
0.27111
0.268465
0.265938
0.263165
0.259339
0.30498
0.291037
0.284743
0.281085
0.278153
0.275733
0.273441
0.270904
0.267447
0.261766
0.31773
0.292528
0.283742
0.281174
0.279967
0.2793
0.2784
0.276555
0.272646
0.264705
0.255066
0.263623
0.269825
0.27423
0.277881
0.281137
0.283288
0.283347
0.279585
0.269105
0.22618
0.242537
0.254196
0.26389
0.272962
0.281509
0.288409
0.292011
0.289488
0.276495
0.20905
0.224789
0.238359
0.251865
0.266197
0.280956
0.294344
0.303617
0.304137
0.289289
0.195621
0.209609
0.2238
0.240053
0.259214
0.280731
0.30228
0.319836
0.32618
0.311414
0.185638
0.198163
0.212559
0.230899
0.254433
0.282966
0.314232
0.343199
0.359573
0.349365
0.179442
0.191385
0.20634
0.226711
0.254478
0.290275
0.332818
0.377069
0.409952
0.413361
0.176971
0.189448
0.205767
0.228754
0.261073
0.304728
0.360441
0.424899
0.484001
0.517904
0.177452
0.191297
0.209657
0.235755
0.273146
0.325601
0.396937
0.48733
0.587007
0.69038
0.179263
0.194268
0.214061
0.242195
0.283176
0.343014
0.430146
0.552907
0.721421
1.00112
0.180814
0.195329
0.213984
0.240184
0.278694
0.336969
0.429118
0.582763
0.868758
1.48566
0.255385
0.263123
0.269699
0.274213
0.277875
0.281144
0.283292
0.283381
0.279778
0.268995
0.226631
0.242493
0.254149
0.263859
0.272941
0.281504
0.288403
0.292049
0.28975
0.276342
0.209319
0.224813
0.238335
0.25183
0.266161
0.280932
0.294315
0.303653
0.304481
0.289093
0.195715
0.209597
0.223754
0.23999
0.259145
0.280667
0.302208
0.319856
0.326598
0.311173
0.185668
0.198133
0.212492
0.230807
0.254323
0.282845
0.314095
0.343179
0.360018
0.349106
0.179449
0.191348
0.206259
0.226598
0.25432
0.290073
0.332572
0.376952
0.410323
0.413305
0.176983
0.189425
0.205698
0.22863
0.260873
0.304409
0.359998
0.424561
0.483993
0.518384
0.177495
0.19133
0.209676
0.235752
0.273088
0.325391
0.396546
0.486964
0.585723
0.690056
0.179333
0.194378
0.214241
0.24248
0.283601
0.343566
0.430878
0.553498
0.718191
0.998814
0.180867
0.195374
0.214009
0.240194
0.278712
0.337048
0.429481
0.583207
0.865081
1.49492
0.255385
0.263123
0.269698
0.274213
0.277875
0.281144
0.283292
0.283381
0.279778
0.268994
0.226631
0.242493
0.254149
0.263859
0.272941
0.281504
0.288403
0.292049
0.28975
0.276342
0.209319
0.224813
0.238335
0.25183
0.266161
0.280932
0.294315
0.303653
0.304481
0.289093
0.195715
0.209597
0.223754
0.23999
0.259145
0.280667
0.302208
0.319856
0.326598
0.311173
0.185668
0.198133
0.212492
0.230807
0.254323
0.282845
0.314095
0.343179
0.360018
0.349106
0.179449
0.191348
0.206259
0.226598
0.25432
0.290073
0.332572
0.376952
0.410323
0.413305
0.176983
0.189425
0.205698
0.22863
0.260873
0.304409
0.359998
0.424561
0.483993
0.518384
0.177495
0.19133
0.209676
0.235752
0.273088
0.325391
0.396546
0.486964
0.585723
0.690056
0.179333
0.194378
0.214241
0.24248
0.283601
0.343566
0.430878
0.553498
0.718191
0.998814
0.180868
0.195374
0.214009
0.240194
0.278712
0.337048
0.429481
0.583207
0.865081
1.49492
0.255066
0.263623
0.269825
0.27423
0.277881
0.281137
0.283288
0.283347
0.279584
0.269105
0.22618
0.242537
0.254196
0.26389
0.272962
0.281509
0.288409
0.292011
0.289488
0.276494
0.20905
0.224789
0.238359
0.251865
0.266196
0.280956
0.294343
0.303617
0.304137
0.289289
0.195621
0.209609
0.2238
0.240053
0.259214
0.280731
0.30228
0.319836
0.32618
0.311414
0.185638
0.198163
0.212559
0.230899
0.254433
0.282965
0.314232
0.343199
0.359573
0.349365
0.179442
0.191385
0.20634
0.226711
0.254478
0.290275
0.332818
0.377069
0.409952
0.413361
0.176971
0.189448
0.205767
0.228754
0.261073
0.304728
0.360441
0.424899
0.484001
0.517904
0.177452
0.191297
0.209656
0.235755
0.273146
0.325601
0.396937
0.48733
0.587007
0.69038
0.179263
0.194268
0.214061
0.242195
0.283176
0.343014
0.430146
0.552907
0.721421
1.00112
0.180814
0.195329
0.213984
0.240184
0.278694
0.336969
0.429118
0.582763
0.868758
1.48566
-0.149307
-0.128898
-0.111266
-0.094899
-0.0784623
-0.0617871
-0.0448882
-0.0278151
-0.0106373
0.00656767
0.023719
0.0407347
0.0575317
0.0740636
0.0903378
0.106524
0.123084
0.141022
0.163588
0.201013
-0.13628
-0.122815
-0.1084
-0.0932345
-0.0773855
-0.0610613
-0.0443957
-0.0274874
-0.0104237
0.00671738
0.0238645
0.0409554
0.0579499
0.0748355
0.0916812
0.10869
0.126264
0.145034
0.166548
0.194543
-0.133526
-0.121432
-0.10771
-0.0928619
-0.0772
-0.060977
-0.0443586
-0.0274638
-0.010386
0.00679918
0.0240284
0.0412491
0.0584254
0.075546
0.0926489
0.109854
0.127388
0.14557
0.165012
0.186768
-0.134991
-0.122529
-0.108571
-0.0935472
-0.0777507
-0.0614081
-0.0446796
-0.0276795
-0.0104928
0.00681534
0.0241915
0.0415893
0.0589667
0.0762873
0.0935247
0.110672
0.127741
0.144752
0.161796
0.179032
-0.138062
-0.124823
-0.110296
-0.0948376
-0.0787107
-0.062112
-0.0451798
-0.0280095
-0.0106684
0.0067938
0.0243354
0.0419135
0.0594756
0.0769507
0.094241
0.111216
0.127707
0.14351
0.15846
0.172518
-0.140979
-0.126996
-0.111901
-0.0960083
-0.0795542
-0.0627092
-0.045588
-0.028266
-0.0107934
0.0067936
0.0244611
0.0421658
0.0598419
0.0773852
0.0946393
0.111385
0.127342
0.142204
0.155745
0.168
-0.142024
-0.127679
-0.112346
-0.0962919
-0.0797289
-0.0628083
-0.0456318
-0.0282649
-0.0107508
0.00687813
0.0245877
0.042329
0.0600222
0.07754
0.0946918
0.111218
0.126806
0.141145
0.154063
0.165742
-0.140239
-0.126159
-0.111119
-0.0953345
-0.0789982
-0.0622572
-0.045217
-0.0279508
-0.0105098
0.00706431
0.0247281
0.0424213
0.0600523
0.0774819
0.0945109
0.110881
0.1263
0.140518
0.153463
0.165455
-0.135607
-0.122591
-0.108447
-0.093377
-0.077587
-0.0612511
-0.0445056
-0.0274516
-0.0101647
0.0072945
0.0248678
0.0424823
0.0600379
0.077394
0.0943582
0.110691
0.126139
0.140505
0.153787
0.166372
-0.127848
-0.117034
-0.104549
-0.0906892
-0.0757597
-0.0600237
-0.0436906
-0.0269185
-0.00982395
0.00750411
0.0249891
0.0425547
0.0601029
0.077498
0.0945592
0.11106
0.126754
0.141435
0.155056
0.167904
-0.149614
-0.128765
-0.111249
-0.0949193
-0.0784739
-0.0617942
-0.0448933
-0.0278183
-0.0106389
0.00656733
0.0237195
0.0407354
0.0575318
0.074061
0.0903283
0.106503
0.123061
0.140976
0.163252
0.200327
-0.136224
-0.122659
-0.10833
-0.0932
-0.0773601
-0.0610434
-0.0443834
-0.0274791
-0.0104184
0.00672048
0.0238666
0.0409578
0.0579548
0.0748459
0.0917001
0.108723
0.126326
0.145114
0.166456
0.194271
-0.13358
-0.121407
-0.107686
-0.0928436
-0.0771854
-0.0609666
-0.0443513
-0.0274588
-0.0103825
0.00680152
0.0240299
0.0412501
0.058426
0.0755461
0.0926474
0.109849
0.127383
0.145554
0.164919
0.186673
-0.135029
-0.122525
-0.10856
-0.093537