/*--------------------------------*- C++ -*----------------------------------*\
| =========                 |                                                 |
| \\      /  F ield         | OpenFOAM: The Open Source CFD Toolbox           |
|  \\    /   O peration     | Version:  2.4.0                                 |
|   \\  /    A nd           | Web:      www.OpenFOAM.org                      |
|    \\/     M anipulation  |                                                 |
\*---------------------------------------------------------------------------*/
FoamFile
{
    version     2.0;
    format      ascii;
    class       surfaceScalarField;
    location    "1.2";
    object      phi;
}
// * * * * * * * * * * * * * * * * * * * * * * * * * * * * * * * * * * * * * //

dimensions      [0 3 -1 0 0 0 0];

internalField   nonuniform List<scalar> 
12720
(
8.92514e-08
-8.9333e-08
5.27636e-11
-6.01718e-07
6.89384e-07
1.58533e-09
-2.0372e-06
1.4331e-06
2.3809e-09
-3.98266e-06
1.94241e-06
3.04664e-09
-6.22524e-06
2.23916e-06
3.42423e-09
-8.59281e-06
2.364e-06
3.56926e-09
-1.09439e-05
2.34755e-06
3.56116e-09
-1.31555e-05
2.20815e-06
3.40265e-09
-1.51196e-05
1.96102e-06
3.07001e-09
1.63186e-06
2.54581e-09
-1.6754e-05
-7.15412e-07
6.27411e-07
-1.33163e-09
-3.11494e-06
3.08859e-06
3.19615e-10
-6.95245e-06
5.27208e-06
-1.47168e-09
-1.18379e-05
6.83013e-06
-2.23323e-09
-1.73722e-05
7.77605e-06
-2.59839e-09
-2.31877e-05
8.18233e-06
-2.829e-09
-2.89522e-05
8.11487e-06
-2.82688e-09
-3.43649e-05
7.62343e-06
-2.625e-09
-3.91648e-05
6.76326e-06
-2.30378e-09
5.62931e-06
-1.98844e-09
-4.31603e-05
-1.56159e-06
2.19131e-06
-2.3054e-09
-5.57242e-06
7.09737e-06
2.05008e-09
-1.14634e-05
1.1163e-05
8.12229e-11
-1.8698e-05
1.40648e-05
-8.69362e-11
-2.67621e-05
1.58399e-05
1.16175e-10
-3.51712e-05
1.65914e-05
1.14392e-10
-4.34678e-05
1.64113e-05
1.2472e-10
-5.12203e-05
1.53758e-05
1.71944e-10
-5.80444e-05
1.35871e-05
2.24109e-10
1.12381e-05
1.28847e-10
-6.36534e-05
-2.22284e-06
4.41741e-06
-3.27104e-09
-7.54721e-06
1.24189e-05
2.82621e-09
-1.50832e-05
1.86989e-05
5.0097e-12
-2.41428e-05
2.31247e-05
-2.11831e-10
-3.41227e-05
2.58197e-05
1.31036e-10
-4.44621e-05
2.69306e-05
1.77356e-10
-5.46156e-05
2.65646e-05
2.15916e-10
-6.40461e-05
2.48059e-05
3.04333e-10
-7.22491e-05
2.17897e-05
4.67684e-10
1.7816e-05
3.99722e-10
-7.88274e-05
-2.66875e-06
7.09007e-06
-3.91125e-09
-8.91618e-06
1.86631e-05
3.26667e-09
-1.76137e-05
2.73968e-05
-3.47426e-10
-2.79529e-05
3.34646e-05
-7.53644e-10
-3.92662e-05
3.71335e-05
-4.13628e-10
-5.09438e-05
3.86086e-05
-3.78047e-10
-6.23783e-05
3.79994e-05
-3.21896e-10
-7.29381e-05
3.53659e-05
-1.50981e-10
-8.19828e-05
3.08341e-05
3.43909e-10
2.47835e-05
5.71917e-10
-8.89508e-05
-2.89448e-06
9.98875e-06
-4.20052e-09
-9.62985e-06
2.53949e-05
3.5776e-09
-1.89515e-05
3.67189e-05
-4.43083e-10
-2.99838e-05
4.44978e-05
-9.4539e-10
-4.20273e-05
4.91776e-05
-6.16056e-10
-5.44518e-05
5.10336e-05
-5.99534e-10
-6.66142e-05
5.01625e-05
-5.75168e-10
-7.78027e-05
4.65549e-05
-4.40716e-10
-8.7217e-05
4.02478e-05
5.52186e-10
3.15935e-05
1.49907e-09
-9.40284e-05
-2.90251e-06
1.28954e-05
-4.17839e-09
-9.67362e-06
3.21624e-05
3.63939e-09
-1.90472e-05
4.60929e-05
-4.68289e-10
-3.01386e-05
5.55904e-05
-1.02889e-09
-4.22513e-05
6.1291e-05
-7.52815e-10
-5.47648e-05
6.3548e-05
-7.79378e-10
-6.70371e-05
6.24356e-05
-8.6487e-10
-7.83109e-05
5.78298e-05
-1.05143e-09
-8.76251e-05
4.95613e-05
7.14746e-10
3.76957e-05
3.71902e-09
-9.37311e-05
-2.70324e-06
1.56025e-05
-3.84687e-09
-9.06673e-06
3.85224e-05
3.46916e-09
-1.79111e-05
5.49377e-05
-4.28123e-10
-2.839e-05
6.60703e-05
-1.00601e-09
-3.98316e-05
7.27334e-05
-8.0824e-10
-5.16467e-05
7.53638e-05
-8.27141e-10
-6.3232e-05
7.40219e-05
-9.33415e-10
-7.38515e-05
6.8451e-05
-1.67815e-09
-8.24578e-05
5.81655e-05
2.01059e-09
4.24351e-05
1.30626e-08
-8.72103e-05
-2.32281e-06
1.79286e-05
-3.22293e-09
-7.88201e-06
4.40784e-05
3.13051e-09
-1.56546e-05
6.27106e-05
-3.00006e-10
-2.48543e-05
7.52708e-05
-8.60168e-10
-3.48269e-05
8.27068e-05
-8.09191e-10
-4.49957e-05
8.55336e-05
-9.28665e-10
-5.47959e-05
8.38234e-05
-1.30153e-09
-6.35634e-05
7.72228e-05
-4.38214e-09
-7.03658e-05
6.49691e-05
-1.14839e-09
4.48228e-05
2.93231e-08
-7.27828e-05
-1.81229e-06
-2.36927e-09
1.97432e-05
-6.27178e-06
2.70696e-09
4.85352e-05
-1.25466e-05
-4.31895e-11
6.89854e-05
-1.99043e-05
-4.95855e-10
8.26291e-05
-2.76609e-05
-5.72937e-10
9.04639e-05
-3.51532e-05
-9.43069e-10
9.30268e-05
-4.17066e-05
-2.09221e-09
9.03789e-05
-4.65239e-05
-1.14556e-08
8.20515e-05
-4.85677e-05
-2.61931e-08
6.70391e-05
7.66795e-09
-4.65911e-05
4.28385e-05
9.12945e-08
-9.12328e-08
-8.8571e-12
-6.02097e-07
6.94983e-07
-4.5989e-12
-2.03784e-06
1.43812e-06
-1.80424e-12
-3.98276e-06
1.94797e-06
-9.22458e-14
-6.22511e-06
2.24577e-06
1.38905e-12
-8.59267e-06
2.37113e-06
1.84368e-12
-1.09439e-05
2.35476e-06
2.36748e-12
-1.31556e-05
2.21509e-06
2.00144e-12
-1.51199e-05
1.96736e-06
1.87628e-12
1.63713e-06
1.59671e-12
-1.67544e-05
-7.20466e-07
6.27908e-07
-6.03319e-12
-3.1199e-06
3.09474e-06
-2.87101e-12
-6.95677e-06
5.27352e-06
-4.30244e-13
-1.18409e-05
6.82986e-06
1.19669e-12
-1.73736e-05
7.77586e-06
2.02117e-12
-2.31877e-05
8.18241e-06
2.51098e-12
-2.89511e-05
8.11529e-06
2.69045e-12
-3.43629e-05
7.62435e-06
2.46649e-12
-3.91626e-05
6.76468e-06
2.17305e-12
5.63059e-06
1.96274e-12
-4.3158e-05
-1.56669e-06
2.1923e-06
-6.11944e-13
-5.57317e-06
7.10326e-06
3.39727e-13
-1.14641e-05
1.11646e-05
1.23857e-12
-1.86989e-05
1.40645e-05
2.52643e-12
-2.67625e-05
1.58395e-05
2.66527e-12
-3.51712e-05
1.65912e-05
3.11234e-12
-4.34673e-05
1.64115e-05
2.8006e-12
-5.12196e-05
1.53768e-05
2.63838e-12
-5.80439e-05
1.35892e-05
2.3036e-12
1.124e-05
2.11421e-12
-6.36532e-05
-2.22896e-06
4.41798e-06
2.02509e-12
-7.54626e-06
1.24234e-05
2.10807e-12
-1.50821e-05
1.87004e-05
2.10623e-12
-2.41425e-05
2.31248e-05
2.88823e-12
-3.41225e-05
2.58197e-05
3.20774e-12
-4.44619e-05
2.69307e-05
3.242e-12
-5.46153e-05
2.65652e-05
2.72538e-12
-6.40457e-05
2.48075e-05
2.58887e-12
-7.22493e-05
2.17933e-05
2.45168e-12
1.78195e-05
2.28271e-12
-7.88284e-05
-2.67624e-06
7.0903e-06
2.86295e-12
-8.91503e-06
1.86654e-05
3.03977e-12
-1.76123e-05
2.73974e-05
3.19336e-12
-2.79525e-05
3.34642e-05
3.47923e-12
-3.9266e-05
3.71328e-05
3.42415e-12
-5.09436e-05
3.86079e-05
3.33726e-12
-6.23779e-05
3.79991e-05
3.24584e-12
-7.29374e-05
3.53668e-05
2.41783e-12
-8.19828e-05
3.08391e-05
2.10647e-12
2.479e-05
2.29219e-12
-8.89528e-05
-2.90267e-06
9.98877e-06
3.48552e-12
-9.62868e-06
2.5395e-05
3.5081e-12
-1.89502e-05
3.67184e-05
3.32257e-12
-2.99837e-05
4.44968e-05
3.72619e-12
-4.20276e-05
4.91761e-05
3.74841e-12
-5.44523e-05
5.10319e-05
3.17753e-12
-6.66144e-05
5.01607e-05
2.4376e-12
-7.7802e-05
4.65539e-05
2.2713e-12
-8.72169e-05
4.02546e-05
2.13374e-12
3.16068e-05
1.53836e-12
-9.40322e-05
-2.91072e-06
1.28953e-05
3.10534e-12
-9.67255e-06
3.21605e-05
3.38446e-12
-1.90461e-05
4.60915e-05
3.8031e-12
-3.01391e-05
5.55887e-05
3.79478e-12
-4.22525e-05
6.12887e-05
3.09787e-12
-5.47666e-05
6.35452e-05
2.82469e-12
-6.70386e-05
6.24319e-05
2.2633e-12
-7.83105e-05
5.78247e-05
2.14317e-12
-8.76239e-05
4.95688e-05
1.79942e-12
3.77253e-05
1.08717e-12
-9.37387e-05
-2.71085e-06
1.56023e-05
3.38611e-12
-9.06581e-06
3.85189e-05
3.29833e-12
-1.79104e-05
5.49357e-05
3.36014e-12
-2.83911e-05
6.60684e-05
3.23242e-12
-3.9834e-05
7.27308e-05
2.90916e-12
-5.165e-05
7.53603e-05
2.20391e-12
-6.32354e-05
7.40164e-05
1.56062e-12
-7.38508e-05
6.84384e-05
1.47233e-12
-8.2446e-05
5.8166e-05
1.33847e-12
4.2511e-05
6.8133e-13
-8.72186e-05
-2.32924e-06
1.79283e-05
2.89418e-12
-7.88119e-06
4.4074e-05
2.94899e-12
-1.56543e-05
6.27085e-05
2.89473e-12
-2.48561e-05
7.52694e-05
2.64457e-12
-3.48312e-05
8.27051e-05
2.24496e-12
-4.50033e-05
8.55315e-05
1.63684e-12
-5.48086e-05
8.38204e-05
1.40223e-12
-6.35802e-05
7.72057e-05
1.23696e-12
-7.03429e-05
6.49275e-05
1.0474e-12
4.49316e-05
3.16741e-13
-7.27342e-05
-1.81704e-06
2.38818e-12
1.9743e-05
-6.27069e-06
2.43763e-12
4.85304e-05
-1.25457e-05
2.32764e-12
6.89834e-05
-1.99054e-05
1.94715e-12
8.26286e-05
-2.76654e-05
1.48837e-12
9.04645e-05
-3.51643e-05
1.39806e-12
9.30294e-05
-4.17333e-05
1.44563e-12
9.03873e-05
-4.66043e-05
1.21549e-12
8.20652e-05
-4.86948e-05
1.27811e-12
6.69918e-05
1.0545e-12
-4.63827e-05
4.26271e-05
9.12982e-08
-9.12302e-08
-7.6713e-11
-6.02096e-07
6.94982e-07
-1.59275e-09
-2.03783e-06
1.43812e-06
-2.38103e-09
-3.98276e-06
1.94797e-06
-3.0439e-09
-6.2251e-06
2.24577e-06
-3.42125e-09
-8.59267e-06
2.37113e-06
-3.56548e-09
-1.09439e-05
2.35476e-06
-3.55823e-09
-1.31556e-05
2.21509e-06
-3.39949e-09
-1.51198e-05
1.96736e-06
-3.06739e-09
1.63713e-06
-2.54327e-09
-1.67544e-05
-7.20466e-07
6.27911e-07
1.32078e-09
-3.1199e-06
3.09474e-06
-3.23374e-10
-6.95677e-06
5.27352e-06
1.47232e-09
-1.18409e-05
6.82985e-06
2.23664e-09
-1.73736e-05
7.77586e-06
2.60217e-09
-2.31877e-05
8.1824e-06
2.83315e-09
-2.8951e-05
8.11529e-06
2.83038e-09
-3.43629e-05
7.62434e-06
2.62851e-09
-3.91625e-05
6.76468e-06
2.30685e-09
5.63059e-06
1.99106e-09
-4.3158e-05
-1.56669e-06
2.1923e-06
2.30241e-09
-5.57316e-06
7.10326e-06
-2.04972e-09
-1.14641e-05
1.11645e-05
-7.8714e-11
-1.86989e-05
1.40645e-05
9.07729e-11
-2.67624e-05
1.58395e-05
-1.11436e-10
-3.51711e-05
1.65912e-05
-1.09882e-10
-4.34673e-05
1.64115e-05
-1.20226e-10
-5.12196e-05
1.53768e-05
-1.68159e-10
-5.80439e-05
1.35892e-05
-2.20791e-10
1.124e-05
-1.25873e-10
-6.36531e-05
-2.22896e-06
4.41798e-06
3.27219e-09
-7.54625e-06
1.24234e-05
-2.82402e-09
-1.50821e-05
1.87004e-05
-1.24508e-12
-2.41425e-05
2.31247e-05
2.16474e-10
-3.41225e-05
2.58197e-05
-1.2623e-10
-4.44618e-05
2.69307e-05
-1.72457e-10
-5.46152e-05
2.65652e-05
-2.11187e-10
-6.40456e-05
2.48075e-05
-3.00414e-10
-7.22493e-05
2.17933e-05
-4.6423e-10
1.78195e-05
-3.96582e-10
-7.88284e-05
-2.67623e-06
7.0903e-06
3.91538e-09
-8.91502e-06
1.86654e-05
-3.2626e-09
-1.76123e-05
2.73974e-05
3.51578e-10
-2.79525e-05
3.34642e-05
7.5887e-10
-3.9266e-05
3.71328e-05
4.19165e-10
-5.09436e-05
3.86079e-05
3.83629e-10
-6.23779e-05
3.79991e-05
3.25583e-10
-7.29373e-05
3.53668e-05
1.54906e-10
-8.19828e-05
3.08391e-05
-3.40331e-10
2.479e-05
-5.69228e-10
-8.89528e-05
-2.90266e-06
9.98876e-06
4.20483e-09
-9.62868e-06
2.5395e-05
-3.57288e-09
-1.89502e-05
3.67184e-05
4.4852e-10
-2.99837e-05
4.44967e-05
9.51053e-10
-4.20276e-05
4.91761e-05
6.20787e-10
-5.44522e-05
5.10319e-05
6.04303e-10
-6.66144e-05
5.01607e-05
5.79138e-10
-7.78019e-05
4.65539e-05
4.43781e-10
-8.72169e-05
4.02546e-05
-5.49555e-10
3.16068e-05
-1.49671e-09
-9.40322e-05
-2.91072e-06
1.28953e-05
4.18394e-09
-9.67255e-06
3.21605e-05
-3.63367e-09
-1.90461e-05
4.60915e-05
4.73231e-10
-3.01391e-05
5.55887e-05
1.03392e-09
-4.22525e-05
6.12887e-05
7.58123e-10
-5.47666e-05
6.35452e-05
7.83538e-10
-6.70386e-05
6.24318e-05
8.68126e-10
-7.83105e-05
5.78247e-05
1.0539e-09
-8.76239e-05
4.95687e-05
-7.1253e-10
3.77253e-05
-3.71725e-09
-9.37387e-05
-2.71085e-06
1.56023e-05
3.85171e-09
-9.06581e-06
3.85189e-05
-3.46411e-09
-1.79104e-05
5.49357e-05
4.33241e-10
-2.83911e-05
6.60684e-05
1.01068e-09
-3.9834e-05
7.27308e-05
8.11984e-10
-5.165e-05
7.53603e-05
8.30527e-10
-6.32354e-05
7.40164e-05
9.36323e-10
-7.38508e-05
6.84384e-05
1.68042e-09
-8.2446e-05
5.8166e-05
-2.00903e-09
4.2511e-05
-1.30613e-08
-8.72186e-05
-2.32924e-06
1.79283e-05
3.22768e-09
-7.88119e-06
4.4074e-05
-3.12604e-09
-1.56543e-05
6.27085e-05
3.04248e-10
-2.48561e-05
7.52694e-05
8.63871e-10
-3.48312e-05
8.27051e-05
8.12029e-10
-4.50033e-05
8.55315e-05
9.3105e-10
-5.48086e-05
8.38204e-05
1.30324e-09
-6.35802e-05
7.72057e-05
4.38388e-09
-7.03429e-05
6.49275e-05
1.14992e-09
4.49316e-05
-2.93214e-08
-7.27342e-05
-1.81704e-06
2.37275e-09
1.9743e-05
-6.27069e-06
-2.70339e-09
4.85304e-05
-1.25457e-05
4.63571e-11
6.89834e-05
-1.99054e-05
4.98568e-10
8.26286e-05
-2.76654e-05
5.75002e-10
9.04645e-05
-3.51643e-05
9.44672e-10
9.30294e-05
-4.17333e-05
2.09344e-09
9.03873e-05
-4.66043e-05
1.1457e-08
8.20652e-05
-4.86948e-05
2.61944e-08
6.69918e-05
-7.66655e-09
-4.63827e-05
4.26271e-05
8.92556e-08
-8.9332e-08
-6.0172e-07
6.89377e-07
-2.03719e-06
1.43309e-06
-3.98265e-06
1.94241e-06
-6.22523e-06
2.23916e-06
-8.5928e-06
2.364e-06
-1.09439e-05
2.34755e-06
-1.31555e-05
2.20815e-06
-1.51195e-05
1.96102e-06
1.63186e-06
-1.67539e-05
-7.15414e-07
6.27409e-07
-3.11494e-06
3.08858e-06
-6.95245e-06
5.27207e-06
-1.18379e-05
6.83013e-06
-1.73722e-05
7.77605e-06
-2.31877e-05
8.18233e-06
-2.89522e-05
8.11486e-06
-3.43649e-05
7.62343e-06
-3.91648e-05
6.76326e-06
5.62931e-06
-4.31602e-05
-1.56159e-06
2.1913e-06
-5.57242e-06
7.09736e-06
-1.14634e-05
1.1163e-05
-1.8698e-05
1.40648e-05
-2.6762e-05
1.58399e-05
-3.51712e-05
1.65914e-05
-4.34677e-05
1.64113e-05
-5.12203e-05
1.53758e-05
-5.80444e-05
1.35871e-05
1.12381e-05
-6.36533e-05
-2.22283e-06
4.41741e-06
-7.5472e-06
1.24189e-05
-1.50831e-05
1.86989e-05
-2.41428e-05
2.31247e-05
-3.41227e-05
2.58197e-05
-4.4462e-05
2.69306e-05
-5.46156e-05
2.65646e-05
-6.4046e-05
2.48059e-05
-7.22491e-05
2.17897e-05
1.7816e-05
-7.88273e-05
-2.66874e-06
7.09007e-06
-8.91616e-06
1.86631e-05
-1.76137e-05
2.73968e-05
-2.79528e-05
3.34646e-05
-3.92661e-05
3.71334e-05
-5.09437e-05
3.86085e-05
-6.23782e-05
3.79994e-05
-7.2938e-05
3.53659e-05
-8.19827e-05
3.08341e-05
2.47835e-05
-8.89507e-05
-2.89447e-06
9.98874e-06
-9.62983e-06
2.53949e-05
-1.89515e-05
3.67189e-05
-2.99838e-05
4.44978e-05
-4.20273e-05
4.91776e-05
-5.44517e-05
5.10336e-05
-6.66141e-05
5.01624e-05
-7.78027e-05
4.65548e-05
-8.72169e-05
4.02478e-05
3.15935e-05
-9.40284e-05
-2.9025e-06
1.28954e-05
-9.67361e-06
3.21623e-05
-1.90471e-05
4.60929e-05
-3.01386e-05
5.55903e-05
-4.22512e-05
6.12909e-05
-5.47648e-05
6.35479e-05
-6.7037e-05
6.24355e-05
-7.83109e-05
5.78298e-05
-8.76251e-05
4.95612e-05
3.76957e-05
-9.37311e-05
-2.70323e-06
1.56025e-05
-9.06671e-06
3.85223e-05
-1.79111e-05
5.49377e-05
-2.839e-05
6.60703e-05
-3.98316e-05
7.27334e-05
-5.16466e-05
7.53638e-05
-6.3232e-05
7.40218e-05
-7.38515e-05
6.84509e-05
-8.24578e-05
5.81655e-05
4.24351e-05
-8.72102e-05
-2.3228e-06
1.79285e-05
-7.88199e-06
4.40784e-05
-1.56546e-05
6.27106e-05
-2.48543e-05
7.52708e-05
-3.48269e-05
8.27068e-05
-4.49957e-05
8.55335e-05
-5.47959e-05
8.38233e-05
-6.35634e-05
7.72228e-05
-7.03658e-05
6.49691e-05
4.48228e-05
-7.27828e-05
-1.81229e-06
1.97432e-05
-6.27177e-06
4.85352e-05
-1.25466e-05
6.89854e-05
-1.99043e-05
8.2629e-05
-2.76609e-05
9.04639e-05
-3.51532e-05
9.30268e-05
-4.17066e-05
9.03789e-05
-4.65239e-05
8.20515e-05
-4.85677e-05
6.70391e-05
-4.65911e-05
4.28385e-05
-1.80224e-05
1.26656e-06
1.89306e-09
-1.89457e-05
9.22013e-07
1.30493e-09
-1.95823e-05
6.35755e-07
8.47793e-10
-2.00032e-05
4.20366e-07
5.2186e-10
-2.02751e-05
2.71593e-07
3.08801e-10
-2.04528e-05
1.77517e-07
1.81985e-10
-2.0578e-05
1.25102e-07
1.15865e-10
-2.06816e-05
1.03461e-07
9.15268e-11
-2.07863e-05
1.04596e-07
9.71073e-11
-2.09091e-05
1.22707e-07
1.23885e-10
-2.10621e-05
1.52806e-07
1.67287e-10
-2.12513e-05
1.88976e-07
2.22653e-10
-2.1474e-05
2.22452e-07
2.82259e-10
-2.17141e-05
2.39728e-07
3.33298e-10
-2.19356e-05
2.21171e-07
3.55318e-10
-2.20772e-05
1.41214e-07
3.19589e-10
-2.20465e-05
-3.08796e-08
1.78818e-10
-2.17287e-05
-3.1764e-07
-1.26861e-10
-2.09966e-05
-7.31386e-07
-6.50863e-10
-1.25038e-06
-1.42634e-09
-1.97448e-05
-4.62726e-05
4.38064e-06
-1.75726e-09
-4.85569e-05
3.20781e-06
-1.45967e-09
-5.01534e-05
2.23331e-06
-1.14299e-09
-5.12287e-05
1.4966e-06
-8.59744e-10
-5.19391e-05
9.82562e-07
-6.28966e-10
-5.24127e-05
6.51568e-07
-4.5816e-10
-5.27475e-05
4.60309e-07
-3.4535e-10
-5.30157e-05
3.71936e-07
-2.83075e-10
-5.32692e-05
3.58346e-07
-2.608e-10
-5.35443e-05
3.98066e-07
-2.67272e-10
-5.38632e-05
4.71956e-07
-2.89644e-10
-5.42318e-05
5.57896e-07
-3.12197e-10
-5.46341e-05
6.2507e-07
-3.13363e-10
-5.50227e-05
6.28601e-07
-2.63885e-10
-5.53074e-05
5.05992e-07
-1.29516e-10
-5.53443e-05
1.77987e-07
1.20931e-10
-5.49335e-05
-4.42136e-07
5.11989e-10
-5.38262e-05
-1.42598e-06
1.04609e-09
-5.17637e-05
-2.79556e-06
1.68238e-09
-4.47745e-06
2.27154e-09
-4.85389e-05
-6.79389e-05
8.66635e-06
-2.31332e-10
-7.10172e-05
6.2865e-06
-3.85698e-10
-7.3126e-05
4.34257e-06
-4.12318e-10
-7.45235e-05
2.89442e-06
-3.84893e-10
-7.54349e-05
1.89438e-06
-3.2433e-10
-7.60362e-05
1.25306e-06
-2.55478e-10
-7.64556e-05
8.79873e-07
-1.93863e-10
-7.67839e-05
7.00384e-07
-1.45663e-10
-7.70841e-05
6.58729e-07
-1.11104e-10
-7.73984e-05
7.12448e-07
-8.73034e-11
-7.77504e-05
8.23995e-07
-7.00159e-11
-7.81432e-05
9.50792e-07
-5.34143e-11
-7.85529e-05
1.03477e-06
-3.13801e-11
-7.89168e-05
9.92498e-07
3.34148e-12
-7.91192e-05
7.08283e-07
5.97535e-11
-7.89759e-05
3.45764e-08
1.42136e-10
-7.82266e-05
-1.19161e-06
2.40959e-10
-7.65418e-05
-3.11122e-06
3.62991e-10
-7.35633e-05
-5.77455e-06
4.81564e-10
-9.05077e-06
4.01243e-10
-6.89903e-05
-8.3639e-05
1.34783e-05
-3.36907e-10
-8.69173e-05
9.56528e-06
-5.40259e-10
-8.90455e-05
6.47137e-06
-5.2679e-10
-9.03865e-05
4.23582e-06
-4.6404e-10
-9.12226e-05
2.73085e-06
-3.66556e-10
-9.17528e-05
1.78352e-06
-2.69377e-10
-9.21099e-05
1.23723e-06
-1.90245e-10
-9.23811e-05
9.71676e-07
-1.30944e-10
-9.2623e-05
9.0075e-07
-8.9094e-11
-9.28719e-05
9.61406e-07
-6.06549e-11
-9.31475e-05
1.09963e-06
-4.15036e-11
-9.34521e-05
1.25541e-06
-2.76189e-11
-9.37645e-05
1.34715e-06
-1.50687e-11
-9.40283e-05
1.25635e-06
1.10018e-12
-9.4135e-05
8.14976e-07
3.05887e-11
-9.39018e-05
-1.98714e-07
8.36213e-11
-9.30497e-05
-2.04389e-06
1.60098e-10
-9.11944e-05
-4.96685e-06
2.8091e-10
-8.78714e-05
-9.09799e-06
4.90676e-10
-1.42883e-05
4.21071e-10
-8.26343e-05
-9.36299e-05
1.81582e-05
-9.21917e-10
-9.64815e-05
1.24179e-05
-1.01645e-09
-9.81194e-05
8.11008e-06
-8.03496e-10
-9.90282e-05
5.14529e-06
-6.22862e-10
-9.95274e-05
3.23042e-06
-4.34963e-10
-9.98075e-05
2.06394e-06
-2.82993e-10
-9.99766e-05
1.40652e-06
-1.79805e-10
-0.000100095
1.0902e-06
-1.13543e-10
-0.000100197
1.00295e-06
-7.32671e-11
-0.000100303
1.06774e-06
-5.15234e-11
-0.000100426
1.22196e-06
-4.20456e-11
-0.000100568
1.39772e-06
-4.06888e-11
-0.000100723
1.50188e-06
-4.44991e-11
-0.000100861
1.3949e-06
-4.72734e-11
-0.000100916
8.69666e-07
-3.18963e-11
-0.00010075
-3.6475e-07
2.42371e-11
-0.000100114
-2.67962e-06
1.12855e-10
-9.86005e-05
-6.48087e-06
2.96447e-10
-9.56177e-05
-1.20817e-05
8.44935e-10
-1.94386e-05
1.14398e-09
-9.04685e-05
-9.78378e-05
2.19697e-05
-2.02644e-09
-9.95766e-05
1.41583e-05
-1.67401e-09
-0.00010022
8.75407e-06
-1.01089e-09
-0.00010037
5.29635e-06
-6.71848e-10
-0.000100335
3.19589e-06
-3.93234e-10
-0.000100249
1.97789e-06
-2.05544e-10
-0.000100159
1.31692e-06
-1.01277e-10
-0.000100077
1.00829e-06
-4.68104e-11
-0.000100002
9.27407e-07
-2.03282e-11
-9.99293e-05
9.95558e-07
-9.74796e-12
-9.98608e-05
1.15343e-06
-9.47612e-12
-9.98019e-05
1.33883e-06
-1.75785e-11
-9.97646e-05
1.46461e-06
-3.32584e-11
-9.97631e-05
1.39345e-06
-5.39317e-11
-9.98005e-05
9.0713e-07
-5.88329e-11
-9.98356e-05
-3.29619e-07
-1.09534e-11
-9.97188e-05
-2.79653e-06
3.29259e-11
-9.90849e-05
-7.11489e-06
2.05088e-10
-9.72239e-05
-1.39441e-05
1.42177e-09
-2.36357e-05
2.84916e-09
-9.30297e-05
-9.57433e-05
2.39873e-05
-5.45941e-09
-9.56113e-05
1.40298e-05
-3.48518e-09
-9.48253e-05
7.9697e-06
-1.55103e-09
-9.4021e-05
4.49277e-06
-8.06168e-10
-9.33851e-05
2.56041e-06
-3.41041e-10
-9.29243e-05
1.51712e-06
-1.0349e-10
-9.25895e-05
9.82188e-07
-1.19904e-11
-9.23269e-05
7.45635e-07
1.80649e-11
-9.20929e-05
6.93338e-07
2.27784e-11
-9.1858e-05
7.60649e-07
1.58399e-11
-9.16082e-05
9.03702e-07
1.71487e-12
-9.1348e-05
1.07866e-06
-1.90509e-11
-9.11054e-05
1.22202e-06
-4.74051e-11
-9.09379e-05
1.22607e-06
-8.44106e-11
-9.09339e-05
9.03169e-07
-9.87245e-11
-9.11913e-05
-7.2197e-08
1.07302e-11
-9.17535e-05
-2.23453e-06
1.42215e-10
-9.2442e-05
-6.42686e-06
4.87527e-10
-9.2546e-05
-1.38433e-05
3.34513e-09
-2.58106e-05
7.80641e-09
-9.0379e-05
-8.60864e-05
2.28728e-05
-9.33723e-09
-8.33456e-05
1.12926e-05
-3.63977e-09
-8.09614e-05
5.58619e-06
-6.82524e-10
-7.92892e-05
2.8208e-06
-2.777e-10
-7.82045e-05
1.47575e-06
2.62337e-11
-7.75111e-05
8.23549e-07
1.35909e-10
-7.70463e-05
5.17274e-07
1.27005e-10
-7.66953e-05
3.94558e-07
1.02984e-10
-7.63813e-05
3.79264e-07
8.47211e-11
-7.60549e-05
4.34169e-07
7.22326e-11
-7.5689e-05
5.37675e-07
6.20423e-11
-7.52802e-05
6.69879e-07
4.86429e-11
-7.48585e-05
8.00225e-07
2.37439e-11
-7.45031e-05
8.70703e-07
-3.41097e-11
-7.43659e-05
7.66108e-07
-1.22394e-10
-7.46917e-05
2.53663e-07
-7.48924e-11
-7.57873e-05
-1.13899e-06
7.37633e-11
-7.79013e-05
-4.31241e-06
-3.83267e-10
-8.07173e-05
-1.10304e-05
3.01966e-09
-2.44927e-05
1.26033e-08
-8.20478e-05
-6.61389e-05
1.62407e-05
-1.1773e-08
-6.0587e-05
5.7356e-06
5.12092e-09
-5.72035e-05
2.19714e-06
5.59274e-09
-5.52885e-05
9.03454e-07
2.29498e-09
-5.42155e-05
4.01638e-07
1.15181e-09
-5.35947e-05
2.02047e-07
6.77743e-10
-5.32019e-05
1.24083e-07
4.02343e-10
-5.29083e-05
1.00689e-07
2.86728e-10
-5.26365e-05
1.07179e-07
2.66102e-10
-5.23371e-05
1.3446e-07
2.96855e-10
-5.19788e-05
1.79026e-07
3.57752e-10
-5.15478e-05
2.38504e-07
4.31317e-10
-5.10563e-05
3.0825e-07
4.8657e-10
-5.05621e-05
3.76049e-07
4.42233e-10
-5.02064e-05
4.1015e-07
1.86676e-10
-5.02849e-05
3.32442e-07
-2.38821e-10
-5.12978e-05
-1.2458e-07
-1.53398e-09
-5.41161e-05
-1.48733e-06
-6.78651e-09
-5.96779e-05
-5.45973e-06
-8.83281e-09
-1.71537e-05
1.41634e-08
-6.70311e-05
-3.02868e-05
-6.36512e-08
-2.45411e-05
-1.00723e-08
-2.23435e-05
-5.34647e-10
-2.14384e-05
-1.63732e-09
-2.10357e-05
-1.04575e-09
-2.08332e-05
-4.65988e-10
-2.07089e-05
-2.49739e-10
-2.0608e-05
-1.66958e-10
-2.05007e-05
-1.39834e-10
-2.03661e-05
-1.49208e-10
-2.01869e-05
-1.83181e-10
-1.99481e-05
-2.3086e-10
-1.96396e-05
-2.76835e-10
-1.92633e-05
-2.93042e-10
-1.88529e-05
-1.71644e-10
-1.85209e-05
3.77886e-10
-1.86463e-05
8.1727e-10
-2.01315e-05
-2.08479e-09
-2.55962e-05
4.94239e-09
7.78854e-08
-4.28278e-05
-1.80229e-05
1.27032e-06
1.52886e-12
-1.89461e-05
9.24523e-07
1.60679e-12
-1.95826e-05
6.37352e-07
1.42319e-12
-2.00034e-05
4.21323e-07
1.04459e-12
-2.02752e-05
2.72145e-07
8.46852e-13
-2.04529e-05
1.77839e-07
3.70506e-13
-2.05781e-05
1.25317e-07
4.88797e-13
-2.06817e-05
1.03649e-07
5.42996e-13
-2.07864e-05
1.04812e-07
5.28605e-13
-2.09092e-05
1.22989e-07
4.22409e-13
-2.10623e-05
1.53181e-07
3.66702e-13
-2.12515e-05
1.89457e-07
1.68415e-13
-2.14742e-05
2.23032e-07
-1.57905e-13
-2.17143e-05
2.40374e-07
-3.67069e-13
-2.19357e-05
2.21805e-07
-4.30706e-13
-2.20771e-05
1.41664e-07
-6.97481e-13
-2.20463e-05
-3.06241e-08
-8.45156e-13
-2.17284e-05
-3.18044e-07
-8.07572e-13
-2.09963e-05
-7.3268e-07
-9.09204e-13
-1.25312e-06
-1.29479e-12
-1.97446e-05
-4.62702e-05
4.38073e-06
1.95479e-12
-4.85545e-05
3.2074e-06
2.01861e-12
-5.01512e-05
2.23287e-06
1.66099e-12
-5.12269e-05
1.49623e-06
8.88009e-13
-5.19377e-05
9.82302e-07
7.52954e-13
-5.24118e-05
6.51406e-07
7.02146e-13
-5.2747e-05
4.60214e-07
7.9576e-13
-5.30155e-05
3.71874e-07
5.58194e-13
-5.32692e-05
3.58287e-07
4.52724e-13
-5.35445e-05
3.97981e-07
3.76828e-13
-5.38634e-05
4.71815e-07
2.75407e-13
-5.4232e-05
5.57673e-07
-2.23577e-14
-5.4634e-05
6.24747e-07
-8.37437e-14
-5.50221e-05
6.28185e-07
-5.50547e-14
-5.53059e-05
5.05544e-07
-2.65346e-13
-5.53418e-05
1.77665e-07
-4.85109e-13
-5.49298e-05
-4.42091e-07
-5.55947e-13
-5.38216e-05
-1.42526e-06
-7.57946e-13
-5.17586e-05
-2.79391e-06
-1.24289e-12
-4.47545e-06
-1.79198e-12
-4.8534e-05
-6.7938e-05
8.66536e-06
2.07718e-12
-7.10157e-05
6.28473e-06
1.94787e-12
-7.31244e-05
4.34109e-06
1.5803e-12
-7.45219e-05
2.89336e-06
1.09375e-12
-7.54336e-05
1.89371e-06
9.2492e-13
-7.60352e-05
1.25269e-06
8.21034e-13
-7.64548e-05
8.79693e-07
5.98588e-13
-7.67834e-05
7.00294e-07
4.51259e-13
-7.70839e-05
6.58657e-07
4.90458e-13
-7.73983e-05
7.12336e-07
1.66358e-13
-7.77504e-05
8.2379e-07
-2.12531e-13
-7.81432e-05
9.50443e-07
-2.60819e-13
-7.85527e-05
1.03424e-06
-7.59246e-14
-7.89163e-05
9.91782e-07
-1.16733e-14
-7.91182e-05
7.07462e-07
-1.0032e-13
-7.89743e-05
3.39417e-08
-3.35631e-13
-7.82243e-05
-1.19182e-06
-7.58185e-13
-7.6539e-05
-3.11028e-06
-1.2965e-12
-7.35606e-05
-5.77181e-06
-1.69031e-12
-9.04739e-06
-2.09969e-12
-6.89882e-05
-8.36386e-05
1.34752e-05
1.99621e-12
-8.69157e-05
9.56128e-06
1.80821e-12
-8.90436e-05
6.46848e-06
1.53953e-12
-9.03846e-05
4.23393e-06
1.22404e-12
-9.1221e-05
2.72975e-06
1.04184e-12
-9.17516e-05
1.78297e-06
6.32414e-13
-9.21091e-05
1.23699e-06
3.06028e-13
-9.23805e-05
9.71588e-07
2.13254e-13
-9.26226e-05
9.00704e-07
3.06973e-13
-9.28717e-05
9.61323e-07
1.79383e-13
-9.31474e-05
1.09945e-06
8.31009e-14
-9.3452e-05
1.25505e-06
1.46878e-13
-9.37643e-05
1.34655e-06
1.11182e-13
-9.4028e-05
1.25549e-06
-1.13306e-14
-9.41345e-05
8.13928e-07
-2.408e-13
-9.39008e-05
-1.99665e-07
-6.61829e-13
-9.3048e-05
-2.04441e-06
-1.24458e-12
-9.11922e-05
-4.96584e-06
-1.48881e-12
-8.78697e-05
-9.09383e-06
-1.63255e-12
-1.42829e-05
-2.09246e-12
-8.26337e-05
-9.36289e-05
1.81504e-05
1.86157e-12
-9.64787e-05
1.24101e-05
1.23289e-12
-9.81165e-05
8.10545e-06
1.03767e-12
-9.90258e-05
5.14264e-06
1.41063e-12
-9.95256e-05
3.22907e-06
1.30265e-12
-9.98063e-05
2.06336e-06
6.30398e-13
-9.99758e-05
1.40632e-06
4.771e-13
-0.000100094
1.09016e-06
4.71165e-13
-0.000100197
1.00295e-06
1.99667e-13
-0.000100303
1.06769e-06
-2.69711e-14
-0.000100426
1.22179e-06
-1.57148e-13
-0.000100568
1.39735e-06
-2.75274e-13
-0.000100723
1.50122e-06
-3.35194e-13
-0.000100861
1.39389e-06
-2.60765e-13
-0.000100916
8.68353e-07
-2.56218e-13
-0.000100749
-3.66079e-07
-3.88115e-13
-0.000100113
-2.68071e-06
-5.13553e-13
-9.85981e-05
-6.48011e-06
-8.25418e-13
-9.56159e-05
-1.20752e-05
-1.48214e-12
-1.94287e-05
-2.03721e-12
-9.04689e-05
-9.78351e-05
2.19513e-05
1.2611e-12
-9.95715e-05
1.41448e-05
1.41143e-12
-0.000100215
8.74824e-06
8.90044e-13
-0.000100367
5.2937e-06
7.07815e-13
-0.000100333
3.19483e-06
5.37328e-13
-0.000100248
1.97762e-06
2.21047e-13
-0.000100158
1.31694e-06
1.56805e-14
-0.000100077
1.00838e-06
7.7792e-14
-0.000100001
9.27488e-07
1.2e-13
-9.99291e-05
9.95568e-07
-4.93583e-14
-9.98606e-05
1.15332e-06
-3.44498e-13
-9.98018e-05
1.33852e-06
-5.29633e-13
-9.97646e-05
1.46398e-06
-5.02817e-13
-9.97631e-05
1.39238e-06
-3.9579e-13
-9.98004e-05
9.0559e-07
-3.40427e-13
-9.98352e-05
-3.31296e-07
-2.57146e-13
-9.97173e-05
-2.79864e-06
-1.52044e-13
-9.90819e-05
-7.11533e-06
-5.43325e-13
-9.72213e-05
-1.39343e-05
-1.51751e-12
-2.36151e-05
-1.97504e-12
-9.30322e-05
-9.57367e-05
2.39438e-05
8.63453e-13
-9.56023e-05
1.40069e-05
1.00313e-12
-9.48195e-05
7.96395e-06
6.99952e-13
-9.4018e-05
4.4913e-06
6.36578e-13
-9.33837e-05
2.56027e-06
4.85086e-13
-9.29236e-05
1.51742e-06
4.63145e-14
-9.25892e-05
9.82494e-07
-2.66423e-13
-9.23267e-05
7.45853e-07
-3.31404e-13
-9.20926e-05
6.93463e-07
-2.30628e-13
-9.18577e-05
7.60677e-07
-1.46135e-13
-9.1608e-05
9.03604e-07
-2.15168e-13
-9.13479e-05
1.07838e-06
-4.21042e-13
-9.11054e-05
1.22142e-06
-6.21578e-13
-9.0938e-05
1.22498e-06
-6.38868e-13
-9.09339e-05
9.01346e-07
-4.54843e-13
-9.11911e-05
-7.40914e-08
-1.41309e-13
-9.17518e-05
-2.23781e-06
1.09533e-13
-9.24377e-05
-6.42895e-06
-1.17316e-13
-9.25417e-05
-1.38269e-05
-7.63083e-13
-2.57617e-05
-1.34708e-12
-9.03873e-05
-8.60738e-05
2.27896e-05
4.56145e-13
-8.33367e-05
1.12662e-05
6.368e-13
-8.09586e-05
5.58512e-06
7.22078e-13
-7.92891e-05
2.82149e-06
7.03056e-13
-7.82051e-05
1.47633e-06
2.30422e-13
-7.75116e-05
8.2404e-07
-3.48108e-13
-7.70465e-05
5.17582e-07
-4.93671e-13
-7.66953e-05
3.94726e-07
-2.18741e-13
-7.63811e-05
3.79348e-07
1.01619e-13
-7.60546e-05
4.34195e-07
1.74972e-13
-7.56885e-05
5.37641e-07
3.56458e-14
-7.52799e-05
6.69756e-07
-2.27159e-13
-7.48584e-05
7.99941e-07
-4.06358e-13
-7.45035e-05
8.70095e-07
-4.27424e-13
-7.43672e-05
7.64902e-07
-4.1917e-13
-7.46933e-05
2.51901e-07
-1.27922e-13
-7.57899e-05
-1.14108e-06
3.29199e-13
-7.79027e-05
-4.31658e-06
1.37683e-13
-8.07141e-05
-1.10125e-05
-3.61365e-13
-2.44018e-05
-6.80653e-13
-8.20614e-05
-6.61237e-05
1.61673e-05
2.65731e-13
-6.05946e-05
5.74223e-06
4.26448e-13
-5.72115e-05
2.2077e-06
4.57254e-13
-5.52942e-05
9.06473e-07
1.49271e-13
-5.42189e-05
4.02106e-07
-1.89999e-13
-5.35963e-05
2.02141e-07
-1.89309e-13
-5.32025e-05
1.24162e-07
1.45345e-13
-5.29083e-05
1.00819e-07
2.4205e-13
-5.26361e-05
1.07396e-07
-6.73476e-14
-5.23364e-05
1.34798e-07
-3.43528e-13
-5.19779e-05
1.79535e-07
-3.72686e-13
-5.1547e-05
2.39244e-07
-2.91094e-13
-5.10558e-05
3.09299e-07
-3.52972e-13
-5.05628e-05
3.77503e-07
-6.68104e-13
-5.02097e-05
4.11956e-07
-9.24816e-13
-5.02905e-05
3.32535e-07
-3.11626e-13
-5.13105e-05
-1.22688e-07
3.97655e-13
-5.41382e-05
-1.49561e-06
4.08343e-13
-5.96892e-05
-5.47027e-06
3.28428e-13
-1.70931e-05
-1.73082e-13
-6.69838e-05
-3.0279e-05
1.04387e-12
-2.45469e-05
5.75306e-13
-2.23397e-05
-4.12977e-14
-2.14349e-05
-5.13513e-13
-2.10338e-05
-1.71425e-13
-2.08322e-05
3.30921e-13
-2.07082e-05
4.1706e-13
-2.06076e-05
4.75573e-14
-2.05003e-05
-2.38461e-13
-2.03657e-05
-1.01322e-13
-2.01863e-05
2.13729e-13
-1.99473e-05
3.33355e-13
-1.96383e-05
2.40444e-14
-1.92611e-05
-5.72752e-13
-1.88493e-05
-8.45854e-13
-1.85164e-05
-1.67692e-13
-1.86383e-05
4.52708e-13
-2.0136e-05
2.27926e-13
-2.56013e-05
3.70551e-14
-5.03214e-13
-4.26165e-05
-1.80229e-05
1.27032e-06
-1.8909e-09
-1.89461e-05
9.24524e-07
-1.30302e-09
-1.95826e-05
6.37353e-07
-8.46119e-10
-2.00034e-05
4.21323e-07
-5.20634e-10
-2.02752e-05
2.72145e-07
-3.08113e-10
-2.04529e-05
1.77839e-07
-1.81143e-10
-2.05781e-05
1.25317e-07
-1.15071e-10
-2.06816e-05
1.03649e-07
-9.08274e-11
-2.07864e-05
1.04812e-07
-9.62832e-11
-2.09092e-05
1.22989e-07
-1.23076e-10
-2.10622e-05
1.53181e-07
-1.66506e-10
-2.12515e-05
1.89456e-07
-2.22322e-10
-2.14742e-05
2.23032e-07
-2.82601e-10
-2.17143e-05
2.40374e-07
-3.33994e-10
-2.19357e-05
2.21805e-07
-3.56307e-10
-2.20771e-05
1.41664e-07
-3.206e-10
-2.20463e-05
-3.06238e-08
-1.79885e-10
-2.17283e-05
-3.18044e-07
1.25379e-10
-2.09963e-05
-7.3268e-07
6.48879e-10
-1.25312e-06
1.42396e-09
-1.97446e-05
-4.62702e-05
4.38073e-06
1.75968e-09
-4.85545e-05
3.2074e-06
1.46193e-09
-5.01511e-05
2.23287e-06
1.14463e-09
-5.12269e-05
1.49623e-06
8.61183e-10
-5.19377e-05
9.82302e-07
6.30046e-10
-5.24117e-05
6.51406e-07
4.59005e-10
-5.2747e-05
4.60214e-07
3.46152e-10
-5.30155e-05