/*--------------------------------*- C++ -*----------------------------------*\
| =========                 |                                                 |
| \\      /  F ield         | OpenFOAM: The Open Source CFD Toolbox           |
|  \\    /   O peration     | Version:  2.4.0                                 |
|   \\  /    A nd           | Web:      www.OpenFOAM.org                      |
|    \\/     M anipulation  |                                                 |
\*---------------------------------------------------------------------------*/
FoamFile
{
    version     2.0;
    format      ascii;
    class       volVectorField;
    location    "1.2";
    object      U;
}
// * * * * * * * * * * * * * * * * * * * * * * * * * * * * * * * * * * * * * //

dimensions      [0 1 -1 0 0 0 0];

internalField   nonuniform List<vector> 
4800
(
(0.000247957 -0.000251006 2.5655e-08)
(-0.000106213 0.00019091 0.000196734)
(-0.00189883 0.000649825 0.000383995)
(-0.0046791 0.000950852 0.00050606)
(-0.00809243 0.0011171 0.000523787)
(-0.0118357 0.00118484 0.00041956)
(-0.0156588 0.00117858 0.000188638)
(-0.019351 0.0011103 -0.000167363)
(-0.0227258 0.000986517 -0.000641496)
(-0.0256253 0.000818397 -0.00122034)
(-0.000212773 0.000107332 -0.000196392)
(-0.00241009 0.00233896 3.62237e-06)
(-0.00756173 0.00443599 0.0001393)
(-0.0147126 0.00591398 0.000200758)
(-0.0231932 0.00679635 0.000172275)
(-0.0324074 0.00717589 3.96395e-05)
(-0.0417948 0.00713044 -0.000202503)
(-0.0508469 0.00671179 -0.000555031)
(-0.0591065 0.00596811 -0.00101497)
(-0.0661954 0.00497927 -0.00157429)
(-0.000739131 0.00200259 -0.000386862)
(-0.00479079 0.00758156 -0.000126722)
(-0.0129612 0.0124019 9.18515e-06)
(-0.0237073 0.0158644 5.17003e-05)
(-0.0361404 0.0179843 7.96183e-06)
(-0.0495045 0.0188967 -0.000130477)
(-0.0630471 0.0187301 -0.000367088)
(-0.0760509 0.0175884 -0.000703991)
(-0.0878488 0.0155968 -0.0011419)
(-0.0978741 0.0129745 -0.00167795)
(-0.00113848 0.0051028 -0.000498159)
(-0.00668841 0.0151963 -0.000164821)
(-0.0173176 0.0233523 -9.05703e-06)
(-0.0309013 0.0291542 3.46779e-05)
(-0.0463606 0.0327039 -8.16244e-06)
(-0.0628361 0.034194 -0.000141153)
(-0.0794499 0.0337878 -0.000366404)
(-0.0953301 0.0316227 -0.000688155)
(-0.109624 0.027897 -0.0011122)
(-0.121558 0.0230022 -0.00164273)
(-0.00139801 0.00909169 -0.000467694)
(-0.00798513 0.0246014 -7.18145e-05)
(-0.0203553 0.0365328 0.000104467)
(-0.0359386 0.0448882 0.000157657)
(-0.0535106 0.0499613 0.000125961)
(-0.0721466 0.0520281 8.53402e-06)
(-0.0908888 0.0512679 -0.000197494)
(-0.108746 0.0478109 -0.000500856)
(-0.124684 0.0418881 -0.000915576)
(-0.137653 0.0340556 -0.00145869)
(-0.00152351 0.013622 -0.000256814)
(-0.0086483 0.0351468 0.000185418)
(-0.0219496 0.0511593 0.000378052)
(-0.0386127 0.0622182 0.000446233)
(-0.0573345 0.0688854 0.000435283)
(-0.0771644 0.0715428 0.000344821)
(-0.0971101 0.0703617 0.000168517)
(-0.116103 0.0654033 -0.000110138)
(-0.132938 0.056839 -0.000518173)
(-0.146171 0.0453015 -0.00109836)
(-0.00152182 0.0183386 0.00015114)
(-0.00867629 0.0461141 0.000621929)
(-0.0220542 0.0663373 0.000824379)
(-0.0388103 0.0801696 0.000911529)
(-0.0576346 0.0884781 0.000930909)
(-0.0775913 0.0917646 0.00088094)
(-0.0977043 0.0901689 0.00074934)
(-0.116896 0.083603 0.000508435)
(-0.133864 0.0720197 0.000112957)
(-0.146636 0.0558685 -0.000532716)
(-0.00140178 0.0228963 0.00075403)
(-0.00809641 0.0567753 0.00123619)
(-0.0207014 0.0811303 0.00144125)
(-0.0365307 0.0976878 0.00155056)
(-0.0543214 0.107619 0.00161011)
(-0.0731739 0.111556 0.0016168)
(-0.0921656 0.109599 0.00155125)
(-0.110297 0.101443 0.00137268)
(-0.126378 0.0866116 0.00101639)
(-0.137865 0.064793 0.000283656)
(-0.00118007 0.0269771 0.00153202)
(-0.00698452 0.0664421 0.00201094)
(-0.0180452 0.0946172 0.00221169)
(-0.0319733 0.113679 0.00234508)
(-0.047565 0.125064 0.00245328)
(-0.0639257 0.129542 0.00253302)
(-0.0801524 0.127221 0.00255859)
(-0.0953385 0.11761 0.00247518)
(-0.10876 0.0997315 0.00220747)
(-0.117687 0.0717025 0.00137056)
(-0.000887616 0.0303221 0.00244942)
(-0.00548926 0.0745376 0.0029151)
(-0.01442 0.105985 0.00310519)
(-0.0256605 0.127106 0.00326203)
(-0.0380299 0.139499 0.0034236)
(-0.0505242 0.144048 0.00359136)
(-0.0620552 0.140911 0.00374231)
(-0.0714585 0.129531 0.00381903)
(-0.0784689 0.108704 0.00379377)
(-0.0820062 0.0754912 0.00309851)
(0.000252457 -0.00025519 3.07718e-08)
(-9.9739e-05 0.000185387 1.23146e-06)
(-0.00189541 0.000636787 1.85315e-06)
(-0.00467675 0.000932705 2.37299e-06)
(-0.00809117 0.00109627 2.66827e-06)
(-0.0118353 0.00116275 2.78162e-06)
(-0.0156591 0.00115656 2.77577e-06)
(-0.0193521 0.00108953 2.65198e-06)
(-0.0227279 0.000967984 2.39278e-06)
(-0.0256285 0.000802664 1.98421e-06)
(-0.000206193 0.000100606 -1.04177e-06)
(-0.00240759 0.00233706 2.46463e-07)
(-0.0075686 0.00442571 -1.14498e-06)
(-0.0147166 0.00589914 -1.73616e-06)
(-0.0231952 0.00678001 -2.01942e-06)
(-0.0324079 0.00715891 -2.19843e-06)
(-0.041794 0.00711367 -2.19659e-06)
(-0.0508451 0.00669614 -2.03982e-06)
(-0.0591047 0.00595432 -1.79024e-06)
(-0.0661944 0.00496741 -1.54512e-06)
(-0.000724645 0.0019977 -1.79627e-06)
(-0.00478061 0.00758753 1.59478e-06)
(-0.0129674 0.0124052 6.4176e-08)
(-0.0237091 0.0158679 -6.56739e-08)
(-0.0361403 0.0179895 9.2441e-08)
(-0.0495043 0.0189028 9.13734e-08)
(-0.0630464 0.0187366 9.91095e-08)
(-0.0760499 0.017595 1.35698e-07)
(-0.0878487 0.0156034 1.76016e-07)
(-0.097876 0.01298 1.01801e-07)
(-0.00111802 0.0050988 -2.54627e-06)
(-0.0066737 0.0151998 2.19994e-06)
(-0.0173255 0.0233518 5.58659e-09)
(-0.0309028 0.0291523 -1.62491e-07)
(-0.0463596 0.0327025 1.04399e-07)
(-0.0628353 0.034193 1.40492e-07)
(-0.0794487 0.0337872 1.69926e-07)
(-0.0953285 0.0316229 2.38593e-07)
(-0.109624 0.0278991 3.65583e-07)
(-0.121562 0.0230044 3.12637e-07)
(-0.0013739 0.00908932 -3.04439e-06)
(-0.00796865 0.0246033 2.54314e-06)
(-0.020366 0.0365312 -2.67717e-07)
(-0.035941 0.0448849 -5.83403e-07)
(-0.0535096 0.0499577 -3.19078e-07)
(-0.0721455 0.0520244 -2.91565e-07)
(-0.0908867 0.0512643 -2.47855e-07)
(-0.108743 0.0478084 -1.15649e-07)
(-0.124682 0.0418895 2.68991e-07)
(-0.13766 0.0340588 4.46606e-07)
(-0.00149751 0.0136215 -3.26922e-06)
(-0.00863109 0.0351478 2.7853e-06)
(-0.0219621 0.0511585 -3.42092e-07)
(-0.038616 0.0622163 -7.32451e-07)
(-0.0573338 0.0688829 -4.76175e-07)
(-0.0771635 0.0715398 -4.63908e-07)
(-0.0971076 0.0703582 -4.45593e-07)
(-0.116097 0.0654004 -3.41116e-07)
(-0.132933 0.0568432 4.31114e-07)
(-0.146184 0.0453121 1.16708e-06)
(-0.00149575 0.0183397 -3.25244e-06)
(-0.00865941 0.0461141 2.83312e-06)
(-0.0220675 0.0663372 -3.61273e-07)
(-0.0388144 0.0801689 -7.97265e-07)
(-0.0576345 0.0884767 -5.83217e-07)
(-0.0775911 0.0917624 -6.04102e-07)
(-0.0977022 0.0901654 -6.71037e-07)
(-0.116885 0.0835986 -8.1614e-07)
(-0.133849 0.0720292 5.57289e-07)
(-0.146663 0.0559028 2.89333e-06)
(-0.0013774 0.0228991 -2.99396e-06)
(-0.0080809 0.0567745 2.70072e-06)
(-0.0207145 0.0811309 -3.30431e-07)
(-0.0365353 0.0976885 -7.79992e-07)
(-0.0543221 0.107619 -6.26424e-07)
(-0.0731748 0.111554 -6.41702e-07)
(-0.092165 0.109593 -7.24929e-07)
(-0.110276 0.101428 -1.3042e-06)
(-0.126331 0.0866067 1.56477e-06)
(-0.137909 0.0648471 1.01602e-05)
(-0.00115886 0.0269813 -2.50836e-06)
(-0.00697121 0.066441 2.43703e-06)
(-0.0180572 0.094619 -2.31174e-07)
(-0.0319782 0.113683 -6.67028e-07)
(-0.0475672 0.125067 -6.27643e-07)
(-0.0639303 0.129544 -7.21101e-07)
(-0.0801628 0.127217 -1.0113e-06)
(-0.0953234 0.117578 -3.40745e-06)
(-0.108665 0.0996607 -8.92426e-07)
(-0.117732 0.071671 2.2807e-05)
(-0.000870539 0.0303272 -1.84376e-06)
(-0.00547843 0.0745365 2.10724e-06)
(-0.0144294 0.105989 -3.18446e-08)
(-0.0256642 0.127113 -3.84212e-07)
(-0.0380318 0.13951 -4.44507e-07)
(-0.0505315 0.144068 -7.32424e-07)
(-0.0620864 0.140949 -1.62613e-06)
(-0.0714972 0.129588 -8.90895e-06)
(-0.0783911 0.108761 -2.03715e-05)
(-0.08208 0.0755957 5.96471e-06)
(0.00025246 -0.000255188 -6.66055e-08)
(-9.97368e-05 0.000185386 -1.24409e-06)
(-0.00189541 0.000636786 -1.85614e-06)
(-0.00467675 0.000932704 -2.37122e-06)
(-0.00809116 0.00109627 -2.66399e-06)
(-0.0118353 0.00116276 -2.77596e-06)
(-0.0156591 0.00115656 -2.76986e-06)
(-0.0193521 0.00108953 -2.64652e-06)
(-0.0227279 0.000967985 -2.38793e-06)
(-0.0256284 0.000802665 -1.97992e-06)
(-0.000206193 0.000100609 1.02431e-06)
(-0.00240759 0.00233705 -2.53639e-07)
(-0.0075686 0.00442571 1.1448e-06)
(-0.0147166 0.00589914 1.74041e-06)
(-0.0231952 0.00678001 2.02547e-06)
(-0.0324079 0.00715891 2.20546e-06)
(-0.041794 0.00711367 2.2035e-06)
(-0.0508451 0.00669614 2.04624e-06)
(-0.0591047 0.00595432 1.7958e-06)
(-0.0661943 0.00496741 1.55005e-06)
(-0.000724645 0.0019977 1.79297e-06)
(-0.00478061 0.00758753 -1.59395e-06)
(-0.0129674 0.0124052 -6.02193e-08)
(-0.0237091 0.0158679 7.25443e-08)
(-0.0361403 0.0179895 -8.45898e-08)
(-0.0495043 0.0189028 -8.30623e-08)
(-0.0630464 0.0187366 -9.1404e-08)
(-0.0760499 0.017595 -1.28827e-07)
(-0.0878487 0.0156034 -1.70017e-07)
(-0.097876 0.01298 -9.63144e-08)
(-0.00111802 0.0050988 2.55056e-06)
(-0.0066737 0.0151998 -2.19469e-06)
(-0.0173255 0.0233518 7.2176e-10)
(-0.0309028 0.0291523 1.70635e-07)
(-0.0463596 0.0327025 -9.5697e-08)
(-0.0628353 0.034193 -1.31585e-07)
(-0.0794487 0.0337872 -1.62266e-07)
(-0.0953285 0.0316229 -2.31767e-07)
(-0.109624 0.0278991 -3.59239e-07)
(-0.121562 0.0230044 -3.06711e-07)
(-0.0013739 0.00908932 3.05214e-06)
(-0.00796864 0.0246033 -2.53519e-06)
(-0.020366 0.0365312 2.75953e-07)
(-0.035941 0.0448849 5.92997e-07)
(-0.0535096 0.0499577 3.2865e-07)
(-0.0721455 0.0520244 3.00849e-07)
(-0.0908867 0.0512643 2.5574e-07)
(-0.108743 0.0478084 1.22263e-07)
(-0.124682 0.0418895 -2.63195e-07)
(-0.13766 0.0340588 -4.40951e-07)
(-0.0014975 0.0136215 3.2781e-06)
(-0.00863108 0.0351478 -2.77619e-06)
(-0.0219621 0.0511585 3.51377e-07)
(-0.038616 0.0622163 7.4256e-07)
(-0.0573338 0.0688829 4.85814e-07)
(-0.0771635 0.0715398 4.7241e-07)
(-0.0971075 0.0703582 4.52202e-07)
(-0.116097 0.0654003 3.46827e-07)
(-0.132933 0.0568431 -4.25796e-07)
(-0.146184 0.0453121 -1.16297e-06)
(-0.00149575 0.0183397 3.26137e-06)
(-0.0086594 0.0461141 -2.8237e-06)
(-0.0220675 0.0663372 3.7102e-07)
(-0.0388143 0.0801689 8.07147e-07)
(-0.0576345 0.0884766 5.91957e-07)
(-0.077591 0.0917624 6.11499e-07)
(-0.0977022 0.0901654 6.7685e-07)
(-0.116885 0.0835986 8.21335e-07)
(-0.133849 0.0720292 -5.52815e-07)
(-0.146663 0.0559028 -2.89044e-06)
(-0.0013774 0.0228991 3.00283e-06)
(-0.00808089 0.0567745 -2.69182e-06)
(-0.0207145 0.0811309 3.39519e-07)
(-0.0365353 0.0976885 7.88545e-07)
(-0.0543221 0.107619 6.3375e-07)
(-0.0731747 0.111554 6.47596e-07)
(-0.092165 0.109593 7.29311e-07)
(-0.110276 0.101428 1.30803e-06)
(-0.126331 0.0866067 -1.56161e-06)
(-0.137909 0.0648471 -1.01583e-05)
(-0.00115886 0.0269813 2.51633e-06)
(-0.0069712 0.066441 -2.42917e-06)
(-0.0180571 0.094619 2.38802e-07)
(-0.0319782 0.113683 6.73892e-07)
(-0.0475671 0.125066 6.33306e-07)
(-0.0639303 0.129544 7.25344e-07)
(-0.0801628 0.127217 1.01463e-06)
(-0.0953234 0.117578 3.41057e-06)
(-0.108665 0.0996607 8.95147e-07)
(-0.117732 0.0716709 -2.28054e-05)
(-0.000870538 0.0303271 1.85003e-06)
(-0.00547843 0.0745364 -2.10082e-06)
(-0.0144294 0.105989 3.78027e-08)
(-0.0256642 0.127113 3.89228e-07)
(-0.0380317 0.13951 4.48334e-07)
(-0.0505315 0.144068 7.3582e-07)
(-0.0620864 0.140949 1.62938e-06)
(-0.0714972 0.129588 8.91193e-06)
(-0.0783911 0.108761 2.03744e-05)
(-0.08208 0.0755957 -5.96213e-06)
(0.000247958 -0.000251007 1.20163e-08)
(-0.000106219 0.000190903 -0.000196721)
(-0.00189883 0.000649818 -0.000383992)
(-0.00467909 0.00095085 -0.000506062)
(-0.00809242 0.0011171 -0.000523792)
(-0.0118357 0.00118484 -0.000419566)
(-0.0156587 0.00117858 -0.000188644)
(-0.019351 0.0011103 0.000167357)
(-0.0227257 0.000986518 0.000641491)
(-0.0256253 0.000818397 0.00122033)
(-0.000212777 0.000107325 0.00019641)
(-0.0024101 0.00233894 -3.61478e-06)
(-0.00756173 0.00443598 -0.0001393)
(-0.0147125 0.00591397 -0.000200763)
(-0.0231932 0.00679635 -0.000172281)
(-0.0324073 0.00717589 -3.96469e-05)
(-0.0417948 0.00713044 0.000202496)
(-0.0508469 0.00671179 0.000555024)
(-0.0591064 0.00596811 0.00101496)
(-0.0661953 0.00497927 0.00157428)
(-0.000739134 0.00200259 0.000386866)
(-0.0047908 0.00758155 0.000126721)
(-0.0129612 0.0124019 -9.18933e-06)
(-0.0237072 0.0158644 -5.17076e-05)
(-0.0361404 0.0179843 -7.97013e-06)
(-0.0495045 0.0188967 0.000130468)
(-0.0630471 0.0187301 0.00036708)
(-0.0760508 0.0175884 0.000703984)
(-0.0878487 0.0155968 0.0011419)
(-0.097874 0.0129745 0.00167795)
(-0.00113848 0.0051028 0.000498154)
(-0.00668841 0.0151963 0.000164815)
(-0.0173176 0.0233522 9.05036e-06)
(-0.0309013 0.0291541 -3.46865e-05)
(-0.0463606 0.0327039 8.15324e-06)
(-0.0628361 0.034194 0.000141144)
(-0.0794498 0.0337878 0.000366396)
(-0.09533 0.0316226 0.000688147)
(-0.109624 0.027897 0.00111219)
(-0.121558 0.0230022 0.00164273)
(-0.00139801 0.00909169 0.000467685)
(-0.00798511 0.0246013 7.18061e-05)
(-0.0203553 0.0365327 -0.000104476)
(-0.0359386 0.0448881 -0.000157667)
(-0.0535106 0.0499613 -0.000125971)
(-0.0721465 0.0520281 -8.54384e-06)
(-0.0908887 0.0512678 0.000197486)
(-0.108746 0.0478109 0.000500849)
(-0.124684 0.041888 0.00091557)
(-0.137653 0.0340556 0.00145869)
(-0.0015235 0.013622 0.000256805)
(-0.00864828 0.0351468 -0.000185428)
(-0.0219496 0.0511593 -0.000378062)
(-0.0386127 0.0622182 -0.000446244)
(-0.0573344 0.0688854 -0.000435293)
(-0.0771644 0.0715427 -0.00034483)
(-0.09711 0.0703617 -0.000168524)
(-0.116103 0.0654033 0.000110132)
(-0.132938 0.056839 0.000518167)
(-0.146171 0.0453015 0.00109836)
(-0.00152181 0.0183386 -0.000151149)
(-0.00867627 0.046114 -0.000621938)
(-0.0220542 0.0663373 -0.000824389)
(-0.0388103 0.0801696 -0.000911539)
(-0.0576345 0.0884781 -0.000930918)
(-0.0775912 0.0917646 -0.000880948)
(-0.0977042 0.0901688 -0.000749346)
(-0.116896 0.083603 -0.00050844)
(-0.133864 0.0720197 -0.000112962)
(-0.146636 0.0558685 0.000532713)
(-0.00140178 0.0228963 -0.000754039)
(-0.00809639 0.0567752 -0.0012362)
(-0.0207013 0.0811302 -0.00144126)
(-0.0365307 0.0976877 -0.00155057)
(-0.0543213 0.107619 -0.00161012)
(-0.0731738 0.111555 -0.00161681)
(-0.0921656 0.109599 -0.00155125)
(-0.110297 0.101443 -0.00137268)
(-0.126378 0.0866115 -0.00101639)
(-0.137865 0.064793 -0.000283658)
(-0.00118007 0.0269771 -0.00153203)
(-0.0069845 0.066442 -0.00201095)
(-0.0180452 0.0946171 -0.00221169)
(-0.0319733 0.113679 -0.00234509)
(-0.047565 0.125064 -0.00245329)
(-0.0639257 0.129542 -0.00253303)
(-0.0801524 0.127221 -0.00255859)
(-0.0953385 0.11761 -0.00247519)
(-0.10876 0.0997315 -0.00220748)
(-0.117687 0.0717025 -0.00137057)
(-0.000887613 0.0303221 -0.00244943)
(-0.00548925 0.0745375 -0.00291511)
(-0.0144199 0.105985 -0.0031052)
(-0.0256605 0.127106 -0.00326204)
(-0.0380298 0.139499 -0.0034236)
(-0.0505242 0.144048 -0.00359136)
(-0.0620552 0.140911 -0.00374232)
(-0.0714585 0.129531 -0.00381904)
(-0.0784689 0.108704 -0.00379377)
(-0.0820062 0.0754912 -0.00309851)
(-0.0279497 0.000629366 -0.00188337)
(-0.0296883 0.00045078 -0.00260595)
(-0.0309128 0.000303509 -0.00336609)
(-0.0317342 0.000194369 -0.00414743)
(-0.0322668 0.000120769 -0.00493926)
(-0.0326093 7.59537e-05 -0.00573551)
(-0.0328387 5.27688e-05 -0.00653333)
(-0.0330123 4.5501e-05 -0.00733208)
(-0.033172 5.02625e-05 -0.00813261)
(-0.0333492 6.45706e-05 -0.00893704)
(-0.0335671 8.65283e-05 -0.00974871)
(-0.0338408 0.000113779 -0.0105723)
(-0.0341744 0.000142321 -0.0114138)
(-0.0345544 0.000165262 -0.0122806)
(-0.0349413 0.000171771 -0.0131803)
(-0.0352585 0.00014686 -0.0141199)
(-0.035383 7.27345e-05 -0.0151034)
(-0.0351455 -6.92978e-05 -0.0161272)
(-0.0343444 -0.000287073 -0.0171784)
(-0.0327811 -0.000571435 -0.0182297)
(-0.0718831 0.0038823 -0.00221847)
(-0.0761575 0.00284477 -0.00292767)
(-0.0791989 0.00197793 -0.00368377)
(-0.0812725 0.00132066 -0.00447206)
(-0.0826462 0.000862275 -0.00528147)
(-0.0835506 0.000568735 -0.0061044)
(-0.0841657 0.000401819 -0.00693616)
(-0.0846253 0.000328867 -0.00777435)
(-0.0850265 0.000325235 -0.00861836)
(-0.0854388 0.000372493 -0.00946907)
(-0.085909 0.000454472 -0.0103287)
(-0.086461 0.000552213 -0.0112006)
(-0.0870898 0.000638441 -0.0120894)
(-0.0877484 0.000672251 -0.0130002)
(-0.0883313 0.00059542 -0.0139382)
(-0.088654 0.000333028 -0.0149076)
(-0.0884406 -0.000197894 -0.0159092)
(-0.0873239 -0.00106927 -0.0169389)
(-0.084879 -0.00230427 -0.0179838)
(-0.0807027 -0.00383826 -0.0190204)
(-0.105782 0.0100896 -0.00230127)
(-0.111592 0.00738691 -0.0029914)
(-0.115638 0.00514629 -0.00373106)
(-0.118346 0.00345418 -0.00450625)
(-0.120115 0.00227296 -0.00530588)
(-0.121267 0.00151025 -0.00612197)
(-0.122043 0.00106616 -0.00694923)
(-0.122613 0.000855852 -0.00778456)
(-0.123096 0.000814362 -0.00862663)
(-0.123576 0.000891683 -0.00947554)
(-0.124104 0.00104308 -0.0103326)
(-0.124703 0.00121728 -0.0112004)
(-0.125362 0.00134383 -0.012082)
(-0.126015 0.00132141 -0.0129815)
(-0.126525 0.00101015 -0.0139031)
(-0.126659 0.000233855 -0.01485)
(-0.12606 -0.00119937 -0.0158239)
(-0.124249 -0.00344767 -0.0168223)
(-0.120652 -0.00655799 -0.0178362)
(-0.114694 -0.0103656 -0.0188473)
(-0.130639 0.0176458 -0.00227171)
(-0.13697 0.0127257 -0.00296947)
(-0.141139 0.00874311 -0.00371615)
(-0.143787 0.0058009 -0.00449721)
(-0.145436 0.00378292 -0.00530123)
(-0.146467 0.00249456 -0.00612033)
(-0.147136 0.00174521 -0.00694939)
(-0.147613 0.00138128 -0.00778538)
(-0.148006 0.00128889 -0.00862682)
(-0.148389 0.00138222 -0.00947342)
(-0.148804 0.00158599 -0.0103259)
(-0.149272 0.0018155 -0.0111858)
(-0.14978 0.00195586 -0.0120554)
(-0.150273 0.00184228 -0.0129378)
(-0.150625 0.00124563 -0.0138367)
(-0.150614 -0.0001279 -0.014756)
(-0.149876 -0.0026083 -0.0156998)
(-0.14788 -0.0064855 -0.0166699)
(-0.143924 -0.0118762 -0.0176644)
(-0.137211 -0.0185343 -0.0186732)
(-0.146895 0.025492 -0.002127)
(-0.152674 0.0178693 -0.00286346)
(-0.156039 0.0119448 -0.00364237)
(-0.157923 0.00773368 -0.00444859)
(-0.158956 0.00493925 -0.00527077)
(-0.159525 0.00320029 -0.00610216)
(-0.159855 0.00220497 -0.00693896)
(-0.160068 0.00172151 -0.00777909)
(-0.160235 0.00158811 -0.00862154)
(-0.160396 0.00168895 -0.00946602)
(-0.160576 0.0019266 -0.0103127)
(-0.160788 0.00219384 -0.0111623)
(-0.161033 0.00234473 -0.0120161)
(-0.161285 0.00216547 -0.0128759)
(-0.161479 0.00134851 -0.0137451)
(-0.161464 -0.000520114 -0.0146286)
(-0.160951 -0.00393914 -0.0155336)
(-0.15943 -0.00940372 -0.016469)
(-0.156101 -0.0172164 -0.0174434)
(-0.149833 -0.0271612 -0.0184629)
(-0.154504 0.0325867 -0.00186296)
(-0.158517 0.021812 -0.00268117)
(-0.160108 0.0139517 -0.00352127)
(-0.16058 0.00868569 -0.00437178)
(-0.160598 0.00536492 -0.00522391)
(-0.160473 0.00338173 -0.00607454)
(-0.160324 0.00228092 -0.00692304)
(-0.160186 0.00175699 -0.00776944)
(-0.160061 0.00161372 -0.00861388)
(-0.159944 0.00172085 -0.00945637)
(-0.15983 0.00197575 -0.0102967)
(-0.159724 0.00226864 -0.0111346)
(-0.159642 0.00244759 -0.01197)
(-0.159608 0.00228041 -0.0128032)
(-0.159643 0.00141304 -0.0136365)
(-0.159737 -0.000669365 -0.0144751)
(-0.159767 -0.00465527 -0.0153297)
(-0.159376 -0.0113437 -0.0162171)
(-0.157761 -0.021434 -0.0171613)
(-0.15335 -0.0350265 -0.0182007)
(-0.152774 0.0376312 -0.00149696)
(-0.153548 0.0233867 -0.00245568)
(-0.152419 0.0139742 -0.00338533)
(-0.151024 0.00820083 -0.00429325)
(-0.149852 0.00482198 -0.00517994)
(-0.148989 0.0029232 -0.00605062)
(-0.148374 0.00191862 -0.00691035)
(-0.147915 0.00146039 -0.00776234)
(-0.147532 0.00134739 -0.00860827)
(-0.147164 0.00145879 -0.00944854)
(-0.146778 0.00170785 -0.0102825)
(-0.146365 0.00200548 -0.0111086)
(-0.145946 0.00222472 -0.011925)
(-0.145591 0.00215852 -0.01273)
(-0.145418 0.00146349 -0.0135234)
(-0.145592 -0.000415797 -0.014309)
(-0.146264 -0.00433156 -0.0150992)
(-0.147425 -0.0114587 -0.015919)
(-0.148561 -0.0231962 -0.0168112)
(-0.14769 -0.0405879 -0.0178756)
(-0.139885 0.0386825 -0.00107638)
(-0.135644 0.0211516 -0.00224701)
(-0.131172 0.011333 -0.00328349)
(-0.127944 0.00607757 -0.00424821)
(-0.125816 0.00332371 -0.00516177)
(-0.124462 0.00190909 -0.00604441)
(-0.123586 0.00121324 -0.0069093)
(-0.122968 0.000918844 -0.00776304)
(-0.122458 0.000865237 -0.00860849)
(-0.12196 0.000967831 -0.00944604)
(-0.121411 0.00117353 -0.0102742)
(-0.120786 0.00143127 -0.0110901)
(-0.120102 0.00166487 -0.0118896)
(-0.119438 0.0017373 -0.012668)
(-0.118972 0.00139298 -0.0134212)
(-0.119022 0.000155252 -0.014149)
(-0.12004 -0.00284465 -0.0148646)
(-0.122587 -0.00907602 -0.015596)
(-0.127046 -0.0209109 -0.0164013)
(-0.131675 -0.0415913 -0.0174793)
(-0.111657 0.0334332 -0.00085881)
(-0.100749 0.0142404 -0.00225783)
(-0.0935422 0.00619873 -0.00332689)
(-0.0895885 0.0028092 -0.00429295)
(-0.0873858 0.00134527 -0.00519673)
(-0.0861327 0.000706297 -0.00606884)
(-0.0853812 0.000433602 -0.00692629)
(-0.0848677 0.000337698 -0.00777543)
(-0.0844374 0.000340692 -0.00861797)
(-0.0839944 0.000409943 -0.00945307)
(-0.0834759 0.00052999 -0.0102779)
(-0.0828444 0.000688333 -0.0110876)
(-0.0820934 0.000863803 -0.0118755)
(-0.0812688 0.00100922 -0.012633)
(-0.0805155 0.00101558 -0.0133496)
(-0.080156 0.00063042 -0.0140169)
(-0.0807677 -0.000736883 -0.0146419)
(-0.0834568 -0.00448954 -0.0152341)
(-0.0903483 -0.01378 -0.0158286)
(-0.102312 -0.0357005 -0.0167739)
(-0.0574429 0.0206825 -0.0014459)
(-0.04272 0.00589679 -0.00280377)
(-0.0368041 0.00176184 -0.00353483)
(-0.0347291 0.000542985 -0.00427359)
(-0.0338637 0.000171704 -0.00503218)
(-0.0334453 6.1998e-05 -0.00580552)
(-0.033213 3.44823e-05 -0.00659052)
(-0.0330482 3.46618e-05 -0.00738182)
(-0.0328908 4.75789e-05 -0.0081747)
(-0.0327037 7.04467e-05 -0.00896486)
(-0.0324575 0.000104198 -0.00974735)
(-0.0321258 0.000150847 -0.0105155)
(-0.0316868 0.00021209 -0.0112598)
(-0.0311288 0.000286368 -0.0119662)
(-0.0304696 0.000359485 -0.0126144)
(-0.029801 0.000375727 -0.0131754)
(-0.0294072 0.000136315 -0.0136112)
(-0.0301314 -0.00109589 -0.0138864)
(-0.0352199 -0.00574489 -0.0139055)
(-0.0517078 -0.0227833 -0.014245)
(-0.027953 0.000616547 1.47569e-06)
(-0.0296911 0.000440923 1.0177e-06)
(-0.0309148 0.000296317 6.61469e-07)
(-0.0317354 0.000189323 4.07249e-07)
(-0.0322675 0.000117314 2.41145e-07)
(-0.0326096 7.35864e-05 1.41982e-07)
(-0.0328388 5.10696e-05 9.05997e-08)
(-0.0330122 4.41412e-05 7.1694e-08)
(-0.0331718 4.89941e-05 7.60123e-08)
(-0.0333489 6.32144e-05 9.67946e-08)
(-0.0335668 8.49686e-05 1.30584e-07)
(-0.0338404 0.000111974 1.7357e-07)
(-0.0341739 0.00014033 2.19738e-07)
(-0.0345539 0.000163287 2.59332e-07)
(-0.0349409 0.000170202 2.76438e-07)
(-0.0352585 0.000146302 2.48408e-07)
(-0.0353837 7.40284e-05 1.38626e-07)
(-0.0351473 -6.5107e-05 -9.941e-08)
(-0.0343476 -0.000278958 -5.07612e-07)
(-0.0327857 -0.00055882 -1.11198e-06)
(-0.0718822 0.00387182 -1.36527e-06)
(-0.076156 0.00283625 -1.13375e-06)
(-0.0791971 0.00197151 -8.87693e-07)
(-0.0812706 0.00131604 -6.68072e-07)
(-0.0826446 0.000859066 -4.88689e-07)
(-0.0835493 0.00056654 -3.55868e-07)
(-0.0841648 0.000400285 -2.68018e-07)
(-0.0846247 0.000327712 -2.19761e-07)
(-0.0850262 0.00032424 -2.02499e-07)
(-0.0854386 0.000371496 -2.07558e-07)
(-0.0859088 0.000453357 -2.25059e-07)
(-0.0864607 0.000550915 -2.42823e-07)
(-0.0870891 0.000636963 -2.43775e-07)
(-0.0877472 0.000670699 -2.05288e-07)
(-0.0883292 0.00059405 -1.00931e-07)
(-0.088651 0.000332273 9.36704e-08)
(-0.0884368 -0.000197387 3.97807e-07)
(-0.0873197 -0.0010666 8.13107e-07)
(-0.0848754 -0.00229859 1.30761e-06)
(-0.0807006 -0.00382959 1.76538e-06)
(-0.105784 0.0100916 -1.78351e-07)
(-0.111593 0.00738747 -2.98473e-07)
(-0.115637 0.00514644 -3.19412e-07)
(-0.118345 0.00345421 -2.98556e-07)
(-0.120114 0.00227302 -2.5161e-07)
(-0.121266 0.0015104 -1.9807e-07)
(-0.122042 0.00106641 -1.5028e-07)
(-0.122612 0.000856202 -1.12967e-07)
(-0.123095 0.000814827 -8.60523e-08)
(-0.123575 0.000892264 -6.77995e-08)
(-0.124103 0.00104376 -5.46724e-08)
(-0.124703 0.001218 -4.18006e-08)
(-0.125361 0.00134448 -2.45041e-08)
(-0.126014 0.00132184 2.58883e-09)
(-0.126524 0.00101017 4.63875e-08)
(-0.126657 0.000233262 1.10283e-07)
(-0.126058 -0.00120072 1.8681e-07)
(-0.124247 -0.00344975 2.81287e-07)
(-0.120651 -0.00656073 3.73193e-07)
(-0.114696 -0.0103704 3.10415e-07)
(-0.130644 0.0176429 -2.60497e-07)
(-0.136971 0.0127224 -4.18774e-07)
(-0.141138 0.008741 -4.08499e-07)
(-0.143785 0.00579978 -3.59942e-07)
(-0.145434 0.00378251 -2.84229e-07)
(-0.146466 0.00249459 -2.08972e-07)
(-0.147135 0.00174545 -1.47766e-07)
(-0.147612 0.00138161 -1.01682e-07)
(-0.148005 0.00128925 -6.90498e-08)
(-0.148388 0.00138258 -4.70484e-08)
(-0.148804 0.0015863 -3.22418e-08)
(-0.149271 0.00181571 -2.1377e-08)
(-0.14978 0.00195591 -1.16306e-08)
(-0.150272 0.00184209 8.53796e-10)
(-0.150624 0.00124517 2.36098e-08)
(-0.150612 -0.000128556 6.44878e-08)
(-0.149873 -0.00260891 1.23525e-07)
(-0.147877 -0.00648536 2.17237e-07)
(-0.143924 -0.011874 3.80289e-07)
(-0.137216 -0.0185318 3.25806e-07)
(-0.146902 0.0254839 -7.15575e-07)
(-0.152674 0.0178625 -7.89648e-07)
(-0.156036 0.0119416 -6.24176e-07)
(-0.15792 0.00773251 -4.83312e-07)
(-0.158953 0.0049392 -3.37263e-07)
(-0.159523 0.00320076 -2.19638e-07)
(-0.159854 0.00220558 -1.39468e-07)
(-0.160067 0.00172208 -8.78752e-08)
(-0.160234 0.0015886 -5.67812e-08)
(-0.160396 0.00168933 -4.00891e-08)
(-0.160576 0.00192686 -3.2842e-08)
(-0.160788 0.00219395 -3.18955e-08)
(-0.161032 0.00234466 -3.48794e-08)
(-0.161285 0.00216516 -3.69573e-08)
(-0.161478 0.00134801 -2.50037e-08)
(-0.161462 -0.000520585 1.85254e-08)
(-0.160947 -0.0039392 8.73615e-08)
(-0.159425 -0.0094019 2.29945e-07)
(-0.156098 -0.017209 6.55985e-07)
(-0.149841 -0.0271503 8.8819e-07)
(-0.154518 0.0325699 -1.5752e-06)
(-0.158512 0.0218008 -1.30086e-06)
(-0.160101 0.0139483 -7.85539e-07)
(-0.160575 0.00868539 -5.22017e-07)
(-0.160595 0.00536582 -3.05451e-07)
(-0.16047 0.00338293 -1.59741e-07)
(-0.160322 0.002282 -7.87898e-08)
(-0.160185 0.00175784 -3.63459e-08)
(-0.16006 0.00161437 -1.56874e-08)
(-0.159943 0.00172134 -7.6191e-09)
(-0.15983 0.00197611 -7.67102e-09)
(-0.159724 0.00226887 -1.41216e-08)
(-0.159642 0.00244765 -2.62699e-08)
(-0.159607 0.00228024 -4.22635e-08)
(-0.159642 0.00141266 -4.60312e-08)
(-0.159735 -0.000669626 -8.72499e-09)
(-0.159763 -0.00465493 2.54874e-08)
(-0.159366 -0.0113405 1.59078e-07)
(-0.157752 -0.02142 1.10461e-06)
(-0.153365 -0.035003 2.21444e-06)
(-0.152803 0.0376077 -4.24561e-06)
(-0.153534 0.023379 -2.70987e-06)
(-0.152405 0.0139774 -1.20584e-06)
(-0.151017 0.00820451 -6.26562e-07)
(-0.149848 0.00482495 -2.64927e-07)
(-0.148987 0.00292537 -8.05178e-08)
(-0.148373 0.00192009 -9.57592e-09)
(-0.147915 0.00146141 1.37607e-08)
(-0.147531 0.00134815 1.75321e-08)
(-0.147164 0.00145945 1.2203e-08)
(-0.146778 0.00170849 1.16166e-09)
(-0.146364 0.00200611 -1.51542e-08)
(-0.145946 0.00222528 -3.73731e-08)
(-0.145591 0.0021588 -6.61638e-08)
(-0.145417 0.00146322 -7.71496e-08)
(-0.14559 -0.00041669 8.2238e-09)
(-0.146258 -0.00433333 1.10741e-07)
(-0.147407 -0.0114613 3.79157e-07)
(-0.148539 -0.0231862 2.60123e-06)
(-0.147719 -0.0405568 6.07064e-06)
(-0.13994 0.0386436 -7.262e-06)
(-0.135614 0.0211607 -2.83039e-06)
(-0.131154 0.0113524 -5.30286e-07)
(-0.12794 0.00608834 -2.15438e-07)
(-0.125814 0.00332908 2.06273e-08)
(-0.124461 0.00191192 1.05461e-07)
(-0.123586 0.00121478 9.83881e-08)
(-0.122968 0.000919832 7.99239e-08)
(-0.122458 0.0008661 6.5966e-08)
(-0.121959 0.000968798 5.63404e-08)
(-0.121411 0.00117472 4.82877e-08)
(-0.120786 0.00143274 3.76516e-08)
(-0.120102 0.00166652 1.81629e-08)
(-0.119438 0.00173877 -2.68608e-08)
(-0.118972 0.00139348 -9.55473e-08)
(-0.119022 0.00015341 -5.8345e-08)
(-0.120038 -0.00285242 5.77161e-08)
(-0.122568 -0.00909586 -2.97916e-07)
(-0.127006 -0.0209217 2.34839e-06)
(-0.13173 -0.0415408 9.80205e-06)
(-0.111723 0.0332522 -9.15663e-06)
(-0.100685 0.0141873 3.98332e-06)
(-0.0935318 0.00618934 4.35031e-06)
(-0.0895972 0.00280306 1.78508e-06)
(-0.0873906 0.00134077 8.95647e-07)
(-0.086135 0.000703591 5.26957e-07)
(-0.0853824 0.000431899 3.13074e-07)
(-0.084868 0.000336483 2.23252e-07)
(-0.0844372 0.000339684 2.06944e-07)
(-0.083994 0.000408961 2.30614e-07)
(-0.0834755 0.000528923 2.77953e-07)
(-0.0828441 0.000687152 3.35245e-07)
(-0.0820936 0.000862598 3.78188e-07)
(-0.0812701 0.00100831 3.4341e-07)
(-0.0805185 0.00101566 1.44453e-07)
(-0.0801634 0.000632399 -1.86018e-07)
(-0.0807838 -0.000733223 -1.19273e-06)
(-0.0834523 -0.0044825 -5.27801e-06)
(-0.0902681 -0.0137223 -6.86962e-06)
(-0.102361 -0.0354732 1.10159e-05)
(-0.0574776 0.0205493 -4.95801e-05)
(-0.0425728 0.00583536 -7.84537e-06)
(-0.036764 0.00173753 -4.16567e-07)
(-0.0347256 0.000529403 -1.2759e-06)
(-0.0338611 0.000163965 -8.14808e-07)
(-0.0334434 5.78012e-05 -3.62734e-07)
(-0.0332122 3.20572e-05 -1.94179e-07)
(-0.0330479 3.29985e-05 -1.29988e-07)
(-0.0328907 4.61388e-05 -1.09106e-07)
(-0.0327038 6.89191e-05 -1.16298e-07)
(-0.0324576 0.000102399 -1.42471e-07)
(-0.0321261 0.00014871 -1.79483e-07)
(-0.031687 0.000209736 -2.15565e-07)
(-0.0311286 0.000284302 -2.28744e-07)
(-0.0304684 0.000358895 -1.34379e-07)
(-0.0298 0.000378578 2.94201e-07)
(-0.0294092 0.000145311 6.36987e-07)
(-0.0300936 -0.00107452 -1.62371e-06)
(-0.0350288 -0.00567931 3.84997e-06)
(-0.0516994 -0.0226116 6.06683e-05)
(-0.027953 0.000616547 -1.47182e-06)
(-0.0296911 0.000440923 -1.01376e-06)
(-0.0309148 0.000296318 -6.58e-07)
(-0.0317354 0.000189323 -4.04799e-07)
(-0.0322674 0.000117314 -2.39398e-07)
(-0.0326096 7.35866e-05 -1.40875e-07)
(-0.0328388 5.10696e-05 -8.9287e-08)
(-0.0330122 4.41412e-05 -7.03504e-08)
(-0.0331718 4.89941e-05 -7.46286e-08)
(-0.0333489 6.32144e-05 -9.55746e-08)
(-0.0335667 8.49684e-05 -1.29424e-07)
(-0.0338404 0.000111974 -1.73041e-07)
(-0.0341739 0.00014033 -2.20257e-07)
(-0.0345539 0.000163287 -2.60454e-07)
(-0.0349409 0.000170202 -2.77881e-07)
(-0.0352585 0.000146302 -2.50266e-07)
(-0.0353836 7.40286e-05 -1.40785e-07)
(-0.0351472 -6.51069e-05 9.70721e-08)
(-0.0343476 -0.000278958 5.04819e-07)
(-0.0327857 -0.00055882 1.10825e-06)
(-0.0718822 0.00387182 1.37013e-06)
(-0.076156 0.00283625 1.13861e-06)
(-0.079197 0.00197151 8.91566e-07)