/*--------------------------------*- C++ -*----------------------------------*\
| =========                 |                                                 |
| \\      /  F ield         | OpenFOAM: The Open Source CFD Toolbox           |
|  \\    /   O peration     | Version:  2.4.0                                 |
|   \\  /    A nd           | Web:      www.OpenFOAM.org                      |
|    \\/     M anipulation  |                                                 |
\*---------------------------------------------------------------------------*/
FoamFile
{
    version     2.0;
    format      ascii;
    class       volScalarField;
    location    "0.0002";
    object      T;
}
// * * * * * * * * * * * * * * * * * * * * * * * * * * * * * * * * * * * * * //

dimensions      [0 0 0 1 0 0 0];

internalField   nonuniform List<scalar> 
4800
(
97.2998
93.2226
90.4768
88.7193
87.6387
87.0067
86.667
86.5154
86.4812
86.5158
93.2226
82.352
74.7473
69.7793
66.6956
64.8914
63.9353
63.5311
63.4749
63.6217
90.4768
74.7472
63.4484
55.9351
51.235
48.503
47.1088
46.6052
46.6716
47.0683
88.7192
69.7789
55.9348
46.6193
40.785
37.4648
35.9098
35.5684
36.0223
36.9311
87.6385
66.695
51.2343
40.7845
34.3027
30.7861
29.4382
29.6504
30.9231
32.7919
87.0064
64.8906
48.5019
37.4638
30.7854
27.4956
26.8193
28.1471
30.9176
34.4939
86.6666
63.9342
47.1073
35.9083
29.4369
26.8186
27.3839
30.6112
35.9302
42.4632
86.5149
63.5299
46.6034
35.5664
29.6486
28.1457
30.6105
36.7702
46.2096
57.8012
86.4808
63.4736
46.6696
36.02
30.9209
30.9157
35.9288
46.2088
61.9232
82.0836
86.5154
63.6204
47.0664
36.9288
32.7895
34.4916
42.4612
57.7997
82.0828
116.22
97.2998
93.2226
90.4768
88.7193
87.6387
87.0067
86.6671
86.5154
86.4812
86.5158
93.2226
82.352
74.7473
69.7793
66.6956
64.8914
63.9353
63.5311
63.4749
63.6217
90.4768
74.7471
63.4484
55.9351
51.235
48.503
47.1088
46.6052
46.6715
47.0682
88.7192
69.7789
55.9348
46.6193
40.785
37.4648
35.9098
35.5684
36.0222
36.931
87.6385
66.6949
51.2343
40.7845
34.3027
30.7861
29.4382
29.6504
30.9231
32.7919
87.0064
64.8906
48.5019
37.4638
30.7854
27.4956
26.8193
28.1471
30.9176
34.4939
86.6667
63.9342
47.1074
35.9083
29.4369
26.8186
27.384
30.6113
35.9302
42.4632
86.515
63.5299
46.6034
35.5664
29.6486
28.1458
30.6105
36.7703
46.2097
57.8013
86.4808
63.4737
46.6697
36.0201
30.9209
30.9157
35.9289
46.2089
61.9233
82.0837
86.5155
63.6205
47.0665
36.9289
32.7896
34.4917
42.4613
57.7999
82.083
116.221
97.2998
93.2226
90.4768
88.7193
87.6387
87.0067
86.667
86.5154
86.4812
86.5158
93.2226
82.3521
74.7473
69.7793
66.6956
64.8915
63.9353
63.5311
63.4749
63.6217
90.4767
74.7471
63.4484
55.9351
51.235
48.503
47.1088
46.6051
46.6715
47.0682
88.7192
69.7789
55.9349
46.6193
40.785
37.4648
35.9098
35.5683
36.0222
36.931
87.6385
66.695
51.2343
40.7845
34.3026
30.786
29.4381
29.6504
30.9231
32.7919
87.0064
64.8906
48.5019
37.4638
30.7854
27.4956
26.8193
28.1471
30.9176
34.4939
86.6667
63.9342
47.1073
35.9083
29.4369
26.8186
27.384
30.6113
35.9302
42.4632
86.515
63.5299
46.6034
35.5664
29.6486
28.1458
30.6105
36.7703
46.2097
57.8013
86.4808
63.4737
46.6697
36.0201
30.9209
30.9157
35.9289
46.209
61.9234
82.0837
86.5155
63.6205
47.0665
36.9289
32.7897
34.4917
42.4613
57.7999
82.0831
116.221
97.2998
93.2226
90.4768
88.7193
87.6387
87.0067
86.667
86.5153
86.4812
86.5158
93.2226
82.3521
74.7473
69.7793
66.6956
64.8915
63.9353
63.5311
63.4749
63.6217
90.4768
74.7472
63.4485
55.9352
51.235
48.503
47.1088
46.6051
46.6715
47.0683
88.7192
69.7789
55.9349
46.6194
40.785
37.4648
35.9098
35.5683
36.0223
36.9311
87.6385
66.695
51.2343
40.7845
34.3026
30.786
29.4381
29.6504
30.9231
32.792
87.0064
64.8906
48.5019
37.4638
30.7854
27.4956
26.8193
28.1471
30.9176
34.4939
86.6667
63.9342
47.1073
35.9082
29.4369
26.8186
27.3839
30.6112
35.9302
42.4632
86.5149
63.5298
46.6033
35.5664
29.6486
28.1457
30.6105
36.7702
46.2096
57.8013
86.4808
63.4736
46.6696
36.02
30.9209
30.9157
35.9288
46.2088
61.9232
82.0836
86.5154
63.6204
47.0664
36.9288
32.7896
34.4916
42.4612
57.7997
82.0828
116.22
86.5846
86.6637
86.7383
86.8008
86.8491
86.8841
86.9081
86.9236
86.9326
86.9368
86.9368
86.9326
86.9236
86.9081
86.8842
86.8492
86.8008
86.7382
86.6636
86.5845
63.8662
64.1345
64.3809
64.5838
64.7381
64.8483
64.9228
64.9704
64.9982
65.0109
65.0109
64.9982
64.9704
64.9228
64.8481
64.7378
64.5835
64.3804
64.1338
63.8653
47.6114
48.1679
48.6578
49.0476
49.3353
49.5357
49.6684
49.7516
49.7994
49.8211
49.821
49.7994
49.7515
49.6682
49.5354
49.3348
49.0468
48.6568
48.1667
47.6099
38.0091
39.0401
39.9021
40.5579
41.0232
41.336
41.5368
41.6596
41.7288
41.7597
41.7597
41.7287
41.6594
41.5365
41.3355
41.0225
40.5569
39.9007
39.0384
38.0072
34.8117
36.624
38.0544
39.0854
39.7817
40.2296
40.5066
40.6707
40.761
40.8008
40.8007
40.7608
40.6704
40.5061
40.229
39.7808
39.0842
38.0529
36.6222
34.8095
38.139
41.2069
43.4688
44.9956
45.967
46.5603
46.9113
47.112
47.2194
47.266
47.2659
47.2193
47.1116
46.9108
46.5596
45.9661
44.9943
43.4672
41.205
38.1369
48.8958
53.8997
57.2757
59.373
60.6145
61.3281
61.7299
61.9508
62.0657
62.1145
62.1145
62.0655
61.9505
61.7295
61.3275
60.6137
59.3719
57.2743
53.898
48.8939
69.0917
76.8499
81.4532
84.0156
85.4039
86.1485
86.5458
86.7556
86.8616
86.9058
86.9058
86.8614
86.7553
86.5455
86.1481
85.4034
84.0148
81.4522
76.8486
69.09
102.342
113.197
118.433
120.934
122.149
122.752
123.057
123.212
123.289
123.32
123.32
123.289
123.212
123.057
122.752
122.149
120.934
118.433
113.196
102.341
155.399
166.112
169.529
170.797
171.33
171.574
171.691
171.749
171.777
171.788
171.788
171.777
171.749
171.691
171.574
171.33
170.797
169.529
166.112
155.398
86.5846
86.6637
86.7382
86.8007
86.849
86.884
86.9079
86.9234
86.9324
86.9366
86.9365
86.9324
86.9233
86.9078
86.8838
86.8488
86.8004
86.7378
86.6631
86.584
63.8661
64.1344
64.3808
64.5837
64.7379
64.8481
64.9226
64.9702
64.9979
65.0106
65.0105
64.9978
64.97
64.9223
64.8477
64.7373
64.5829
64.3799
64.1332
63.8647
47.6114
48.1679
48.6577
49.0474
49.3352
49.5356
49.6682
49.7514
49.7992
49.8208
49.8208
49.7991
49.7512
49.6679
49.535
49.3344
49.0464
48.6564
48.1662
47.6094
38.0091
39.04
39.902
40.5578
41.0231
41.3359
41.5367
41.6594
41.7286
41.7595
41.7595
41.7284
41.6591
41.5362
41.3352
41.0221
40.5565
39.9004
39.038
38.0068
34.8116
36.624
38.0543
39.0853
39.7815
40.2295
40.5064
40.6705
40.7608
40.8005
40.8004
40.7605
40.6701
40.5058
40.2287
39.7804
39.0838
38.0525
36.6218
34.8091
38.139
41.2069
43.4687
44.9954
45.9669
46.5601
46.9111
47.1117
47.2192
47.2657
47.2656
47.2189
47.1113
46.9105
46.5592
45.9657
44.9939
43.4668
41.2046
38.1365
48.8958
53.8997
57.2756
59.3728
60.6143
61.3279
61.7297
61.9505
62.0654
62.1142
62.1141
62.0651
61.95
61.729
61.327
60.6132
59.3714
57.2737
53.8974
48.8934
69.0917
76.8498
81.4531
84.0154
85.4037
86.1482
86.5455
86.7552
86.8611
86.9054
86.9053
86.8609
86.7548
86.5449
86.1474
85.4027
84.0141
81.4515
76.8479
69.0894
102.342
113.197
118.433
120.934
122.149
122.752
123.057
123.212
123.288
123.32
123.32
123.288
123.212
123.056
122.751
122.148
120.933
118.432
113.195
102.34
155.399
166.112
169.528
170.797
171.33
171.573
171.691
171.749
171.777
171.788
171.788
171.776
171.748
171.69
171.573
171.329
170.797
169.528
166.111
155.397
86.5846
86.6636
86.7382
86.8007
86.849
86.884
86.9079
86.9233
86.9324
86.9365
86.9365
86.9323
86.9233
86.9078
86.8838
86.8488
86.8004
86.7378
86.6631
86.5839
63.8661
64.1344
64.3808
64.5837
64.7379
64.8481
64.9226
64.9702
64.9979
65.0106
65.0105
64.9978
64.97
64.9223
64.8477
64.7373
64.5829
64.3799
64.1332
63.8647
47.6114
48.1678
48.6577
49.0474
49.3352
49.5356
49.6683
49.7514
49.7992
49.8208
49.8208
49.7991
49.7512
49.6679
49.535
49.3344
49.0464
48.6564
48.1662
47.6094
38.009
39.04
39.902
40.5578
41.0231
41.3359
41.5367
41.6594
41.7286
41.7595
41.7594
41.7284
41.6591
41.5362
41.3352
41.0221
40.5565
39.9004
39.038
38.0067
34.8116
36.624
38.0543
39.0853
39.7815
40.2295
40.5064
40.6705
40.7607
40.8005
40.8004
40.7605
40.6701
40.5058
40.2286
39.7804
39.0838
38.0524
36.6217
34.8091
38.139
41.2069
43.4687
44.9954
45.9669
46.5601
46.9111
47.1117
47.2192
47.2657
47.2656
47.2189
47.1113
46.9105
46.5592
45.9657
44.9939
43.4668
41.2046
38.1365
48.8958
53.8997
57.2756
59.3729
60.6143
61.3279
61.7297
61.9505
62.0654
62.1142
62.1141
62.0651
61.9501
61.729
61.327
60.6132
59.3714
57.2737
53.8975
48.8934
69.0917
76.8498
81.4531
84.0154
85.4037
86.1482
86.5455
86.7552
86.8611
86.9054
86.9053
86.8609
86.7548
86.5449
86.1474
85.4027
84.0141
81.4515
76.8479
69.0894
102.342
113.197
118.433
120.934
122.149
122.752
123.057
123.212
123.288
123.32
123.32
123.288
123.212
123.056
122.751
122.148
120.933
118.432
113.195
102.34
155.399
166.112
169.528
170.797
171.33
171.573
171.691
171.749
171.777
171.788
171.788
171.776
171.748
171.69
171.573
171.329
170.797
169.528
166.111
155.397
86.5846
86.6637
86.7383
86.8008
86.8491
86.8841
86.9081
86.9235
86.9326
86.9368
86.9368
86.9326
86.9236
86.9081
86.8842
86.8491
86.8008
86.7382
86.6636
86.5845
63.8662
64.1344
64.3809
64.5838
64.738
64.8483
64.9228
64.9705
64.9982
65.0109
65.0109
64.9982
64.9704
64.9228
64.8481
64.7378
64.5835
64.3804
64.1338
63.8653
47.6114
48.1679
48.6578
49.0475
49.3353
49.5358
49.6684
49.7516
49.7994
49.8211
49.8211
49.7994
49.7515
49.6682
49.5354
49.3349
49.0469
48.6569
48.1667
47.61
38.0091
39.04
39.9021
40.5579
41.0232
41.336
41.5368
41.6596
41.7288
41.7597
41.7597
41.7287
41.6594
41.5365
41.3355
41.0225
40.5569
39.9007
39.0384
38.0072
34.8117
36.624
38.0544
39.0854
39.7817
40.2296
40.5066
40.6707
40.761
40.8007
40.8007
40.7608
40.6704
40.5061
40.229
39.7808
39.0842
38.0528
36.6221
34.8095
38.139
41.2069
43.4688
44.9956
45.967
46.5603
46.9113
47.1119
47.2194
47.2659
47.2659
47.2192
47.1116
46.9108
46.5596
45.9661
44.9943
43.4672
41.205
38.1369
48.8958
53.8997
57.2757
59.373
60.6145
61.3281
61.7299
61.9508
62.0657
62.1145
62.1145
62.0655
61.9505
61.7295
61.3275
60.6137
59.3719
57.2743
53.898
48.8939
69.0917
76.8499
81.4532
84.0156
85.4039
86.1485
86.5458
86.7555
86.8616
86.9058
86.9058
86.8614
86.7553
86.5455
86.148
85.4034
84.0148
81.4522
76.8486
69.09
102.342
113.197
118.433
120.934
122.149
122.752
123.057
123.212
123.289
123.32
123.32
123.289
123.212
123.057
122.752
122.149
120.934
118.433
113.196
102.341
155.399
166.112
169.529
170.797
171.33
171.574
171.691
171.749
171.777
171.788
171.788
171.777
171.749
171.691
171.574
171.33
170.798
169.529
166.112
155.398
86.5157
86.4811
86.5152
86.667
87.0067
87.6388
88.7195
90.4771
93.223
97.3
63.6208
63.4739
63.5302
63.9346
64.891
66.6954
69.7794
74.7476
82.3526
93.223
47.0667
46.6699
46.6037
47.1076
48.5022
51.2346
55.9353
63.4489
74.7478
90.4772
36.929
36.0203
35.5666
35.9085
37.464
40.7848
46.6197
55.9355
69.7797
88.7196
32.7898
30.9211
29.6488
29.4371
30.7856
34.3028
40.7852
51.2353
66.696
87.639
34.4918
30.9159
28.1459
26.8187
27.4957
30.7862
37.465
48.5033
64.8918
87.007
42.4615
35.929
30.6107
27.3841
26.8194
29.4383
35.91
47.1091
63.9357
86.6673
57.8001
46.2092
36.7705
30.6114
28.1473
29.6506
35.5686
46.6054
63.5315
86.5156
82.0833
61.9237
46.21
35.9304
30.9178
30.9233
36.0225
46.6718
63.4753
86.4815
116.221
82.0841
57.8016
42.4635
34.4941
32.7921
36.9313
47.0686
63.6221
86.5161
86.5151
86.4805
86.5146
86.6664
87.0061
87.6382
88.7189
90.4765
93.2223
97.2996
63.6201
63.4733
63.5295
63.9338
64.8902
66.6946
69.7786
74.7468
82.3517
93.2224
47.0661
46.6694
46.6031
47.107
48.5015
51.2339
55.9345
63.4481
74.7469
90.4765
36.9286
36.0198
35.5661
35.908
37.4635
40.7842
46.619
55.9348
69.7789
88.719
32.7894
30.9207
29.6484
29.4366
30.7852
34.3023
40.7847
51.2346
66.6952
87.6384
34.4914
30.9155
28.1455
26.8184
27.4953
30.7858
37.4645
48.5026
64.8911
87.0064
42.461
35.9286
30.6103
27.3837
26.8191
29.4379
35.9095
47.1085
63.9349
86.6667
57.7995
46.2086
36.77
30.611
28.1469
29.6501
35.5681
46.6048
63.5307
86.515
82.0825
61.9229
46.2093
35.9299
30.9173
30.9228
36.022
46.6712
63.4745
86.4809
116.22
82.0832
57.8009
42.4629
34.4936
32.7916
36.9308
47.0679
63.6212
86.5155
86.5151
86.4805
86.5146
86.6663
87.006
87.6382
88.7189
90.4764
93.2223
97.2996
63.6201
63.4733
63.5295
63.9338
64.8902
66.6946
69.7785
74.7468
82.3517
93.2224
47.0661
46.6694
46.6031
47.107
48.5015
51.2339
55.9345
63.4481
74.7469
90.4765
36.9286
36.0198
35.5661
35.908
37.4635
40.7842
46.619
55.9348
69.7789
88.719
32.7894
30.9207
29.6484
29.4366
30.7851
34.3023
40.7847
51.2346
66.6952
87.6384
34.4914
30.9155
28.1455
26.8184
27.4953
30.7858
37.4645
48.5026
64.8911
87.0064
42.461
35.9286
30.6103
27.3837
26.8191
29.4379
35.9095
47.1085
63.9349
86.6667
57.7995
46.2086
36.77
30.611
28.1469
29.6501
35.5681
46.6048
63.5307
86.515
82.0825
61.9229
46.2094
35.9299
30.9173
30.9228
36.022
46.6712
63.4745
86.4809
116.22
82.0832
57.8009
42.4629
34.4936
32.7917
36.9308
47.0679
63.6213
86.5155
86.5157
86.4811
86.5152
86.667
87.0067
87.6388
88.7195
90.4771
93.223
97.3
63.6208
63.4739
63.5302
63.9346
64.8909
66.6954
69.7794
74.7476
82.3525
93.223
47.0667
46.6699
46.6037
47.1076
48.5022
51.2346
55.9353
63.4489
74.7478
90.4772
36.929
36.0202
35.5666
35.9085
37.464
40.7848
46.6197
55.9356
69.7797
88.7197
32.7898
30.9211
29.6488
29.437
30.7856
34.3028
40.7852
51.2353
66.696
87.639
34.4918
30.9159
28.1459
26.8187
27.4957
30.7862
37.465
48.5033
64.8918
87.007
42.4615
35.929
30.6107
27.3841
26.8194
29.4383
35.91
47.1091
63.9357
86.6673
57.8001
46.2092
36.7705
30.6114
28.1473
29.6506
35.5686
46.6054
63.5315
86.5157
82.0833
61.9237
46.21
35.9304
30.9178
30.9233
36.0225
46.6718
63.4753
86.4815
116.221
82.0841
57.8016
42.4635
34.4941
32.7922
36.9313
47.0686
63.6221
86.5161
155.399
102.343
69.0922
48.8962
38.1393
34.8119
38.0093
47.6117
63.8665
86.5849
166.112
113.197
76.8504
53.9001
41.2072
36.6243
39.0403
48.1682
64.1348
86.664
169.529
118.434
81.4538
57.2761
43.4691
38.0546
39.9023
48.6581
64.3813
86.7385
170.798
120.935
84.0161
59.3734
44.9958
39.0856
40.5581
49.0478
64.5841
86.8011
171.331
122.15
85.4044
60.6148
45.9672
39.7818
41.0234
49.3356
64.7384
86.8494
171.574
122.753
86.1489
61.3284
46.5604
40.2297
41.3361
49.5359
64.8485
86.8844
171.692
123.058
86.5462
61.7301
46.9113
40.5065
41.5368
49.6685
64.923
86.9083
171.749
123.213
86.7557
61.9507
47.1116
40.6703
41.6592
49.7514
64.9705
86.9237
171.777
123.289
86.8613
62.0651
47.2185
40.76
41.7279
49.7988
64.998
86.9327
171.789
123.32
86.9048
62.1129
47.264
40.7987
41.7579
49.8197
65.0102
86.9367
171.788
123.319
86.9033
62.1111
47.262
40.7968
41.7562
49.8184
65.0093
86.9364
171.776
123.286
86.8562
62.0588
47.2119
40.7536
41.7223
49.7945
64.9953
86.9318
171.747
123.206
86.7451
61.9378
47.098
40.6572
41.6479
49.7427
64.965
86.9219
171.687
123.045
86.5261
61.7059
46.8859
40.4824
41.516
49.6526
64.9131
86.905
171.565
122.728
86.1117
61.2844
46.5147
40.1867
41.2993
49.508
64.8311
86.8785
171.314
122.102
85.336
60.5353
45.8859
39.7061
40.9591
49.2869
64.7081
86.8392
170.765
120.845
83.8902
59.2305
44.8521
38.9534
40.4466
48.9637
64.5319
86.7835
169.462
118.262
81.2219
57.0207
43.2171
37.8256
39.7104
48.5137
64.2918
86.7083
165.962
112.861
76.424
53.4473
40.7698
36.231
38.7126
47.9223
63.9824
86.6125
155.02
101.671
68.313
48.1031
37.3885
34.1433
37.4544
47.1957
63.6088
86.4977
155.398
102.342
69.0912
48.8955
38.1387
34.8113
38.0088
47.611
63.8657
86.5842
166.111
113.196
76.8493
53.8993
41.2066
36.6237
39.0397
48.1675
64.1339
86.6633
169.528
118.432
81.4526
57.2752
43.4684
38.054
39.9017
48.6574
64.3804
86.7378
170.797
120.933
84.0148
59.3724
44.9951
39.0849
40.5575
49.0471
64.5832
86.8004
171.329
122.148
85.4031
60.6138
45.9664
39.7811
41.0227
49.3348
64.7374
86.8487
171.573
122.751
86.1475
61.3273
46.5596
40.229
41.3354
49.5351
64.8475
86.8836
171.69
123.056
86.5447
61.729
46.9104
40.5057
41.536
49.6676
64.922
86.9075
171.748
123.211
86.7542
61.9495
47.1107
40.6695
41.6585
49.7506
64.9695
86.9229
171.776
123.287
86.8598
62.0639
47.2176
40.7592
41.7271
49.7979
64.9969
86.9319
171.787
123.318
86.9032
62.1117
47.2631
40.7979
41.7571
49.8188
65.0091
86.9359
171.787
123.317
86.9017
62.1099
47.261
40.796
41.7554
49.8175
65.0082
86.9356
171.775
123.284
86.8545
62.0576
47.2109
40.7527
41.7215
49.7935
64.9941
86.9309
171.745
123.204
86.7434
61.9365
47.097
40.6563
41.6471
49.7417
64.9639
86.921
171.685
123.042
86.5243
61.7046
46.8849
40.4815
41.5151
49.6516
64.9119
86.9041
171.563
122.726
86.1099
61.283
46.5137
40.1858
41.2984
49.5069
64.8299
86.8776
171.312
122.1
85.3341
60.5339
45.8848
39.7052
40.9582
49.2858
64.7069
86.8382
170.763
120.843
83.8883
59.2291
44.851
38.9525
40.4457
48.9626
64.5307
86.7825
169.459
118.26
81.2201
57.0193
43.2161
37.8247
39.7095
48.5127
64.2906
86.7073
165.96
112.858
76.4222
53.446
40.7687
36.2301
38.7117
47.9212
63.9812
86.6115
155.018
101.669
68.3114
48.1019
37.3875
34.1425
37.4535
47.1946
63.6075
86.4967
155.398
102.342
69.0912
48.8955
38.1387
34.8113
38.0088
47.611
63.8657
86.5842
166.111
113.196
76.8493
53.8993
41.2066
36.6237
39.0397
48.1675
64.1339
86.6633
169.528
118.432
81.4526
57.2751
43.4684
38.054
39.9017
48.6573
64.3804
86.7379
170.797
120.933
84.0148
59.3724
44.9951
39.085
40.5575
49.047
64.5832
86.8004
171.329
122.148
85.4031
60.6138
45.9664
39.7812
41.0227
49.3348
64.7374
86.8487
171.573
122.751
86.1475
61.3273
46.5596
40.229
41.3354
49.5351
64.8476
86.8837
171.69
123.056
86.5447
61.7289
46.9104
40.5057
41.536
49.6676
64.922
86.9076
171.748
123.211
86.7542
61.9495
47.1107
40.6695
41.6585
49.7505
64.9695
86.9229
171.776
123.287
86.8598
62.0639
47.2176
40.7592
41.7271
49.7979
64.9969
86.9319
171.787
123.318
86.9032
62.1117
47.2631
40.7979
41.7571
49.8188
65.0091
86.9359
171.787
123.317
86.9017
62.1098
47.261
40.796
41.7554
49.8175
65.0083
86.9356
171.775
123.284
86.8545
62.0575
47.2109
40.7527
41.7215
49.7935
64.9941
86.9309
171.745
123.204
86.7434
61.9365
47.097
40.6563
41.6471
49.7417
64.9639
86.921
171.685
123.042
86.5243
61.7046
46.8849
40.4815
41.5151
49.6516
64.912
86.9041
171.563
122.726
86.1099
61.283
46.5137
40.1858
41.2984
49.5069
64.8299
86.8776
171.312
122.1
85.3341
60.5339
45.8848
39.7052
40.9582
49.2858
64.7069
86.8383
170.763
120.843
83.8883
59.2291
44.851
38.9525
40.4457
48.9626
64.5307
86.7825
169.459
118.26
81.2201
57.0193
43.2161
37.8247
39.7095
48.5127
64.2906
86.7074
165.96
112.858
76.4222
53.446
40.7687
36.2301
38.7117
47.9212
63.9812
86.6115
155.018
101.669
68.3114
48.1019
37.3875
34.1425
37.4535
47.1946
63.6076
86.4967
155.399
102.343
69.0922
48.8962
38.1393
34.8119
38.0093
47.6117
63.8665
86.5849
166.112
113.197
76.8504
53.9001
41.2072
36.6243
39.0403
48.1682
64.1348
86.664
169.529
118.434
81.4538
57.2761
43.4691
38.0546
39.9023
48.6581
64.3813
86.7386
170.798
120.935
84.0161
59.3734
44.9958
39.0856
40.5581
49.0478
64.5842
86.8011
171.331
122.15
85.4045
60.6148
45.9672
39.7818
41.0234
49.3356
64.7384
86.8494
171.574
122.753
86.149
61.3284
46.5604
40.2297
41.3361
49.5359
64.8485
86.8844
171.691
123.058
86.5462
61.7301
46.9113
40.5065
41.5368
49.6685
64.923
86.9084
171.749
123.213
86.7557
61.9507
47.1116
40.6703
41.6592
49.7514
64.9705
86.9238
171.777
123.289
86.8613
62.0651
47.2185
40.76
41.7279
49.7988
64.998
86.9327
171.789
123.32
86.9048
62.1129
47.264
40.7987
41.7579
49.8197
65.0102
86.9367
171.788
123.319
86.9033
62.1111
47.262
40.7968
41.7562
49.8184
65.0094
86.9365
171.776
123.286
86.8562
62.0588
47.2119
40.7536
41.7223
49.7945
64.9953
86.9318
171.747
123.206
86.7451
61.9378
47.098
40.6572
41.6479
49.7427
64.965
86.9219
171.687
123.045
86.5261
61.7059
46.8859
40.4824
41.516
49.6526
64.9131
86.905
171.565
122.728
86.1117
61.2844
46.5147
40.1867
41.2993
49.5079
64.8311
86.8785
171.314
122.102
85.336
60.5353
45.8859
39.7061
40.9591
49.2869
64.7081
86.8392
170.765
120.845
83.8902
59.2305
44.8521
38.9534
40.4466
48.9637
64.5319
86.7835
169.462
118.262
81.2219
57.0207
43.2171
37.8256
39.7104
48.5137
64.2918
86.7083
165.962
112.861
76.424
53.4473
40.7697
36.231
38.7126
47.9223
63.9825
86.6125
155.02
101.671
68.313
48.1031
37.3885
34.1433
37.4544
47.1957
63.6088
86.4977
115.064
80.7441
56.4066
41.0988
33.2233
31.6676
35.9993
46.3696
63.1885
86.3692
79.7157
59.5017
43.8131
33.6356
28.7984
29.0517
34.4699
45.505
62.7501
86.2355
53.6637
42.1152
32.7895
26.8286
24.6599
26.5664
33.0024
44.6701
62.325
86.1056
35.6632
29.2552
24.1478
21.2464
21.1493
24.4047
31.702
43.9204
61.9401
85.9875
23.6404
20.2708
17.8286
16.9952
18.383
22.6533
30.625
43.2892
61.6123
85.8864
15.8016
14.2291
13.4272
13.9311
16.3262
21.3154
29.7836
42.7871
61.3483
85.8045
10.8105
10.2963
10.4841
11.824
14.8734
20.347
29.1613
42.4091
61.1469
85.7418
7.74063
7.83842
8.60713
10.4503
13.9051
19.6878
28.7291
42.1418
61.0021
85.6962
5.98829
6.41967
7.5079
9.63263
13.3188
19.2817
28.4581
41.9708
60.9073
85.666
5.19508
5.77309
7.00243
9.25268
13.0432
19.0881
28.3266
41.8857
60.8586
85.6532
115.062
80.7424
56.4053
41.0979
33.2225
31.6668
35.9984
46.3685
63.1873
86.3682
79.7143
59.5005
43.8122
33.6348
28.7977
29.0509
34.4691
45.5039
62.7488
86.2344
53.6628
42.1144
32.7888
26.8281
24.6593
26.5658
33.0015
44.669
62.3237
86.1045
35.6626
29.2546
24.1473
21.246
21.1488
24.404
31.7011
43.9193
61.9386
85.9863
23.64
20.2705
17.8282
16.9949
18.3825
22.6527
30.6242
43.2879
61.6107
85.885
15.8014
14.2289
13.4269
13.9308
16.3258
21.3149
29.7827
42.7858
61.3465
85.8029
10.8103
10.2961
10.4839
11.8238
14.873
20.3465
29.1603
42.4075
61.1447
85.7398
7.74051
7.83829
8.60697
10.4501
13.9047
19.6872
28.728
42.1399
60.9995
85.6937
5.9882
6.41956
7.50776
9.63243
13.3184
19.281
28.4569
41.9687
60.9041
85.6625
5.195
5.77299
7.00231
9.25249
13.0428
19.0875
28.3254
41.8835
60.8549
85.6485
115.062
80.7424
56.4053
41.0979
33.2225
31.6668
35.9985
46.3685
63.1873
86.3682
79.7143
59.5005
43.8122
33.6348
28.7977
29.0509
34.4691
45.5039
62.7488
86.2344
53.6628
42.1144
32.7888
26.8281
24.6593
26.5658
33.0015
44.669
62.3237
86.1045
35.6626
29.2546
24.1473
21.246
21.1488
24.404
31.7012
43.9193
61.9387
85.9863
23.64
20.2704
17.8282
16.9949
18.3825
22.6527
30.6242
43.2879
61.6107
85.885
15.8013
14.2289
13.4269
13.9308
16.3258
21.3149
29.7827
42.7858
61.3465
85.8029
10.8103
10.2961
10.4839
11.8238
14.873
20.3465
29.1603
42.4075
61.1447
85.7398
7.74051
7.83829
8.60699
10.4501
13.9047
19.6872
28.728
42.1399
60.9995
85.6937
5.98819
6.41956
7.50777
9.63243
13.3184
19.281
28.4569
41.9687
60.9041
85.6625
5.19499
5.77299
7.00232
9.25249
13.0428
19.0874
28.3254
41.8835
60.8549
85.6485
115.064
80.7441
56.4066
41.0988
33.2233
31.6676
35.9993
46.3696
63.1885
86.3693
79.7157
59.5017
43.8131
33.6356
28.7984
29.0517
34.4699
45.505
62.7501
86.2355
53.6637
42.1153
32.7895
26.8286
24.6599
26.5665
33.0024
44.6701
62.325
86.1056
35.6632
29.2552
24.1478
21.2464
21.1493
24.4047
31.702
43.9205
61.9401
85.9875
23.6403
20.2708
17.8286
16.9953
18.383
22.6533
30.625
43.2892
61.6123
85.8864
15.8016
14.2291
13.4272
13.9311
16.3262
21.3155
29.7836
42.7871
61.3483
85.8045
10.8105
10.2963
10.4841
11.8241
14.8734
20.347
29.1613
42.4091
61.1468
85.7418
7.74062
7.83844
8.60716
10.4504
13.9051
19.6878
28.7291
42.1417
61.0021
85.6962
5.98828
6.41968
7.50793
9.63265
13.3188
19.2816
28.458
41.9708
60.9073
85.666
5.19506
5.7731
7.00247
9.25268
13.0432
19.0881
28.3266
41.8857
60.8586
85.6532
154.613
165.409
168.846
170.119
170.653
170.897
171.014
171.072
171.1
171.112
171.112
171.1
171.072
171.015
170.897
170.653
170.12
168.845
165.407
154.608
100.096
111
116.254
118.759
119.975
120.578
120.883
121.038
121.114
121.146
121.146
121.114
121.038
120.883
120.578
119.974
118.758
116.251
110.995
100.087
64.9657
72.7262
77.3282
79.8878
81.2738
82.0168
82.4135
82.6231
82.7292
82.7735
82.7735
82.7291
82.623
82.4133
82.0164
81.2728
79.8858
77.3245
72.72
64.9563
42.0374
47.0034
50.3578
52.443
53.6781
54.3889
54.7898
55.0107
55.126
55.1751
55.175
55.1259
55.0105
54.7894
54.3882
53.6768
52.4407
50.3541
46.9977
42.0293
27.1683
30.1643
32.3864
33.8927
34.8548
35.4448
35.7956
35.9972
36.1058
36.153
36.153
36.1057
35.997
35.7952
35.4441
34.8536
33.8907
32.3833
30.1597
27.1622
17.6482
19.3587
20.7352
21.7408
22.4276
22.8743
23.1536
23.3209
23.414
23.4553
23.4552
23.4139
23.3208
23.1533
22.8738
22.4267
21.7394
20.7329
19.3554
17.6437
11.6621
12.5675
13.3686
14.0007
14.4621
14.78
14.989
15.1195
15.1944
15.2284
15.2284
15.1944
15.1195
14.9889
14.7798
14.4616
13.9999
13.3671
12.5652
11.6586
8.01384
8.43431
8.86979
9.24951
9.54853
9.76783
9.91965
10.0186
10.0773
10.1044
10.1045
10.0774
10.0187
9.91973
9.76784
9.54837
9.24902
8.86876
8.43249
8.01087
5.94497
6.09381
6.31735
6.54472
6.74151
6.89607
7.0089
7.08556
7.13243
7.15453
7.15456
7.13253
7.08573
7.00911
6.89625
6.74156
6.54447
6.31657
6.09218
5.94203
5.01235
5.03982
5.16679
5.32311
5.47104
5.59389
5.68719
5.75245
5.79317
5.81262
5.81266
5.7933
5.75266
5.68746
5.59416
5.4712
5.32298
5.16611
5.0382
5.00926
154.614
165.41
168.847
170.12
170.654
170.897
171.015
171.072
171.1
171.112
171.112
171.1
171.072
171.014
170.897
170.653
170.119
168.844
165.406
154.607
100.098
111.002
116.255
118.76
119.976
120.579
120.883
121.038
121.114
121.146
121.145
121.114
121.037
120.882
120.577
119.974
118.757
116.25
110.994
100.086
64.9667
72.7272
77.3291
79.8886
81.2745
82.0174
82.4139
82.6234
82.7293
82.7735
82.7734
82.7289
82.6226
82.4128
82.0158
81.272
79.885
77.3236
72.719
64.9553
42.038
47.0041
50.3584
52.4435
53.6786
54.3893
54.7901
55.0109
55.126
55.1751
55.1749
55.1257
55.0102
54.7891
54.3878
53.6763
52.4402
50.3534
46.997
42.0287
27.1687
30.1647
32.3868
33.893
34.8551
35.445
35.7958
35.9973
36.1059
36.153
36.1529
36.1056
35.9968
35.795
35.4438
34.8533
33.8904
32.3829
30.1593
27.1617
17.6484
19.359
20.7354
21.741
22.4278
22.8744
23.1537
23.321
23.414
23.4552
23.4552
23.4138
23.3207
23.1531
22.8736
22.4265
21.7391
20.7327
19.3552
17.6434
11.6622
12.5677
13.3688
14.0009
14.4622
14.7801
14.989
15.1195
15.1944
15.2284
15.2283
15.1944
15.1194
14.9888
14.7797
14.4615
13.9997
13.3669
12.565
11.6584
8.01393
8.43441
8.86987
9.24959
9.54859
9.76787
9.91967
10.0186
10.0773
10.1044
10.1044
10.0773
10.0186
9.91966
9.76775
9.54826
9.24891
8.86865
8.43238
8.01074
5.94505
6.09389
6.31741
6.54477
6.74156
6.89611
7.00893
7.08558
7.13243
7.15452
7.15455
7.1325
7.0857
7.00907
6.8962
6.74149
6.5444
6.31651
6.09212
5.94194
5.01244
5.0399
5.16686
5.32318
5.4711
5.59395
5.68724
5.75249
5.7932
5.81264
5.81267
5.7933
5.75265
5.68745
5.59413
5.47116
5.32294
5.16607
5.03815
5.00918
154.614
165.41
168.847
170.12
170.654
170.897
171.015
171.072
171.1
171.112
171.112
171.1
171.072
171.014
170.897
170.653
170.119
168.844
165.406
154.607
100.098
111.002
116.255
118.76
119.976
120.579
120.883
121.038
121.114
121.146
121.145
121.114
121.037
120.882
120.577
119.974
118.757
116.25
110.994
100.086
64.9667
72.7272
77.3291
79.8886
81.2745
82.0174
82.4139
82.6233
82.7293
82.7735
82.7734
82.7289
82.6226
82.4128
82.0158
81.272
79.885
77.3236
72.719
64.9553
42.038
47.0041
50.3584
52.4435
53.6786
54.3893
54.7901
55.0109
55.126
55.175
55.1749
55.1256
55.0102
54.789
54.3877
53.6763
52.4401
50.3534
46.997
42.0287
27.1687
30.1647
32.3868
33.893
34.8551
35.445
35.7958
35.9973
36.1058
36.153
36.1529
36.1056
35.9968
35.795
35.4438
34.8532
33.8903
32.3829
30.1593
27.1617
17.6484
19.359
20.7354
21.741
22.4278
22.8744
23.1537
23.321
23.414
23.4552
23.4552
23.4138
23.3207
23.1531
22.8736
22.4265
21.7391
20.7327
19.3552
17.6434
11.6622
12.5677
13.3687
14.0008
14.4622
14.7801
14.989
15.1195
15.1944
15.2283
15.2283
15.1943
15.1194
14.9888
14.7797
14.4615
13.9997
13.3669
12.565
11.6584
8.01392
8.43439
8.86985
9.24957
9.54857
9.76786
9.91966
10.0186
10.0773
10.1044
10.1044
10.0773
10.0186
9.91965
9.76775
9.54826
9.24891
8.86866
8.43239
8.01075
5.94507
6.0939
6.31742
6.54479
6.74158
6.89614
7.00896
7.08561
7.13246
7.15456
7.15458
7.13254
7.08573
7.00909
6.89621
6.74151
6.54442
6.31652
6.09213
5.94194
5.01247
5.03992
5.16689
5.32322
5.47115
5.59399
5.68729
5.75254
5.79325
5.8127
5.81273
5.79335
5.7527
5.68748
5.59416
5.47118
5.32296
5.16608
5.03815
5.00917
154.613
165.409
168.846
170.119
170.653
170.897
171.014
171.072
171.1
171.112
171.112
171.1
171.072
171.015
170.897
170.653
170.12
168.845
165.407
154.608
100.096
111
116.254
118.759
119.975
120.578
120.883
121.038
121.114
121.146
121.146
121.114
121.038
120.883
120.578
119.974
118.758
116.251
110.995
100.087
64.9658
72.7262
77.3282
79.8878
81.2738
82.0168
82.4135
82.6231
82.7292
82.7735
82.7735
82.7291
82.623
82.4133
82.0164
81.2728
79.8858
77.3245
72.72
64.9563
42.0374
47.0034
50.3578
52.443
53.6781
54.3889
54.7898
55.0107
55.1259
55.1751
55.175
55.1258
55.0105
54.7894
54.3882
53.6768
52.4407
50.3541
46.9977
42.0293
27.1683
30.1643
32.3864
33.8927
34.8547
35.4448
35.7956
35.9972
36.1058
36.153
36.153
36.1057
35.997
35.7952
35.4441
34.8536
33.8907
32.3833
30.1597
27.1621
17.6482
19.3587
20.7351
21.7407
22.4276
22.8743
23.1535
23.3209
23.4139
23.4552
23.4552
23.4139
23.3208
23.1533
22.8738
22.4267
21.7393
20.7329
19.3554
17.6436
11.662
12.5675
13.3686
14.0007
14.462
14.78
14.9889
15.1194
15.1944
15.2283
15.2283
15.1944
15.1194
14.9888
14.7798
14.4616
13.9998
13.3671
12.5652
11.6586
8.0138
8.43429
8.86975
9.24948
9.54851
9.76781
9.91962
10.0186
10.0773
10.1044
10.1045
10.0774
10.0187
9.91973
9.76784
9.54836
9.24903
8.86878
8.43251
8.01086
5.945
6.09385
6.31738
6.54476
6.74156
6.89612
7.00896
7.08562
7.13249
7.1546
7.15464
7.13261
7.0858
7.00916
6.89629
6.74159
6.54451
6.31661
6.09221
5.94202
5.01242
5.03989
5.16686
5.32319
5.47113
5.59399
5.68729
5.75255
5.79328
5.81273
5.81277
5.7934
5.75275
5.68754
5.59421
5.47124
5.32302
5.16615
5.03822
5.00923
86.368
63.1869
46.3688
36.0007
31.6723
33.2318
41.1111
56.4211
80.7584
115.074
86.234
62.7478
45.5036
34.4707
29.0558
28.8066
33.6477
43.8279
59.5171
79.7288
86.1039
62.3222
44.6679
33.0024
26.5698
24.667
26.8394
32.8027
42.1291
53.6761
85.9855
61.9368
43.9178
31.7015
24.4073
21.1552
21.2553
24.1586
29.2664
35.6733
85.8842
61.609
43.2869
30.6249
22.656
18.3883
17.0027
17.8371
20.2794
23.648
85.8024
61.3459
42.7865
29.7855
21.3197
16.3323
13.9382
13.4345
14.2359
15.8074
85.7401
61.147
42.4123
29.1674
20.355
14.8819
11.8323
10.4915
10.3024
10.8152
85.6962
61.0077
42.1519
28.7422
19.7015
13.9179
10.4612
8.61579
7.84487
7.74514
85.6697
60.9221
41.9908
28.4803
19.3028
13.3369
9.64701
7.51858
6.42712
5.99316
85.6557
60.8836
41.9166
28.3581