/*--------------------------------*- C++ -*----------------------------------*\
| =========                 |                                                 |
| \\      /  F ield         | OpenFOAM: The Open Source CFD Toolbox           |
|  \\    /   O peration     | Version:  2.4.0                                 |
|   \\  /    A nd           | Web:      www.OpenFOAM.org                      |
|    \\/     M anipulation  |                                                 |
\*---------------------------------------------------------------------------*/
FoamFile
{
    version     2.0;
    format      ascii;
    class       volScalarField;
    location    "0.3";
    object      p;
}
// * * * * * * * * * * * * * * * * * * * * * * * * * * * * * * * * * * * * * //

dimensions      [0 2 -2 0 0 0 0];

internalField   nonuniform List<scalar> 
4800
(
1.58647e-08
-0.00088166
-0.00131256
-0.0011121
-0.000163506
0.00157287
0.0040913
0.00736564
0.011348
0.0159589
0.00088557
-1.70728e-07
-0.0002135
0.000199866
0.00127333
0.0030522
0.00554328
0.00872993
0.0125738
0.0170099
0.00131013
0.000200877
-9.48059e-06
0.000463545
0.0015808
0.00337839
0.00586396
0.00902653
0.0128374
0.0172434
0.0010557
-0.000274364
-0.000540352
-6.73155e-05
0.00105629
0.00285843
0.00534829
0.00852383
0.012371
0.0168545
-3.46382e-05
-0.00149872
-0.00181204
-0.00135702
-0.000246822
0.001546
0.00403953
0.00724939
0.011188
0.0158584
-0.00202619
-0.00354126
-0.00388621
-0.00346225
-0.00238849
-0.000630469
0.00184828
0.00509418
0.00916661
0.0141602
-0.00492056
-0.00641495
-0.00677717
-0.00640063
-0.00539821
-0.00372382
-0.00131375
0.00192421
0.0061244
0.0115953
-0.00868106
-0.010092
-0.0104617
-0.0101569
-0.00927845
-0.00776974
-0.00553606
-0.0024288
0.00178328
0.00787365
-0.0132342
-0.0145076
-0.0148805
-0.0146793
-0.0139931
-0.0127651
-0.010875
-0.00811372
-0.00415894
0.0027271
-0.018464
-0.0195589
-0.0199344
-0.0198704
-0.0194551
-0.0186634
-0.0174037
-0.0154864
-0.0127715
-0.0062805
-1.81133e-07
-0.000899383
-0.00133373
-0.00113634
-0.000189415
0.00154658
0.00406546
0.0073411
0.0113259
0.0159406
0.000902438
-1.03707e-06
-0.000199778
0.000218188
0.00129277
0.00307229
0.00556288
0.00874805
0.01259
0.0170242
0.00133117
0.000185908
-9.47551e-06
0.000464654
0.00158007
0.00337744
0.0058628
0.00902501
0.0128356
0.0172425
0.00108058
-0.000293771
-0.000540807
-6.65955e-05
0.00105436
0.00285592
0.00534534
0.00852025
0.0123665
0.0168508
-7.6148e-06
-0.0015193
-0.00181037
-0.0013533
-0.00024573
0.00154646
0.00403929
0.00724792
0.0111833
0.0158527
-0.00199874
-0.00356259
-0.00388419
-0.00345775
-0.00238641
-0.000628895
0.00184931
0.00509418
0.00916008
0.0141478
-0.00489374
-0.00643584
-0.00677496
-0.00639563
-0.00539515
-0.00372092
-0.00131076
0.0019281
0.00611612
0.0115667
-0.008656
-0.0101115
-0.0104594
-0.0101516
-0.00927442
-0.00776575
-0.00553202
-0.00242112
0.00176239
0.00777134
-0.0132123
-0.0145252
-0.0148785
-0.014674
-0.0139876
-0.0127578
-0.0108637
-0.00808032
-0.00415314
0.00250054
-0.0184466
-0.0195746
-0.0199339
-0.019867
-0.0194502
-0.0186533
-0.0173797
-0.0153857
-0.0125562
-0.00631194
-1.90754e-07
-0.000899393
-0.00133374
-0.00113635
-0.00018942
0.00154657
0.00406546
0.00734109
0.0113259
0.0159406
0.000902422
-1.05098e-06
-0.000199791
0.000218175
0.00129276
0.00307228
0.00556287
0.00874804
0.01259
0.0170242
0.00133115
0.000185895
-9.489e-06
0.000464642
0.00158006
0.00337743
0.00586279
0.00902501
0.0128356
0.0172425
0.00108056
-0.000293785
-0.000540822
-6.6609e-05
0.00105435
0.00285591
0.00534533
0.00852025
0.0123665
0.0168508
-7.63462e-06
-0.00151932
-0.00181039
-0.00135331
-0.000245742
0.00154645
0.00403928
0.00724791
0.0111833
0.0158527
-0.00199876
-0.00356261
-0.00388421
-0.00345776
-0.00238643
-0.000628907
0.0018493
0.00509417
0.00916008
0.0141478
-0.00489376
-0.00643586
-0.00677497
-0.00639564
-0.00539516
-0.00372093
-0.00131077
0.00192809
0.00611611
0.0115667
-0.00865602
-0.0101115
-0.0104594
-0.0101517
-0.00927443
-0.00776576
-0.00553203
-0.00242113
0.00176238
0.00777134
-0.0132123
-0.0145252
-0.0148785
-0.014674
-0.0139876
-0.0127578
-0.0108638
-0.00808033
-0.00415315
0.00250053
-0.0184466
-0.0195746
-0.0199339
-0.019867
-0.0194502
-0.0186533
-0.0173797
-0.0153858
-0.0125562
-0.00631195
-1.15424e-09
-0.000881676
-0.00131258
-0.00111211
-0.000163514
0.00157286
0.00409131
0.00736564
0.011348
0.0159589
0.000885527
-2.02992e-07
-0.000213528
0.000199846
0.00127331
0.00305218
0.00554327
0.00872992
0.0125738
0.0170099
0.00131008
0.000200839
-9.51393e-06
0.000463517
0.00158078
0.00337837
0.00586394
0.00902651
0.0128374
0.0172434
0.00105564
-0.000274409
-0.000540391
-6.73488e-05
0.00105627
0.0028584
0.00534826
0.00852381
0.012371
0.0168545
-3.46928e-05
-0.00149876
-0.00181208
-0.00135706
-0.000246853
0.00154597
0.0040395
0.00724937
0.0111879
0.0158583
-0.00202624
-0.0035413
-0.00388625
-0.00346229
-0.00238852
-0.000630498
0.00184825
0.00509416
0.00916659
0.0141602
-0.00492061
-0.00641499
-0.00677721
-0.00640066
-0.00539824
-0.00372385
-0.00131377
0.00192419
0.00612438
0.0115953
-0.00868111
-0.010092
-0.0104618
-0.010157
-0.00927848
-0.00776977
-0.00553609
-0.00242883
0.00178326
0.00787364
-0.0132343
-0.0145077
-0.0148805
-0.0146793
-0.0139931
-0.0127651
-0.010875
-0.00811375
-0.00415896
0.00272708
-0.018464
-0.0195589
-0.0199345
-0.0198705
-0.0194552
-0.0186634
-0.0174037
-0.0154864
-0.0127716
-0.00628052
0.0210822
0.0265794
0.0323243
0.0382204
0.0442013
0.0502263
0.0562728
0.0623305
0.0683966
0.0744731
0.0805654
0.0866811
0.0928301
0.0990198
0.10526
0.111551
0.117881
0.124216
0.130484
0.136573
0.0219414
0.0272483
0.0328223
0.0385773
0.0444491
0.0503939
0.0563836
0.0624017
0.0684399
0.0744952
0.0805685
0.0866631
0.0927827
0.0989326
0.105113
0.111317
0.117529
0.123709
0.129792
0.135677
0.0221526
0.027433
0.0329761
0.0386998
0.0445426
0.0504619
0.0564298
0.0624292
0.0684505
0.0744892
0.0805445
0.0866178
0.092711
0.0988268
0.104965
0.11112
0.117276
0.123402
0.129441
0.135303
0.0218796
0.0272622
0.03288
0.0386532
0.0445249
0.050458
0.0564293
0.0624249
0.0684371
0.0744621
0.0804991
0.0865488
0.0926133
0.0986949
0.104796
0.110915
0.117046
0.123172
0.129253
0.135216
0.0211655
0.0267887
0.0325822
0.0384765
0.0444251
0.0504025
0.0563959
0.0623986
0.0684072
0.0744205
0.0804387
0.0864627
0.0924948
0.0985384
0.104599
0.110684
0.116801
0.122954
0.129136
0.135312
0.0200152
0.0260609
0.0321376
0.0382177
0.04428
0.0503219
0.0563481
0.0623632
0.0683707
0.0743728
0.0803711
0.0863672
0.0923624
0.0983618
0.104373
0.110413
0.116508
0.122693
0.12901
0.135527
0.0184747
0.0251927
0.0316561
0.0379644
0.0441523
0.0502581
0.0563134
0.0623372
0.0683407
0.0743295
0.080306
0.0862708
0.0922252
0.0981715
0.104118
0.110088
0.116126
0.122309
0.128757
0.135762
0.0166913
0.0243923
0.0313026
0.0378332
0.0441166
0.0502562
0.0563186
0.0623373
0.068329
0.0743007
0.0802538
0.0861868
0.0920968
0.0979814
0.103846
0.10971
0.115635
0.12174
0.128234
0.135842
0.0157725
0.024517
0.0315326
0.0380511
0.0442827
0.050368
0.0563886
0.062377
0.068345
0.0742953
0.0802254
0.0861286
0.0919949
0.0978142
0.103578
0.109278
0.114964
0.120734
0.126763
0.1346
0.018672
0.0275722
0.0332701
0.0389986
0.0448011
0.0506527
0.0565476
0.0624676
0.0683966
0.0743221
0.0802322
0.0861126
0.0919432
0.0976912
0.103302
0.108721
0.113861
0.118574
0.122627
0.129171
0.0210688
0.0265702
0.0323184
0.0382168
0.0441992
0.0502251
0.0562721
0.0623301
0.0683963
0.0744729
0.0805652
0.0866809
0.0928299
0.0990196
0.10526
0.111551
0.117883
0.12422
0.130492
0.136585
0.0219546
0.0272596
0.0328314
0.0385842
0.0444542
0.0503975
0.0563861
0.0624034
0.068441
0.0744959
0.0805689
0.0866631
0.0927821
0.0989313
0.10511
0.111313
0.117523
0.1237
0.12978
0.135663
0.0221547
0.0274362
0.0329793
0.0387026
0.0445449
0.0504637
0.0564311
0.0624301
0.0684511
0.0744896
0.0805447
0.0866177
0.0927107
0.0988261
0.104964
0.111118
0.117273
0.123399
0.129437
0.1353
0.021882
0.0272661
0.0328835
0.0386562
0.0445272
0.0504597
0.0564304
0.0624257
0.0684376
0.0744624
0.0804992
0.0865487
0.092613
0.0986944
0.104795
0.110913
0.117044
0.123169
0.129248
0.135212
0.0211724
0.026796
0.0325876
0.0384805
0.0444278
0.0504042
0.056397
0.0623992
0.0684076
0.0744207
0.0804387
0.0864627
0.0924946
0.098538
0.104598
0.110682
0.116798
0.12295
0.129128
0.135303
0.0200319
0.0260736
0.0321445
0.0382222
0.0442826
0.0503233
0.0563488
0.0623635
0.0683708
0.0743728
0.0803711
0.0863671
0.0923624
0.0983617
0.104373
0.110412
0.116506
0.122689
0.128998
0.135507
0.0185209
0.0252199
0.0316671
0.0379703
0.0441549
0.050259
0.0563136
0.0623372
0.0683406
0.0743294
0.0803059
0.0862708
0.0922253
0.0981715
0.104118
0.110087
0.116124
0.122303
0.128731
0.135708
0.0167727
0.0244213
0.031307
0.0378356
0.0441168
0.0502555
0.0563179
0.0623368
0.0683286
0.0743004
0.0802536
0.0861867
0.0920968
0.0979816
0.103846
0.109709
0.115634
0.121741
0.128209
0.135752
0.0158818
0.0244787
0.0314901
0.0380349
0.0442746
0.0503632
0.056386
0.0623754
0.0683439
0.0742946
0.0802248
0.0861282
0.0919949
0.0978148
0.103581
0.109282
0.114978
0.120782
0.126815
0.134484
0.019216
0.0276409
0.0332698
0.0390114
0.0448092
0.0506561
0.0565493
0.0624686
0.0683971
0.0743224
0.0802323
0.0861125
0.0919428
0.0976905
0.103301
0.108716
0.113851
0.118584
0.122578
0.128567
0.0210688
0.0265702
0.0323184
0.0382168
0.0441992
0.0502251
0.0562721
0.0623301
0.0683963
0.0744729
0.0805652
0.0866809
0.0928299
0.0990196
0.10526
0.111551
0.117883
0.12422
0.130492
0.136585
0.0219546
0.0272596
0.0328314
0.0385842
0.0444542
0.0503975
0.0563861
0.0624034
0.068441
0.0744959
0.0805689
0.0866631
0.0927821
0.0989313
0.10511
0.111313
0.117523
0.1237
0.12978
0.135663
0.0221547
0.0274362
0.0329793
0.0387026
0.0445449
0.0504637
0.0564311
0.0624301
0.0684511
0.0744896
0.0805447
0.0866177
0.0927107
0.0988261
0.104964
0.111118
0.117273
0.123399
0.129437
0.1353
0.021882
0.0272661
0.0328835
0.0386562
0.0445272
0.0504597
0.0564304
0.0624257
0.0684376
0.0744624
0.0804992
0.0865487
0.092613
0.0986944
0.104795
0.110913
0.117044
0.123169
0.129248
0.135212
0.0211724
0.026796
0.0325876
0.0384805
0.0444278
0.0504042
0.056397
0.0623992
0.0684076
0.0744207
0.0804387
0.0864627
0.0924946
0.098538
0.104598
0.110682
0.116798
0.12295
0.129128
0.135303
0.0200319
0.0260736
0.0321445
0.0382222
0.0442826
0.0503233
0.0563488
0.0623635
0.0683708
0.0743728
0.0803711
0.0863671
0.0923624
0.0983617
0.104373
0.110412
0.116506
0.122689
0.128998
0.135507
0.0185209
0.0252199
0.0316671
0.0379703
0.0441549
0.050259
0.0563136
0.0623372
0.0683406
0.0743294
0.0803059
0.0862708
0.0922253
0.0981715
0.104118
0.110087
0.116124
0.122303
0.128731
0.135708
0.0167727
0.0244213
0.031307
0.0378356
0.0441168
0.0502555
0.0563179
0.0623368
0.0683286
0.0743004
0.0802536
0.0861867
0.0920968
0.0979816
0.103846
0.109709
0.115634
0.121741
0.128209
0.135752
0.0158818
0.0244787
0.0314901
0.0380349
0.0442746
0.0503632
0.056386
0.0623754
0.0683439
0.0742946
0.0802248
0.0861282
0.0919949
0.0978148
0.103581
0.109282
0.114978
0.120782
0.126815
0.134484
0.019216
0.0276409
0.0332698
0.0390114
0.0448092
0.0506561
0.0565493
0.0624686
0.0683972
0.0743224
0.0802323
0.0861125
0.0919428
0.0976905
0.103301
0.108716
0.113851
0.118584
0.122578
0.128567
0.0210822
0.0265794
0.0323243
0.0382204
0.0442013
0.0502263
0.0562728
0.0623305
0.0683966
0.0744731
0.0805654
0.0866811
0.0928301
0.0990198
0.10526
0.111551
0.117881
0.124216
0.130484
0.136573
0.0219414
0.0272483
0.0328223
0.0385773
0.0444491
0.0503939
0.0563836
0.0624017
0.0684399
0.0744952
0.0805685
0.0866631
0.0927827
0.0989326
0.105113
0.111317
0.117529
0.123709
0.129792
0.135677
0.0221526
0.027433
0.0329761
0.0386998
0.0445426
0.0504619
0.0564298
0.0624292
0.0684505
0.0744892
0.0805445
0.0866178
0.092711
0.0988268
0.104965
0.11112
0.117276
0.123402
0.129441
0.135303
0.0218796
0.0272622
0.0328799
0.0386532
0.0445249
0.050458
0.0564293
0.0624249
0.0684371
0.0744621
0.0804991
0.0865488
0.0926133
0.0986949
0.104796
0.110915
0.117046
0.123172
0.129253
0.135216
0.0211655
0.0267887
0.0325822
0.0384765
0.044425
0.0504025
0.0563959
0.0623986
0.0684072
0.0744205
0.0804387
0.0864627
0.0924948
0.0985384
0.104599
0.110684
0.116801
0.122954
0.129136
0.135312
0.0200152
0.0260609
0.0321376
0.0382177
0.04428
0.0503219
0.0563481
0.0623632
0.0683707
0.0743728
0.0803711
0.0863672
0.0923624
0.0983618
0.104374
0.110413
0.116508
0.122693
0.12901
0.135527
0.0184747
0.0251927
0.0316561
0.0379644
0.0441523
0.0502581
0.0563134
0.0623372
0.0683407
0.0743295
0.080306
0.0862708
0.0922252
0.0981715
0.104118
0.110088
0.116127
0.122309
0.128757
0.135762
0.0166913
0.0243923
0.0313025
0.0378332
0.0441166
0.0502562
0.0563186
0.0623373
0.068329
0.0743007
0.0802538
0.0861868
0.0920968
0.0979814
0.103846
0.10971
0.115635
0.12174
0.128235
0.135842
0.0157725
0.024517
0.0315326
0.0380511
0.0442827
0.050368
0.0563887
0.062377
0.068345
0.0742953
0.0802254
0.0861286
0.0919949
0.0978142
0.103578
0.109278
0.114964
0.120734
0.126763
0.1346
0.018672
0.0275722
0.0332701
0.0389986
0.0448011
0.0506527
0.0565476
0.0624676
0.0683966
0.0743221
0.0802322
0.0861126
0.0919432
0.0976912
0.103302
0.108721
0.113861
0.118574
0.122627
0.129171
0.142322
0.147553
0.152107
0.155868
0.158762
0.160753
0.161843
0.162098
0.161673
0.160788
0.141226
0.146279
0.150695
0.154373
0.157246
0.159289
0.160513
0.160988
0.160787
0.159906
0.140851
0.145906
0.150325
0.15401
0.156901
0.158976
0.160247
0.160778
0.160574
0.159475
0.140916
0.146108
0.15063
0.154387
0.157325
0.15943
0.16072
0.161251
0.160987
0.159676
0.141332
0.146795
0.151509
0.15539
0.158399
0.160541
0.161844
0.162368
0.162061
0.160624
0.142125
0.148023
0.153019
0.157065
0.160157
0.162333
0.163645
0.164165
0.163839
0.162361
0.143386
0.149915
0.155253
0.159475
0.162636
0.164827
0.166135
0.16665
0.16633
0.164879
0.145304
0.152677
0.158362
0.162714
0.165883
0.168036
0.16931
0.169812
0.169515
0.168152
0.148019
0.156633
0.162575
0.166915
0.169955
0.171975
0.173156
0.173621
0.173357
0.172133
0.154509
0.16352
0.168667
0.172388
0.17495
0.176644
0.177637
0.178024
0.17779
0.176741
0.14234
0.147575
0.152132
0.155894
0.158789
0.16078
0.161868
0.162119
0.16169
0.160787
0.141211
0.146261
0.150676
0.154352
0.157225
0.159268
0.160494
0.160973
0.160787
0.159888
0.140851
0.145908
0.150328
0.154013
0.156903
0.158977
0.160247
0.160778
0.160588
0.159454
0.140919
0.146113
0.150636
0.154392
0.15733
0.159434
0.160721
0.161252
0.161006
0.159652
0.141337
0.1468
0.151513
0.155393
0.158401
0.160542
0.161842
0.162367
0.16208
0.160598
0.142135
0.148031
0.153023
0.157067
0.160159
0.162334
0.163643
0.164164
0.163859
0.162334
0.14341
0.149926
0.155257
0.159478
0.162637
0.164827
0.166132
0.166649
0.166349
0.164853
0.145405
0.152711
0.158369
0.162718
0.165883
0.168035
0.169306
0.16981
0.169533
0.168128
0.148235
0.156639
0.162554
0.166907
0.169949
0.17197
0.173151
0.173619
0.173373
0.172111
0.154478
0.163294
0.168565
0.172359
0.174937
0.176639
0.177634
0.178023
0.177804
0.176723
0.14234
0.147575
0.152132
0.155894
0.158789
0.16078
0.161868
0.162119
0.16169
0.160787
0.141211
0.146261
0.150676
0.154352
0.157225
0.159268
0.160494
0.160973
0.160787
0.159888
0.140851
0.145908
0.150328
0.154013
0.156903
0.158977
0.160247
0.160778
0.160588
0.159454
0.140919
0.146113
0.150636
0.154392
0.15733
0.159434
0.160721
0.161252
0.161006
0.159651
0.141337
0.1468
0.151513
0.155393
0.158401
0.160542
0.161842
0.162367
0.16208
0.160598
0.142135
0.148031
0.153023
0.157067
0.160159
0.162334
0.163643
0.164164
0.163859
0.162334
0.14341
0.149926
0.155257
0.159478
0.162637
0.164827
0.166132
0.166649
0.166349
0.164853
0.145405
0.152711
0.158369
0.162718
0.165883
0.168035
0.169306
0.16981
0.169533
0.168128
0.148235
0.156639
0.162554
0.166907
0.169949
0.17197
0.173151
0.173619
0.173373
0.172111
0.154478
0.163294
0.168565
0.172359
0.174937
0.176639
0.177634
0.178023
0.177804
0.176723
0.142322
0.147553
0.152107
0.155868
0.158762
0.160753
0.161843
0.162098
0.161673
0.160788
0.141226
0.146279
0.150695
0.154373
0.157246
0.159289
0.160513
0.160988
0.160787
0.159906
0.140851
0.145906
0.150325
0.15401
0.156901
0.158976
0.160247
0.160778
0.160574
0.159475
0.140916
0.146108
0.15063
0.154387
0.157325
0.15943
0.16072
0.161251
0.160987
0.159676
0.141332
0.146795
0.151509
0.15539
0.158399
0.160541
0.161844
0.162368
0.162061
0.160624
0.142125
0.148023
0.153019
0.157065
0.160157
0.162333
0.163645
0.164165
0.163839
0.162361
0.143386
0.149915
0.155253
0.159475
0.162636
0.164827
0.166135
0.16665
0.16633
0.164879
0.145304
0.152677
0.158362
0.162714
0.165883
0.168036
0.16931
0.169812
0.169515
0.168152
0.148019
0.156633
0.162575
0.166915
0.169955
0.171975
0.173156
0.173621
0.173357
0.172133
0.154509
0.16352
0.168667
0.172388
0.17495
0.176644
0.177637
0.178024
0.17779
0.176741
0.179463
0.176569
0.177489
0.17927
0.180805
0.18195
0.182659
0.182929
0.182717
0.181861
0.188372
0.185322
0.185196
0.185992
0.186853
0.187572
0.188038
0.188203
0.188016
0.187351
0.194082
0.192349
0.192117
0.192462
0.192932
0.193363
0.193649
0.193736
0.193578
0.193085
0.199827
0.198886
0.198663
0.19878
0.199015
0.199254
0.199412
0.199444
0.199316
0.198964
0.205656
0.205145
0.204969
0.204983
0.205083
0.205197
0.205269
0.205265
0.205161
0.204919
0.211548
0.21127
0.211142
0.211111
0.211132
0.211167
0.21118
0.211151
0.211066
0.210904
0.217503
0.21735
0.217252
0.217197
0.217169
0.217149
0.21712
0.217071
0.216998
0.216891
0.223513
0.223423
0.22334
0.223265
0.223199
0.223136
0.223071
0.223003
0.222932
0.22286
0.229574
0.229515
0.22943
0.229331
0.229227
0.229123
0.229021
0.228928
0.228852
0.228795
0.235693
0.235641
0.235538
0.235404
0.235256
0.235105
0.234961
0.234834
0.234739
0.234686
0.241886
0.241817
0.241678
0.241495
0.241289
0.24108
0.240881
0.240709
0.24058
0.240511
0.248176
0.248062
0.247862
0.247607
0.247327
0.247044
0.246776
0.246543
0.246362
0.24625
0.254605
0.254392
0.254096
0.253743
0.253368
0.252995
0.252642
0.252328
0.252072
0.251878
0.261229
0.260824
0.260379
0.259895
0.259405
0.25893
0.258477
0.258061
0.257696
0.257369
0.268124
0.267372
0.266694
0.266042
0.265424
0.264844
0.264286
0.263751
0.263236
0.262695
0.275427
0.274014
0.272978
0.272127
0.271393
0.270735
0.270091
0.269428
0.268711
0.267835
0.283272
0.280609
0.279057
0.278021
0.277244
0.276597
0.275932
0.275158
0.274181
0.272793
0.29159
0.286725
0.284544
0.283479
0.282858
0.282421
0.281886
0.281069
0.279772
0.277619
0.300798
0.291943
0.288876
0.288101
0.28803
0.28818
0.288072
0.287375
0.28572
0.282454
0.313481
0.295146
0.290468
0.290853
0.292251
0.293744
0.294633
0.294406
0.292426
0.287596
0.180007
0.176679
0.17757
0.179316
0.180822
0.181957
0.182662
0.182931
0.18273
0.181847
0.188441
0.185284
0.185225
0.186019
0.186865
0.187579
0.188041
0.188206
0.188027
0.187342
0.194081
0.192307
0.192121
0.192473
0.192939
0.193368
0.193652
0.193739
0.193587
0.193079
0.19984
0.19887
0.198665
0.198786
0.19902
0.199258
0.199415
0.199447
0.199322
0.198961
0.205664
0.205137
0.204969
0.204986
0.205085
0.2052
0.205271
0.205267
0.205165
0.204917
0.211551
0.211266
0.211141
0.211112
0.211133
0.211169
0.211182
0.211153
0.211069
0.210903
0.217505
0.217348
0.217252
0.217198
0.21717
0.21715
0.217121
0.217072
0.217
0.216891
0.223514
0.223423
0.22334
0.223265
0.223199
0.223137
0.223072
0.223003
0.222934
0.22286
0.229574
0.229515
0.22943
0.229331
0.229227
0.229123
0.229022
0.228929
0.228853
0.228795
0.235693
0.235641
0.235538
0.235404
0.235256
0.235105
0.234961
0.234835
0.234739
0.234686
0.241886
0.241817
0.241678
0.241494
0.241289
0.24108
0.240881
0.240709
0.240581
0.240511
0.248176
0.248061
0.247861
0.247606
0.247327
0.247044
0.246777
0.246543
0.246364
0.24625
0.254605
0.254391
0.254095
0.253742
0.253367
0.252996
0.252643
0.252329
0.252074
0.251878
0.26123
0.26082
0.260377
0.259894
0.259404
0.25893
0.258478
0.258063
0.257701
0.257369
0.268127
0.267362
0.26669
0.26604
0.265423
0.264845
0.264289
0.263755
0.263244
0.262694
0.275438
0.273992
0.272972
0.272125
0.271392
0.270737
0.270095
0.269434
0.268726
0.267832
0.283313
0.280575
0.279052
0.278021
0.277244
0.276601
0.275938
0.275167
0.274205
0.272785
0.291661
0.286629
0.284527
0.283478
0.282856
0.282426
0.281893
0.281082
0.279811
0.277604
0.30086
0.291699
0.288857
0.288122
0.288038
0.28819
0.288082
0.287393
0.285781
0.282428
0.314416
0.295164
0.290651
0.290975
0.292293
0.293764
0.294645
0.29443
0.292518
0.287552
0.180007
0.176679
0.17757
0.179316
0.180822
0.181957
0.182662
0.182931
0.18273
0.181847
0.188441
0.185284
0.185225
0.186019
0.186865
0.187579
0.188041
0.188206
0.188027
0.187342
0.194081
0.192307
0.192121
0.192473
0.192939
0.193368
0.193652
0.193739
0.193587
0.193079
0.19984
0.19887
0.198665
0.198786
0.19902
0.199258
0.199415
0.199447
0.199322
0.198961
0.205664
0.205137
0.204969
0.204986
0.205085
0.2052
0.205271
0.205267
0.205165
0.204917
0.211551
0.211266
0.211141
0.211112
0.211133
0.211169
0.211182
0.211153
0.211069
0.210903
0.217505
0.217348
0.217252
0.217198
0.21717
0.21715
0.217121
0.217072
0.217
0.216891
0.223514
0.223423
0.22334
0.223265
0.223199
0.223137
0.223072
0.223003
0.222934
0.22286
0.229574
0.229515
0.22943
0.229331
0.229227
0.229123
0.229022
0.228929
0.228853
0.228795
0.235693
0.235641
0.235538
0.235404
0.235256
0.235105
0.234961
0.234835
0.234739
0.234686
0.241886
0.241817
0.241678
0.241494
0.241289
0.24108
0.240881
0.240709
0.240581
0.240511
0.248176
0.248061
0.247861
0.247606
0.247327
0.247044
0.246777
0.246543
0.246363
0.24625
0.254605
0.25439
0.254095
0.253742
0.253367
0.252996
0.252643
0.252329
0.252074
0.251878
0.26123
0.26082
0.260377
0.259894
0.259404
0.25893
0.258478
0.258063
0.257701
0.257369
0.268127
0.267362
0.26669
0.266039
0.265423
0.264845
0.264289
0.263755
0.263244
0.262694
0.275438
0.273992
0.272972
0.272124
0.271392
0.270737
0.270095
0.269434
0.268726
0.267832
0.283313
0.280575
0.279051
0.278021
0.277244
0.276601
0.275938
0.275167
0.274205
0.272785
0.291661
0.286629
0.284527
0.283478
0.282856
0.282426
0.281893
0.281082
0.279811
0.277604
0.30086
0.291699
0.288857
0.288122
0.288038
0.28819
0.288082
0.287393
0.285781
0.282428
0.314416
0.295164
0.290651
0.290975
0.292293
0.293764
0.294645
0.29443
0.292518
0.287552
0.179463
0.176569
0.177489
0.17927
0.180805
0.18195
0.182659
0.182929
0.182717
0.181861
0.188372
0.185322
0.185196
0.185992
0.186853
0.187572
0.188038
0.188203
0.188016
0.187351
0.194082
0.192349
0.192117
0.192462
0.192932
0.193363
0.193649
0.193736
0.193578
0.193085
0.199827
0.198886
0.198663
0.19878
0.199015
0.199254
0.199412
0.199444
0.199316
0.198964
0.205656
0.205145
0.204969
0.204983
0.205083
0.205197
0.205269
0.205265
0.205161
0.204919
0.211548
0.21127
0.211142
0.211111
0.211132
0.211167
0.21118
0.211151
0.211066
0.210904
0.217503
0.21735
0.217252
0.217197
0.217169
0.217149
0.21712
0.217071
0.216998
0.216891
0.223513
0.223423
0.22334
0.223265
0.223199
0.223136
0.223071
0.223003
0.222932
0.22286
0.229574
0.229515
0.22943
0.229331
0.229227
0.229123
0.229021
0.228928
0.228852
0.228795
0.235693
0.235641
0.235538
0.235404
0.235256
0.235105
0.234961
0.234834
0.234739
0.234686
0.241886
0.241817
0.241678
0.241495
0.241289
0.24108
0.240881
0.240709
0.24058
0.240511
0.248176
0.248062
0.247862
0.247607
0.247327
0.247044
0.246776
0.246543
0.246362
0.24625
0.254605
0.254392
0.254096
0.253743
0.253368
0.252995
0.252642
0.252328
0.252072
0.251878
0.261229
0.260824
0.260379
0.259895
0.259405
0.25893
0.258477
0.258061
0.257696
0.257369
0.268124
0.267372
0.266694
0.266042
0.265424
0.264844
0.264286
0.263751
0.263236
0.262695
0.275427
0.274014
0.272978
0.272127
0.271393
0.270735
0.270091
0.269428
0.268711
0.267835
0.283272
0.280609
0.279057
0.278021
0.277244
0.276597
0.275932
0.275158
0.274181
0.272793
0.29159
0.286725
0.284544
0.283479
0.282857
0.282421
0.281886
0.281068
0.279772
0.277619
0.300798
0.291943
0.288876
0.288101
0.28803
0.28818
0.288072
0.287375
0.28572
0.282454
0.313481
0.295146
0.290468
0.290853
0.292251
0.293744
0.294633
0.294406
0.292426
0.287596
0.270221
0.277485
0.284024
0.289771
0.294739
0.298917
0.30176
0.302652
0.300542
0.293607
0.250174
0.265457
0.277284
0.287333
0.29623
0.303957
0.309818
0.312819
0.311081
0.3015
0.239366
0.256064
0.27049
0.283875
0.296699
0.308759
0.319005
0.325723
0.32551
0.31306
0.230938
0.247568
0.26336
0.279272
0.295857
0.312972
0.329338
0.342277
0.345943
0.331511
0.223929
0.23995
0.256209
0.273812
0.293741
0.316406
0.340845
0.363585
0.375486
0.362766
0.21838
0.23368
0.249931
0.268596
0.291361
0.319768
0.354173
0.391319
0.418767
0.417
0.214681
0.229588
0.245956
0.265635
0.291134
0.325553
0.371718
0.428526
0.482223
0.509662
0.213021
0.228142
0.245226
0.266552
0.295513
0.336955
0.397085
0.479097
0.573429
0.670411
0.21286
0.228427
0.246346
0.269264
0.301457
0.349792
0.424851
0.537796
0.699414
0.976522
0.213059
0.228362
0.245711
0.26763
0.298499
0.346314
0.42686
0.570254
0.849456
1.46265
0.270461
0.277117
0.283918
0.289747
0.294722
0.298911
0.301758
0.302675
0.300677
0.293536
0.250456
0.265401
0.277239
0.287304
0.296204
0.30394
0.309801
0.312843
0.311278
0.301395
0.239545
0.256081
0.270481
0.283858
0.296675
0.308733
0.31897
0.325744
0.325794
0.312914
0.231013
0.247581
0.263357
0.279257
0.29583
0.312935
0.329274
0.342288
0.346327
0.331316
0.223963
0.239959
0.256205
0.273794
0.293707
0.316348
0.340741
0.363575
0.375951
0.362535
0.218396
0.233678
0.249912
0.268557
0.291294
0.319648
0.353979
0.39124
0.419234
0.416939
0.214689
0.229576
0.245917
0.265558
0.290992
0.325279
0.371284
0.428201
0.48237
0.510103
0.213046
0.228163
0.245238
0.26654
0.295431
0.336692
0.396583
0.478562
0.572262
0.670019
0.212912
0.228516
0.246494
0.269498
0.3018
0.350216
0.425388
0.538167
0.696106
0.974011
0.213103
0.228416
0.245772
0.267702
0.298598
0.346476
0.427307
0.570808
0.845881
1.47186
0.270461
0.277117
0.283918
0.289747
0.294722
0.298911
0.301758
0.302675
0.300677
0.293536
0.250456
0.265401
0.277239
0.287304
0.296204
0.30394
0.309801
0.312843
0.311278
0.301395
0.239545
0.256081
0.270481
0.283858
0.296675
0.308733
0.31897
0.325744
0.325794
0.312914
0.231013
0.247582
0.263357
0.279257
0.29583
0.312935
0.329274
0.342288
0.346327
0.331316
0.223963
0.239959
0.256205
0.273794
0.293707
0.316348
0.340741
0.363576
0.375951
0.362535
0.218396
0.233678
0.249913
0.268557
0.291294
0.319648
0.353979
0.39124
0.419234
0.416939
0.214689
0.229576
0.245917
0.265558
0.290992
0.325279
0.371284
0.428201
0.48237
0.510104
0.213046
0.228163
0.245238
0.26654
0.295431
0.336692
0.396583
0.478562
0.572262
0.67002
0.212912
0.228516
0.246494
0.269498
0.3018
0.350216
0.425388
0.538167
0.696106
0.974011
0.213103
0.228416
0.245772
0.267702
0.298598
0.346476
0.427307
0.570808
0.845881
1.47186
0.270221
0.277485
0.284023
0.289771
0.294739
0.298917
0.30176
0.302652
0.300542
0.293607
0.250174
0.265457
0.277284
0.287333
0.296229
0.303957
0.309818
0.312819
0.311081
0.3015
0.239366
0.256064
0.27049
0.283875
0.296699
0.308759
0.319005
0.325723
0.32551
0.31306
0.230938
0.247568
0.263361
0.279272
0.295857
0.312972
0.329338
0.342278
0.345943
0.331511
0.223929
0.23995
0.256209
0.273812
0.293741
0.316406
0.340845
0.363586
0.375486
0.362766
0.21838
0.23368
0.249931
0.268596
0.291361
0.319768
0.354174
0.391319
0.418767
0.417
0.214681
0.229588
0.245956
0.265635
0.291135
0.325553
0.371718
0.428526
0.482223
0.509663
0.213021
0.228143
0.245226
0.266552
0.295513
0.336955
0.397085
0.479097
0.573429
0.670411
0.21286
0.228427
0.246346
0.269264
0.301457
0.349793
0.424851
0.537796
0.699415
0.976522
0.213059
0.228362
0.245711
0.26763
0.298499
0.346314
0.42686
0.570254
0.849456
1.46265
-0.130081
-0.109407
-0.0918049
-0.0750055
-0.0580515
-0.0408702
-0.0234941
-0.00596526
0.0116744
0.0293908
0.0471589
0.0649634
0.0828001
0.100682
0.118658
0.136852
0.155528
0.175244
0.198101
0.230532
-0.121953
-0.106501
-0.0906481
-0.0743537
-0.057606
-0.0405423
-0.0232444
-0.00576964
0.0118352
0.0295349
0.0473056
0.0651357
0.0830287
0.101011
0.119147
0.137572
0.156517
0.176333
0.197975
0.223609
-0.120122
-0.105877
-0.0904927
-0.0743358
-0.0576435
-0.0405908
-0.0232828
-0.00579085
0.0118336
0.0295539
0.0473461
0.0651978
0.0831104
0.101104
0.119226
0.137571
0.156289
0.175581
0.195839
0.217635
-0.121393
-0.106891
-0.0913029
-0.0749763
-0.0581448
-0.040971
-0.0235605
-0.00598454
0.0117076
0.0294817
0.0473146
0.0651925
0.0831103
0.101073
0.119099
0.137226
0.155511
0.174022
0.192871
0.212123
-0.124481
-0.10912
-0.0929246
-0.0761604
-0.0590088
-0.0415962
-0.0240062
-0.00629473
0.0114996
0.0293498
0.047236
0.065143
0.0830577
0.100968
0.118859
0.136714
0.154507
0.172198
0.189748
0.207096
-0.128218
-0.1118
-0.0948407
-0.0775269
-0.0599818
-0.0422859
-0.0244907
-0.00662978
0.0112734
0.0292013
0.0471383
0.0650678
0.0829688
0.100812
0.118553
0.13613
0.153456
0.170424
0.186929
0.20291
-0.131123
-0.113851
-0.0962812
-0.0785366
-0.0606885
-0.042779
-0.0248325
-0.00686393
0.0111153
0.0290945
0.0470605
0.0649942
0.0828673
0.100636
0.118236
0.135575
0.152534
0.168978
0.184792
0.199961
-0.131897
-0.114337
-0.0965928
-0.078739
-0.0608213
-0.0428663
-0.0248891
-0.00690008
0.0110916
0.0290752
0.0470354
0.064949
0.0827806
0.100477
0.117962
0.135133
0.151863
0.168023
0.183526
0.19842
-0.129956
-0.112924
-0.0955855
-0.0780285
-0.0603224
-0.0425155
-0.0246417
-0.00672513
0.0112144
0.0291582
0.0470842
0.0649632
0.0827543
0.100399
0.117817
0.134906
0.151544
0.167621
0.183082
0.198029
-0.125044
-0.109569
-0.0933021
-0.0764727
-0.0592567
-0.0417798
-0.0241286
-0.00636307
0.0114739
0.0293484
0.0472288
0.0650799
0.082857
0.1005
0.117929
0.135041
0.151716
0.167841
0.18335
0.198312
-0.130166
-0.109275
-0.0917897
-0.0750147
-0.0580556
-0.0408729
-0.0234964
-0.00596706
0.011673
0.0293896
0.0471578
0.0649621
0.0827982
0.100679
0.118652
0.136842
0.155521
0.17522
0.197878
0.230158
-0.121913
-0.1064
-0.0906153
-0.0743381
-0.0575924
-0.0405322
-0.0232368
-0.00576387
0.0118397
0.0295386
0.0473091
0.0651395
0.0830336
0.101018
0.119157
0.137586
0.156543
0.176354
0.197864
0.223407
-0.120141
-0.105847
-0.0904736
-0.0743224
-0.0576333
-0.0405839
-0.0232781
-0.00578752
0.011836
0.0295557
0.0473475
0.065199
0.0831115
0.101104
0.119225
0.137568
0.156285
0.175566
0.195771
0.217578
-0.121403
-0.106876
-0.0912884
-0.0749651
-0.0581364
-0.0409652
-0.0235566
-0.00598186
0.0117094
0.0294829
0.0473155
0.0651931
0.0831105
0.101072
0.119097