/*--------------------------------*- C++ -*----------------------------------*\
| =========                 |                                                 |
| \\      /  F ield         | OpenFOAM: The Open Source CFD Toolbox           |
|  \\    /   O peration     | Version:  2.4.0                                 |
|   \\  /    A nd           | Web:      www.OpenFOAM.org                      |
|    \\/     M anipulation  |                                                 |
\*---------------------------------------------------------------------------*/
FoamFile
{
    version     2.0;
    format      ascii;
    class       surfaceScalarField;
    location    "0.3";
    object      phi;
}
// * * * * * * * * * * * * * * * * * * * * * * * * * * * * * * * * * * * * * //

dimensions      [0 3 -1 0 0 0 0];

internalField   nonuniform List<scalar> 
12720
(
-9.42165e-08
9.41947e-08
1.80266e-11
-7.53164e-07
6.57488e-07
1.45852e-09
-1.83123e-06
1.07632e-06
1.74228e-09
-3.13894e-06
1.30571e-06
1.99495e-09
-4.55051e-06
1.40944e-06
2.1321e-09
-5.98569e-06
1.43302e-06
2.16347e-09
-7.38641e-06
1.39859e-06
2.12714e-09
-8.70021e-06
1.31178e-06
2.02019e-09
-9.87463e-06
1.17261e-06
1.81894e-09
9.87392e-07
1.50259e-09
-1.08635e-05
-6.67457e-07
7.6304e-07
-1.38809e-09
-2.42671e-06
2.41665e-06
9.03413e-11
-4.93908e-06
3.58988e-06
-1.19211e-09
-7.91058e-06
4.27881e-06
-1.59161e-09
-1.11159e-05
4.61644e-06
-1.68887e-09
-1.4389e-05
4.70791e-06
-1.74538e-09
-1.75958e-05
4.6071e-06
-1.7021e-09
-2.06107e-05
4.32821e-06
-1.5744e-09
-2.33104e-05
3.87368e-06
-1.40113e-09
3.26762e-06
-1.24608e-09
-2.55894e-05
-1.11011e-06
1.87488e-06
-1.73185e-09
-3.65911e-06
4.96435e-06
1.30033e-09
-7.14179e-06
7.07256e-06
-4.41455e-13
-1.11972e-05
8.3343e-06
-9.64106e-11
-1.55593e-05
8.97848e-06
6.3607e-11
-2.00254e-05
9.1739e-06
8.29098e-11
-2.44187e-05
9.00033e-06
1.00677e-10
-2.85605e-05
8.46987e-06
1.31476e-10
-3.22646e-05
7.57768e-06
1.54012e-10
6.3673e-06
7.63021e-11
-3.53644e-05
-1.3661e-06
3.24303e-06
-2.04741e-09
-4.41695e-06
8.01352e-06
1.68587e-09
-8.51903e-06
1.11746e-05
3.95009e-11
-1.32655e-05
1.30808e-05
-6.25471e-11
-1.83761e-05
1.40889e-05
1.67998e-10
-2.36377e-05
1.44352e-05
2.17589e-10
-2.88501e-05
1.42125e-05
2.55737e-10
-3.37876e-05
1.3407e-05
3.1094e-10
-3.81899e-05
1.19796e-05
3.94435e-10
9.9796e-06
3.18727e-10
-4.18026e-05
-1.48962e-06
4.73488e-06
-2.22386e-09
-4.80909e-06
1.13312e-05
1.7883e-09
-9.25973e-06
1.56254e-05
-1.44913e-10
-1.44161e-05
1.82375e-05
-3.23218e-10
-2.00035e-05
1.96764e-05
-9.48533e-11
-2.58156e-05
2.02474e-05
-3.96439e-11
-3.16412e-05
2.00381e-05
2.07639e-11
-3.72056e-05
1.89714e-05
1.28193e-10
-4.21493e-05
1.69229e-05
4.03335e-10
1.39043e-05
4.87701e-10
-4.60745e-05
-1.52174e-06
6.25888e-06
-2.25869e-09
-4.92903e-06
1.47366e-05
1.85342e-09
-9.51393e-06
2.02105e-05
-1.75663e-10
-1.48609e-05
2.35849e-05
-3.91482e-10
-2.07189e-05
2.55346e-05
-1.8053e-10
-2.69051e-05
2.64337e-05
-1.36725e-10
-3.32103e-05
2.63434e-05
-8.99898e-11
-3.93132e-05
2.50742e-05
-5.32239e-16
-4.47239e-05
2.23331e-05
5.66971e-10
1.7989e-05
1.07212e-09
-4.88096e-05
-1.48384e-06
7.74492e-06
-2.20651e-09
-4.82791e-06
1.80789e-05
1.81514e-09
-9.35661e-06
2.47394e-05
-1.91997e-10
-1.46864e-05
2.89151e-05
-4.3453e-10
-2.06038e-05
3.14522e-05
-2.66162e-10
-2.69643e-05
3.27945e-05
-2.51799e-10
-3.35812e-05
3.29606e-05
-2.5973e-10
-4.01043e-05
3.15976e-05
-3.37516e-10
-4.58999e-05
2.8128e-05
7.19264e-10
2.20578e-05
2.4893e-09
-4.99712e-05
-1.38264e-06
9.12962e-06
-2.06208e-09
-4.52144e-06
2.1216e-05
1.69221e-09
-8.80022e-06
2.90183e-05
-2.0017e-10
-1.38764e-05
3.39918e-05
-4.60029e-10
-1.95746e-05
3.71507e-05
-3.50361e-10
-2.57929e-05
3.90131e-05
-3.4704e-10
-3.2388e-05
3.95561e-05
-3.51292e-10
-3.90233e-05
3.82335e-05
-6.67317e-10
-4.49644e-05
3.40673e-05
1.81497e-09
2.57889e-05
8.88799e-09
-4.87045e-05
-1.22017e-06
1.03516e-05
-1.80589e-09
-4.01529e-06
2.40096e-05
1.52449e-09
-7.84109e-06
3.28443e-05
-1.73908e-10
-1.23861e-05
3.85373e-05
-4.55238e-10
-1.74885e-05
4.22535e-05
-4.77445e-10
-2.30614e-05
4.45867e-05
-6.35832e-10
-2.89946e-05
4.54903e-05
-9.75375e-10
-3.50042e-05
4.4246e-05
-2.90193e-09
-4.04036e-05
3.94672e-05
-5.03768e-10
2.85108e-05
1.96819e-08
-4.31452e-05
-1.00559e-06
-1.4298e-09
1.13586e-05
-3.33851e-06
1.36382e-09
2.63411e-05
-6.52541e-06
-5.13313e-11
3.60313e-05
-1.02582e-05
-2.973e-10
4.22704e-05
-1.43321e-05
-4.30644e-10
4.63279e-05
-1.85836e-05
-8.74976e-10
4.8839e-05
-2.28127e-05
-2.0871e-09
4.97215e-05
-2.66424e-05
-8.74247e-09
4.80845e-05
-2.93318e-05
-1.87108e-08
4.21753e-05
2.7308e-09
-2.95831e-05
2.87594e-05
-9.31957e-08
9.32131e-08
8.58453e-13
-7.53466e-07
6.6173e-07
9.43341e-13
-1.83151e-06
1.07978e-06
1.12491e-12
-3.1389e-06
1.30938e-06
9.60457e-13
-4.55037e-06
1.41361e-06
4.46578e-13
-5.98556e-06
1.43735e-06
1.63099e-13
-7.3863e-06
1.40287e-06
5.85683e-14
-8.70015e-06
1.31587e-06
9.29396e-14
-9.87466e-06
1.17633e-06
2.23006e-13
9.90473e-07
2.32806e-13
-1.08636e-05
-6.71597e-07
7.63421e-07
1.39409e-12
-2.42923e-06
2.41945e-06
1.36313e-12
-4.94098e-06
3.59034e-06
1.40805e-12
-7.91173e-06
4.27855e-06
1.28239e-12
-1.11162e-05
4.61636e-06
8.67776e-13
-1.43886e-05
4.70804e-06
6.39535e-13
-1.75949e-05
4.60743e-06
5.0104e-13
-2.06093e-05
4.32877e-06
4.64152e-13
-2.33089e-05
3.87444e-06
4.73858e-13
3.26819e-06
4.42092e-13
-2.55878e-05
-1.11359e-06
1.87528e-06
1.25375e-12
-3.65939e-06
4.96655e-06
1.19772e-12
-7.14198e-06
7.07293e-06
1.30406e-12
-1.11975e-05
8.33395e-06
1.21339e-12
-1.55593e-05
8.97821e-06
9.88988e-13
-2.0025e-05
9.17383e-06
8.23761e-13
-2.4418e-05
9.00058e-06
6.71423e-13
-2.85597e-05
8.47055e-06
6.39198e-13
-3.2264e-05
7.57891e-06
5.29217e-13
6.36825e-06
4.80554e-13
-3.5364e-05
-1.36986e-06
3.24309e-06
1.27346e-12
-4.41651e-06
8.01487e-06
1.11288e-12
-8.51852e-06
1.1175e-05
1.35285e-12
-1.32654e-05
1.30807e-05
1.30689e-12
-1.83759e-05
1.40889e-05
1.16446e-12
-2.36372e-05
1.44354e-05
9.65543e-13
-2.88495e-05
1.42131e-05
7.82252e-13
-3.37869e-05
1.34083e-05
7.38917e-13
-3.81896e-05
1.19821e-05
5.86754e-13
9.98185e-06
5.15019e-13
-4.18029e-05
-1.49391e-06
4.73477e-06
1.71323e-12
-4.80879e-06
1.13315e-05
1.45794e-12
-9.25927e-06
1.56253e-05
1.46653e-12
-1.4416e-05
1.82372e-05
1.33496e-12
-2.00033e-05
1.9676e-05
1.18812e-12
-2.58152e-05
2.02473e-05
1.05542e-12
-3.16404e-05
2.00383e-05
9.60419e-13
-3.72046e-05
1.89726e-05
7.63464e-13
-4.21489e-05
1.69268e-05
6.84297e-13
1.3909e-05
5.38285e-13
-4.60756e-05
-1.5262e-06
6.25871e-06
1.78817e-12
-4.92892e-06
1.47361e-05
1.48334e-12
-9.5137e-06
2.02099e-05
1.42629e-12
-1.48611e-05
2.35842e-05
1.32028e-12
-2.0719e-05
2.55338e-05
1.18616e-12
-2.6905e-05
2.64331e-05
1.10346e-12
-3.32098e-05
2.6343e-05
1.01778e-12
-3.93119e-05
2.50747e-05
8.59968e-13
-4.47233e-05
2.23387e-05
7.21385e-13
1.79988e-05
4.98271e-13
-4.8812e-05
-1.48824e-06
7.74474e-06
1.73949e-12
-4.82799e-06
1.80777e-05
1.463e-12
-9.3567e-06
2.47384e-05
1.40081e-12
-1.46871e-05
2.89142e-05
1.32077e-12
-2.06046e-05
3.1451e-05
1.17872e-12
-2.69649e-05
3.27931e-05
1.13509e-12
-3.35813e-05
3.29591e-05
1.06212e-12
-4.01028e-05
3.1596e-05
9.65868e-13
-4.58985e-05
2.81351e-05
7.26851e-13
2.20791e-05
5.00067e-13
-4.99763e-05
-1.38678e-06
9.12946e-06
1.61729e-12
-4.52169e-06
2.12143e-05
1.41967e-12
-8.80067e-06
2.90172e-05
1.30618e-12
-1.38777e-05
3.39907e-05
1.24493e-12
-1.95762e-05
3.71492e-05
1.25933e-12
-2.57947e-05
3.90112e-05
1.16051e-12
-3.2389e-05
3.95531e-05
1.01501e-12
-3.90209e-05
3.82272e-05
9.50366e-13
-4.49556e-05
3.40716e-05
8.98619e-13
2.58434e-05
7.55668e-13
-4.8711e-05
-1.22383e-06
1.03515e-05
1.46351e-12
-4.01564e-06
2.40076e-05
1.41127e-12
-7.84187e-06
3.28433e-05
1.36888e-12
-1.23882e-05
3.85366e-05
1.27896e-12
-1.7492e-05
4.22526e-05
1.15372e-12
-2.30669e-05
4.45855e-05
1.0881e-12
-2.9003e-05
4.54882e-05
1.09462e-12
-3.50139e-05
4.42352e-05
9.12763e-13
-4.03861e-05
3.94433e-05
8.65772e-13
2.85906e-05
7.82697e-13
-4.31136e-05
-1.00849e-06
1.47033e-12
1.13585e-05
-3.33859e-06
1.41738e-12
2.63391e-05
-6.52578e-06
1.3359e-12
3.60304e-05
-1.02598e-05
1.19401e-12
4.22703e-05
-1.4336e-05
1.10672e-12
4.63284e-05
-1.85922e-05
1.10873e-12
4.88408e-05
-2.28326e-05
1.1424e-12
4.97264e-05
-2.66983e-05
9.19988e-13
4.80922e-05
-2.94178e-05
7.84912e-13
4.2144e-05
7.34588e-13
-2.94365e-05
2.86121e-05
-9.31954e-08
9.32141e-08
-1.73945e-11
-7.53465e-07
6.6173e-07
-1.45804e-09
-1.83151e-06
1.07978e-06
-1.74176e-09
-3.1389e-06
1.30938e-06
-1.99475e-09
-4.55037e-06
1.4136e-06
-2.1319e-09
-5.98555e-06
1.43735e-06
-2.16349e-09
-7.38629e-06
1.40287e-06
-2.12724e-09
-8.70013e-06
1.31587e-06
-2.02024e-09
-9.87464e-06
1.17633e-06
-1.81887e-09
9.90472e-07
-1.50236e-09
-1.08636e-05
-6.71596e-07
7.6342e-07
1.39032e-09
-2.42922e-06
2.41945e-06
-8.84787e-11
-4.94097e-06
3.59034e-06
1.19337e-09
-7.91172e-06
4.27854e-06
1.59233e-09
-1.11162e-05
4.61635e-06
1.68951e-09
-1.43886e-05
4.70803e-06
1.74584e-09
-1.75948e-05
4.60742e-06
1.70251e-09
-2.06093e-05
4.32876e-06
1.57487e-09
-2.33088e-05
3.87444e-06
1.40165e-09
3.26818e-06
1.24659e-09
-2.55878e-05
-1.11359e-06
1.87528e-06
1.73441e-09
-3.65938e-06
4.96654e-06
-1.2982e-09
-7.14197e-06
7.07292e-06
2.16626e-12
-1.11975e-05
8.33394e-06
9.77554e-11
-1.55592e-05
8.9782e-06
-6.24569e-11
-2.0025e-05
9.17382e-06
-8.19576e-11
-2.4418e-05
9.00057e-06
-9.98149e-11
-2.85596e-05
8.47054e-06
-1.30677e-10
-3.2264e-05
7.5789e-06
-1.53233e-10
6.36825e-06
-7.56691e-11
-3.53639e-05
-1.36986e-06
3.24309e-06
2.05036e-09
-4.4165e-06
8.01486e-06
-1.68324e-09
-8.51851e-06
1.1175e-05
-3.74243e-11
-1.32653e-05
1.30807e-05
6.42669e-11
-1.83758e-05
1.40889e-05
-1.66484e-10
-2.36372e-05
1.44354e-05
-2.16268e-10
-2.88494e-05
1.42131e-05
-2.54524e-10
-3.37868e-05
1.34082e-05
-3.09918e-10
-3.81896e-05
1.19821e-05
-3.93527e-10
9.98184e-06
-3.18058e-10
-4.18029e-05
-1.4939e-06
4.73477e-06
2.22672e-09
-4.80878e-06
1.13315e-05
-1.78575e-09
-9.25926e-06
1.56253e-05
1.4708e-10
-1.4416e-05
1.82372e-05
3.25081e-10
-2.00033e-05
1.9676e-05
9.65206e-11
-2.58152e-05
2.02472e-05
4.1121e-11
-3.16404e-05
2.00383e-05
-1.94722e-11
-3.72045e-05
1.89725e-05
-1.27013e-10
-4.21488e-05
1.69268e-05
-4.02422e-10
1.3909e-05
-4.87038e-10
-4.60755e-05
-1.5262e-06
6.25871e-06
2.26155e-09
-4.92892e-06
1.47361e-05
-1.85089e-09
-9.51368e-06
2.02099e-05
1.77866e-10
-1.48611e-05
2.35842e-05
3.93404e-10
-2.0719e-05
2.55337e-05
1.82254e-10
-2.69049e-05
2.6433e-05
1.38259e-10
-3.32097e-05
2.6343e-05
9.13563e-11
-3.93119e-05
2.50747e-05
1.18584e-12
-4.47233e-05
2.23387e-05
-5.66042e-10
1.79988e-05
-1.07136e-09
-4.8812e-05
-1.48824e-06
7.74473e-06
2.20919e-09
-4.82798e-06
1.80777e-05
-1.81271e-09
-9.35668e-06
2.47384e-05
1.94144e-10
-1.46871e-05
2.89141e-05
4.36404e-10
-2.06046e-05
3.1451e-05
2.679e-10
-2.69649e-05
3.27931e-05
2.53345e-10
-3.35812e-05
3.29591e-05
2.61105e-10
-4.01028e-05
3.15959e-05
3.38669e-10
-4.58985e-05
2.81351e-05
-7.18245e-10
2.20791e-05
-2.48843e-09
-4.99763e-05
-1.38678e-06
9.12945e-06
2.06459e-09
-4.52168e-06
2.12143e-05
-1.68989e-09
-8.80066e-06
2.90172e-05
2.02294e-10
-1.38777e-05
3.39907e-05
4.61933e-10
-1.95762e-05
3.71492e-05
3.52004e-10
-2.57946e-05
3.90112e-05
3.4856e-10
-3.2389e-05
3.95531e-05
3.52737e-10
-3.90209e-05
3.82272e-05
6.6859e-10
-4.49556e-05
3.40716e-05
-1.81398e-09
2.58434e-05
-8.88719e-09
-4.8711e-05
-1.22383e-06
1.03515e-05
1.80831e-09
-4.01563e-06
2.40076e-05
-1.52226e-09
-7.84186e-06
3.28432e-05
1.75899e-10
-1.23881e-05
3.85365e-05
4.57012e-10
-1.7492e-05
4.22526e-05
4.79105e-10
-2.30669e-05
4.45854e-05
6.37378e-10
-2.9003e-05
4.54882e-05
9.76796e-10
-3.50139e-05
4.42352e-05
2.90337e-09
-4.03861e-05
3.94433e-05
5.04939e-10
2.85906e-05
-1.96811e-08
-4.31136e-05
-1.00849e-06
1.43202e-09
1.13585e-05
-3.33859e-06
-1.36172e-09
2.6339e-05
-6.52578e-06
5.32139e-11
3.60304e-05
-1.02598e-05
2.99027e-10
4.22702e-05
-1.4336e-05
4.32274e-10
4.63284e-05
-1.85922e-05
8.76495e-10
4.88408e-05
-2.28326e-05
2.08852e-09
4.97264e-05
-2.66983e-05
8.7439e-09
4.80922e-05
-2.94178e-05
1.87121e-08
4.2144e-05
-2.72984e-09
-2.94365e-05
2.86121e-05
-9.4216e-08
9.41987e-08
-7.5316e-07
6.57491e-07
-1.83122e-06
1.07632e-06
-3.13893e-06
1.30571e-06
-4.5505e-06
1.40944e-06
-5.98568e-06
1.43301e-06
-7.38639e-06
1.39858e-06
-8.70018e-06
1.31178e-06
-9.8746e-06
1.1726e-06
9.8739e-07
-1.08635e-05
-6.67456e-07
7.6304e-07
-2.4267e-06
2.41665e-06
-4.93906e-06
3.58987e-06
-7.91056e-06
4.2788e-06
-1.11158e-05
4.61642e-06
-1.4389e-05
4.7079e-06
-1.75958e-05
4.60709e-06
-2.06106e-05
4.3282e-06
-2.33103e-05
3.87367e-06
3.26761e-06
-2.55893e-05
-1.11011e-06
1.87488e-06
-3.6591e-06
4.96434e-06
-7.14176e-06
7.07254e-06
-1.11971e-05
8.33427e-06
-1.55592e-05
8.97846e-06
-2.00253e-05
9.17387e-06
-2.44186e-05
9.00031e-06
-2.85604e-05
8.46985e-06
-3.22645e-05
7.57767e-06
6.36729e-06
-3.53643e-05
-1.3661e-06
3.24303e-06
-4.41693e-06
8.01349e-06
-8.519e-06
1.11746e-05
-1.32654e-05
1.30808e-05
-1.8376e-05
1.40889e-05
-2.36376e-05
1.44352e-05
-2.885e-05
1.42125e-05
-3.37875e-05
1.3407e-05
-3.81898e-05
1.19796e-05
9.97959e-06
-4.18024e-05
-1.48961e-06
4.73487e-06
-4.80907e-06
1.13312e-05
-9.25969e-06
1.56253e-05
-1.44161e-05
1.82375e-05
-2.00034e-05
1.96763e-05
-2.58155e-05
2.02474e-05
-3.16411e-05
2.0038e-05
-3.72055e-05
1.89713e-05
-4.21492e-05
1.69229e-05
1.39043e-05
-4.60744e-05
-1.52173e-06
6.25886e-06
-4.92901e-06
1.47366e-05
-9.51389e-06
2.02104e-05
-1.48608e-05
2.35848e-05
-2.07188e-05
2.55345e-05
-2.6905e-05
2.64337e-05
-3.32102e-05
2.63434e-05
-3.93131e-05
2.50742e-05
-4.47238e-05
2.2333e-05
1.7989e-05
-4.88095e-05
-1.48383e-06
7.7449e-06
-4.82789e-06
1.80788e-05
-9.35657e-06
2.47393e-05
-1.46864e-05
2.89151e-05
-2.06038e-05
3.14521e-05
-2.69642e-05
3.27944e-05
-3.35812e-05
3.29606e-05
-4.01042e-05
3.15975e-05
-4.58998e-05
2.8128e-05
2.20577e-05
-4.99711e-05
-1.38264e-06
9.1296e-06
-4.52142e-06
2.12159e-05
-8.80018e-06
2.90182e-05
-1.38764e-05
3.39917e-05
-1.95745e-05
3.71506e-05
-2.57928e-05
3.90131e-05
-3.23879e-05
3.9556e-05
-3.90232e-05
3.82335e-05
-4.49644e-05
3.40673e-05
2.57889e-05
-4.87045e-05
-1.22017e-06
1.03516e-05
-4.01528e-06
2.40095e-05
-7.84107e-06
3.28442e-05
-1.23861e-05
3.85372e-05
-1.74885e-05
4.22535e-05
-2.30614e-05
4.45866e-05
-2.89946e-05
4.54902e-05
-3.50042e-05
4.4246e-05
-4.04036e-05
3.94672e-05
2.85108e-05
-4.31452e-05
-1.00559e-06
1.13586e-05
-3.3385e-06
2.63411e-05
-6.5254e-06
3.60312e-05
-1.02582e-05
4.22703e-05
-1.43321e-05
4.63278e-05
-1.85836e-05
4.8839e-05
-2.28127e-05
4.97214e-05
-2.66424e-05
4.80845e-05
-2.93318e-05
4.21753e-05
-2.95831e-05
2.87594e-05
-1.16423e-05
7.77651e-07
1.10457e-09
-1.2219e-05
5.75977e-07
7.52137e-10
-1.26247e-05
4.05227e-07
4.85206e-10
-1.28986e-05
2.73579e-07
2.97597e-10
-1.30779e-05
1.79098e-07
1.75187e-10
-1.3193e-05
1.15028e-07
1.00323e-10
-1.32666e-05
7.35907e-08
5.71334e-11
-1.33146e-05
4.79295e-08
3.38976e-11
-1.33473e-05
3.26647e-08
2.28007e-11
-1.3371e-05
2.3708e-08
1.87424e-11
-1.33888e-05
1.77633e-08
1.82463e-11
-1.34006e-05
1.17932e-08
2.01087e-11
-1.3402e-05
1.36603e-09
2.19778e-11
-1.33849e-05
-1.71107e-08
1.49748e-11
-1.33331e-05
-5.17705e-08
-9.81118e-12
-1.32216e-05
-1.11441e-07
-6.16503e-11
-1.30146e-05
-2.0684e-07
-1.6089e-10
-1.26668e-05
-3.47548e-07
-3.31592e-10
-1.21291e-05
-5.37056e-07
-5.98308e-10
-7.65992e-07
-9.79591e-10
-1.13621e-05
-2.73925e-05
2.58199e-06
-1.14684e-09
-2.87389e-05
1.92329e-06
-9.83442e-10
-2.96975e-05
1.36468e-06
-7.86306e-10
-3.03551e-05
9.31743e-07
-5.98771e-10
-3.07937e-05
6.1809e-07
-4.36842e-10
-3.10806e-05
4.02242e-07
-3.07846e-10
-3.12663e-05
2.59505e-07
-2.11762e-10
-3.13861e-05
1.6794e-07
-1.43445e-10
-3.14634e-05
1.10069e-07
-9.56819e-11
-3.1512e-05
7.2316e-08
-6.07264e-11
-3.15377e-05
4.34796e-08
-3.05737e-11
-3.15387e-05
1.28046e-08
1.83459e-12
-3.15052e-05
-3.21701e-08
4.4879e-11
-3.1415e-05
-1.07452e-07
1.10174e-10
-3.12317e-05
-2.35211e-07
2.12158e-10
-3.08998e-05
-4.4379e-07
3.57882e-10
-3.03416e-05
-7.65533e-07
5.51769e-10
-2.94612e-05
-1.22872e-06
7.88228e-10
-2.81568e-05
-1.84248e-06
1.04353e-09
-2.57608e-06
1.24999e-09
-2.6348e-05
-3.77724e-05
4.99019e-06
-1.80217e-10
-3.95305e-05
3.68169e-06
-2.77271e-10
-4.07557e-05
2.59014e-06
-2.7854e-10
-4.15809e-05
1.75718e-06
-2.49105e-10
-4.21236e-05
1.16099e-06
-2.02402e-10
-4.2475e-05
7.5379e-07
-1.53229e-10
-4.27003e-05
4.84973e-07
-1.10714e-10
-4.28438e-05
3.11489e-07
-7.70351e-11
-4.29336e-05
1.99941e-07
-5.12493e-11
-4.29861e-05
1.24805e-07
-3.10209e-11
-4.30078e-05
6.5223e-08
-1.3158e-11
-4.29963e-05
1.28119e-09
5.44436e-12
-4.29387e-05
-8.98129e-08
2.52134e-11
-4.2808e-05
-2.38165e-07
5.57786e-11
-4.25585e-05
-4.84886e-07
9.89669e-11
-4.21183e-05
-8.84136e-07
1.54733e-10
-4.13844e-05
-1.49966e-06
2.17435e-10
-4.02228e-05
-2.39058e-06
2.77879e-10
-3.84833e-05
-3.58225e-06
3.20185e-10
-5.02169e-06
2.39624e-10
-3.6038e-05
-4.4488e-05
7.67582e-06
-2.12617e-10
-4.63411e-05
5.53515e-06
-3.38563e-10
-4.75593e-05
3.80869e-06
-3.07672e-10
-4.83362e-05
2.53427e-06
-2.6098e-10
-4.88233e-05
1.64832e-06
-2.00453e-10
-4.91266e-05
1.05727e-06
-1.43218e-10
-4.93153e-05
6.73688e-07
-9.84635e-11
-4.94324e-05
4.28646e-07
-6.54882e-11
-4.95039e-05
2.71541e-07
-4.16669e-11
-4.95443e-05
1.65263e-07
-2.40258e-11
-4.95595e-05
8.03618e-08
-9.65466e-12
-4.95473e-05
-1.08559e-08
3.70298e-12
-4.94968e-05
-1.40378e-07
2.12967e-11
-4.93836e-05
-3.51386e-07
4.52084e-11
-4.91635e-05
-7.0512e-07
8.14899e-11
-4.87613e-05
-1.28641e-06
1.3501e-10
-4.80589e-05
-2.20229e-06
2.01633e-10
-4.68859e-05
-3.5638e-06
2.80498e-10
-4.50282e-05
-5.44037e-06
3.84305e-10
-7.77542e-06
2.9815e-10
-4.22748e-05
-4.87491e-05
1.0351e-05
-6.01427e-10
-5.03897e-05
7.17646e-06
-6.38878e-10
-5.13358e-05
4.75521e-06
-4.63639e-10
-5.18622e-05
3.06098e-06
-3.48649e-10
-5.21509e-05
1.93732e-06
-2.38279e-10
-5.23101e-05
1.21656e-06
-1.50878e-10
-5.23994e-05
7.63063e-07
-9.31604e-11
-5.24507e-05
4.8009e-07
-5.63628e-11
-5.2481e-05
3.01863e-07
-3.3094e-11
-5.24988e-05
1.83038e-07
-1.80543e-11
-5.25077e-05
8.92716e-08
-7.02087e-12
-5.25075e-05
-1.10422e-08
3.66812e-12
-5.24931e-05
-1.54811e-07
1.49937e-11
-5.24504e-05
-3.94103e-07
3.43834e-11
-5.23484e-05
-8.0723e-07
7.07482e-11
-5.21237e-05
-1.51119e-06
1.37479e-10
-5.16576e-05
-2.66869e-06
2.31289e-10
-5.07476e-05
-4.47418e-06
3.66369e-10
-4.90918e-05
-7.09682e-06
6.66902e-10
-1.05389e-05
7.45405e-10
-4.6329e-05
-5.11395e-05
1.26823e-05
-1.4515e-09
-5.22149e-05
8.25298e-06
-1.10422e-09
-5.26169e-05
5.15787e-06
-5.95918e-10
-5.27133e-05
3.1577e-06
-3.91566e-10
-5.26946e-05
1.91891e-06
-2.2877e-10
-5.26462e-05
1.1683e-06
-1.17879e-10
-5.26002e-05
7.17057e-07
-5.8485e-11
-5.25656e-05
4.45508e-07
-2.77295e-11
-5.25434e-05
2.79732e-07
-1.21485e-11
-5.25331e-05
1.72692e-07
-4.64034e-12
-5.25348e-05
9.09741e-08
-1.65194e-13
-5.25505e-05
4.66595e-09
7.28736e-12
-5.2584e-05
-1.21314e-07
4.20918e-12
-5.26379e-05
-3.40178e-07
9.42285e-12
-5.2707e-05
-7.38183e-07
3.18797e-11
-5.27608e-05
-1.45753e-06
9.69608e-11
-5.27083e-05
-2.72132e-06
1.93773e-10
-5.23406e-05
-4.84225e-06
3.60995e-10
-5.12565e-05
-8.18197e-06
1.07664e-09
-1.29603e-05
1.75105e-09
-4.88369e-05
-5.14515e-05
1.41666e-05
-4.00934e-09
-5.1513e-05
8.31686e-06
-2.35548e-09
-5.1106e-05
4.7518e-06
-9.49238e-10
-5.06494e-05
2.7016e-06
-5.10501e-10
-5.02794e-05
1.54913e-06
-2.30176e-10
-5.00151e-05
9.04117e-07
-7.86427e-11
-4.9838e-05
5.39892e-07
-1.96735e-11
-4.97238e-05
3.31343e-07
1.66913e-12
-4.96537e-05
2.09639e-07
8.04394e-12
-4.96161e-05
1.35106e-07
7.8892e-12
-4.9607e-05
8.18095e-08
4.38967e-12
-4.96299e-05
2.75778e-08
-4.05403e-12
-4.96971e-05
-5.40984e-08
-1.98228e-12
-4.98309e-05
-2.06387e-07
-6.2394e-12
-5.00614e-05
-5.07692e-07
1.0068e-11
-5.04158e-05
-1.1032e-06
1.01362e-10
-5.08806e-05
-2.25677e-06
2.59276e-10
-5.13128e-05
-4.41066e-06
5.51536e-10
-5.12616e-05
-8.23536e-06
2.28059e-09
-1.45101e-05
4.67709e-09
-4.97165e-05
-4.84556e-05
1.39248e-05
-7.06462e-09
-4.69807e-05
6.84443e-06
-2.52119e-09
-4.56145e-05
3.38603e-06
-3.90187e-10
-4.46314e-05
1.71871e-06
-2.1286e-10
-4.3987e-05
9.04784e-07
-2.24932e-11
-4.35814e-05
4.98445e-07
6.10301e-11
-4.33299e-05
2.88273e-07
5.94267e-11
-4.31743e-05
1.75767e-07
4.57033e-11
-4.30789e-05
1.14144e-07
3.4544e-11
-4.30234e-05
7.96499e-08
2.57696e-11
-4.30001e-05
5.84057e-08
1.75845e-11
-4.3012e-05
3.95276e-08
8.82139e-12
-4.30752e-05
9.12231e-09
3.13658e-12
-4.32259e-05
-5.5673e-08
-1.3616e-11
-4.35259e-05
-2.07759e-07
-1.8391e-11
-4.40738e-05
-5.5532e-07
4.15261e-11
-4.49898e-05
-1.34089e-06
9.91126e-11
-4.63361e-05
-3.06423e-06
-6.98558e-11
-4.78342e-05
-6.73946e-06
2.22646e-09
-1.42742e-05
7.84109e-09
-4.80779e-05
-3.94341e-05
1.02232e-05
-9.49331e-09
-3.61529e-05
3.55992e-06
3.32489e-09
-3.41278e-05
1.35726e-06
3.69448e-09
-3.29709e-05
5.60403e-07
1.41015e-09
-3.2319e-05
2.52132e-07
7.04059e-10
-3.19471e-05
1.26149e-07
4.19793e-10
-3.17296e-05
7.05351e-08
2.31743e-10
-3.1598e-05
4.40614e-08
1.33953e-10
-3.15152e-05
3.12181e-08
8.84564e-11
-3.14613e-05
2.56875e-08
6.68306e-11
-3.14275e-05
2.45111e-08
5.45787e-11
-3.14138e-05
2.58817e-08
3.8262e-11
-3.14326e-05
2.79201e-08
3.4086e-12
-3.15139e-05
2.56766e-08
-5.48871e-11
-3.17202e-05
-1.29696e-09
-2.00657e-10
-3.21897e-05
-8.53773e-08
-4.17447e-10
-3.31711e-05
-3.58338e-07
-1.2005e-09
-3.50731e-05
-1.15801e-06
-4.17375e-09
-3.834e-05
-3.46814e-06
-4.49343e-09
-1.04551e-05
1.01361e-08
-4.21692e-05
-1.93152e-05
-4.47731e-08
-1.57496e-05
-5.65416e-09
-1.43924e-05
2.78231e-11
-1.38309e-05
-1.05395e-09
-1.35781e-05
-6.66462e-10
-1.34517e-05
-2.82672e-10
-1.3381e-05
-1.43663e-10
-1.33369e-05
-8.16425e-11
-1.33056e-05
-4.66956e-11
-1.32799e-05
-2.70602e-11
-1.32553e-05
-1.32453e-11
-1.32295e-05
4.06226e-12
-1.32016e-05
3.13152e-11
-1.3176e-05
5.37258e-11
-1.31774e-05
1.24632e-10
-1.32632e-05
4.78179e-10
-1.36224e-05
8.67636e-10
-1.47796e-05
-8.55354e-10
-1.82518e-05
4.05335e-09
4.96935e-08
-2.87566e-05
-1.16423e-05
7.79811e-07
2.4624e-13
-1.2219e-05
5.77416e-07
2.04863e-13
-1.26247e-05
4.06166e-07
1.23074e-13
-1.28985e-05
2.74168e-07
4.74216e-14
-1.30778e-05
1.79456e-07
4.74913e-14
-1.3193e-05
1.15244e-07
1.11352e-13
-1.32666e-05
7.37219e-08
6.55829e-14
-1.33146e-05
4.80132e-08
-8.61319e-15
-1.33473e-05
3.2724e-08
-6.38414e-14
-1.33711e-05
2.37561e-08
-1.04493e-13
-1.33888e-05
1.78052e-08
-1.85072e-13
-1.34006e-05
1.18044e-08
-1.94528e-13
-1.3402e-05
1.42325e-09
-1.50863e-13
-1.33849e-05
-1.71158e-08
-8.83764e-14
-1.33331e-05
-5.18389e-08
-2.00854e-14
-1.32215e-05
-1.11625e-07
8.36375e-14
-1.30144e-05
-2.07219e-07
1.91769e-13
-1.26665e-05
-3.48233e-07
3.436e-13
-1.21289e-05
-5.38201e-07
5.28443e-13
-7.67877e-07
7.34828e-13
-1.1362e-05
-2.73909e-05
2.58171e-06
3.58009e-13
-2.87372e-05
1.92273e-06
2.4374e-13
-2.9696e-05
1.3642e-06
1.40085e-13
-3.03538e-05
9.314e-07
8.31086e-14
-3.07927e-05
6.17872e-07
9.46177e-14
-3.10798e-05
4.02118e-07
1.39673e-13
-3.12658e-05
2.59439e-07
9.35391e-14
-3.13858e-05
1.67904e-07
7.10723e-15
-3.14632e-05
1.10045e-07
-3.9619e-14
-3.15118e-05
7.2291e-08
-3.33031e-14
-3.15375e-05
4.34451e-08
-7.41509e-14
-3.15384e-05
1.27616e-08
-1.0284e-13
-3.15048e-05
-3.22093e-08
-9.85665e-14
-3.14143e-05
-1.0749e-07
-6.69832e-14
-3.12307e-05
-2.35207e-07
-6.00458e-15
-3.08983e-05
-4.43681e-07
6.73331e-14
-3.03397e-05
-7.65235e-07
1.43326e-13
-2.9459e-05
-1.22813e-06
2.48698e-13
-2.81546e-05
-1.84157e-06
4.07399e-13
-2.5753e-06
5.88235e-13
-2.63459e-05
-3.77716e-05
4.98916e-06
3.16371e-13
-3.95294e-05
3.68025e-06
2.22049e-13
-4.07545e-05
2.58905e-06
1.67554e-13
-4.15798e-05
1.75645e-06
1.62336e-13
-4.21227e-05
1.16056e-06
1.69051e-13
-4.24743e-05
7.53568e-07
1.31277e-13
-4.26999e-05
4.84868e-07
6.68813e-14
-4.28435e-05
3.11439e-07
2.51258e-14
-4.29334e-05
1.99907e-07
2.11869e-15
-4.29859e-05
1.24763e-07
-2.88997e-14
-4.30076e-05
6.51591e-08
-8.08053e-14
-4.29961e-05
1.19875e-09
-1.24693e-13
-4.29383e-05
-8.99318e-08
-1.45821e-13
-4.28075e-05
-2.38283e-07
-1.06291e-13
-4.25576e-05
-4.84944e-07
-3.25189e-14
-4.21171e-05
-8.84017e-07
-6.41431e-15
-4.1383e-05
-1.4992e-06
2.456e-14
-4.02213e-05
-2.38954e-06
1.38506e-13
-3.84821e-05
-3.58046e-06
3.48833e-13
-5.02002e-06
5.2404e-13
-3.60371e-05
-4.44875e-05
7.67352e-06
3.42794e-13
-4.634e-05
5.53239e-06
2.6994e-13
-4.75581e-05
3.80688e-06
2.59039e-13
-4.83351e-05
2.53317e-06
2.4106e-13
-4.88224e-05
1.64772e-06
1.26526e-13
-4.9126e-05
1.05699e-06
3.18054e-14
-4.93148e-05
6.73572e-07
-7.1121e-16
-4.9432e-05
4.286e-07
2.27586e-15
-4.95037e-05
2.71511e-07
2.11946e-14
-4.95442e-05
1.65218e-07
3.48805e-14
-4.95593e-05
8.02855e-08
-1.71489e-14
-4.95471e-05
-1.09707e-08
-9.81891e-14
-4.94965e-05
-1.40546e-07
-1.43182e-13
-4.93832e-05
-3.51575e-07
-1.31627e-13
-4.91628e-05
-7.05251e-07
-1.55128e-13
-4.87603e-05
-1.28633e-06
-2.22391e-13
-4.80576e-05
-2.20174e-06
-2.31419e-13
-4.68845e-05
-3.56233e-06
-9.83392e-14
-4.50273e-05
-5.43732e-06
1.1785e-13
-7.77232e-06
3.07835e-13
-4.22747e-05
-4.87483e-05
1.03456e-05
4.29639e-13
-5.0388e-05
7.17144e-06
3.04151e-13
-5.13341e-05
4.75254e-06
3.08985e-13
-5.18608e-05
3.05955e-06
2.35252e-13
-5.215e-05
1.93663e-06
1.16822e-13
-5.23094e-05
1.21629e-06
3.38376e-14
-5.23989e-05
7.62981e-07
-1.18812e-14
-5.24505e-05
4.80073e-07
-4.35401e-14
-5.24808e-05
3.01851e-07
-2.97349e-14
-5.24986e-05
1.83e-07
-2.9881e-14
-5.25076e-05
8.91921e-08
-6.36949e-14
-5.25074e-05
-1.11682e-08
-1.11e-13
-5.24929e-05
-1.55021e-07
-1.47173e-13
-5.245e-05
-3.94369e-07
-2.10744e-13
-5.23477e-05
-8.07474e-07
-3.39341e-13
-5.21227e-05
-1.51121e-06
-4.42487e-13
-5.16561e-05
-2.66818e-06
-4.1428e-13
-5.07457e-05
-4.47234e-06
-2.56708e-13
-4.90906e-05
-7.09174e-06
-5.23672e-14
-1.05326e-05
1.24867e-13
-4.63296e-05
-5.11378e-05
1.26699e-05
5.56146e-13
-5.22118e-05
8.24441e-06
3.86028e-13
-5.26145e-05
5.15464e-06
3.25441e-13
-5.27117e-05
3.15633e-06
2.16327e-13
-5.26937e-05
1.9184e-06
1.13658e-13
-5.26457e-05
1.16821e-06
-1.24299e-14
-5.25999e-05
7.17093e-07
-5.16361e-14
-5.25654e-05
4.4556e-07
-3.43815e-14
-5.25433e-05
2.79758e-07
-2.3375e-15
-5.2533e-05
1.72674e-07
-2.08908e-14
-5.25347e-05
9.0901e-08
-7.47795e-14
-5.25505e-05
4.5738e-09
-1.1586e-13
-5.25839e-05
-1.21554e-07
-1.80786e-13
-5.26377e-05
-3.40531e-07
-2.97104e-13
-5.27066e-05
-7.38617e-07
-4.12808e-13
-5.27598e-05
-1.45786e-06
-4.72825e-13
-5.27065e-05
-2.72127e-06
-4.4267e-13
-5.23379e-05
-4.84066e-06
-3.24912e-13
-5.12545e-05
-8.17399e-06
-2.06377e-13
-1.29467e-05
-1.07351e-13
-4.88387e-05
-5.14474e-05
1.4137e-05
4.9224e-13
-5.15077e-05
8.30235e-06
4.03219e-13
-5.11027e-05
4.74869e-06
4.15006e-13
-5.06478e-05
2.70088e-06
2.79913e-13
-5.02787e-05
1.5491e-06
9.10538e-14
-5.00149e-05
9.04317e-07
-6.52103e-14
-4.98379e-05
5.40076e-07
-1.18901e-13
-4.97238e-05
3.31459e-07
-9.65069e-14
-4.96537e-05
2.09695e-07
-7.56897e-14
-4.96161e-05
1.35107e-07
-7.45231e-14
-4.9607e-05
8.17515e-08
-9.15386e-14
-4.96299e-05
2.74945e-08
-1.53311e-13
-4.96972e-05
-5.43141e-08
-2.52912e-13
-4.98309e-05
-2.06797e-07
-3.67376e-13
-5.00612e-05
-5.08311e-07
-4.2937e-13
-5.0415e-05
-1.10392e-06
-4.86987e-13
-5.08786e-05
-2.25748e-06
-5.53436e-13
-5.13087e-05
-4.40999e-06
-5.91154e-13
-5.12579e-05
-8.22251e-06
-6.75134e-13
-1.44784e-05
-7.80722e-13
-4.97215e-05
-4.8448e-05
1.3867e-05
3.70763e-13
-4.69757e-05
6.82749e-06
2.03388e-13
-4.5613e-05
3.38566e-06
1.44858e-13
-4.46315e-05
1.71911e-06
9.52717e-14
-4.39875e-05
9.05097e-07
4.50557e-14
-4.35819e-05
4.98732e-07
4.07799e-15
-4.33302e-05
2.8845e-07
-6.98415e-14
-4.31745e-05
1.75856e-07
-1.22188e-13
-4.3079e-05
1.14185e-07
-1.21124e-13
-4.30235e-05
7.96602e-08
-9.25155e-14
-4.30001e-05
5.83876e-08
-7.92208e-14
-4.30121e-05
3.94661e-08
-1.15076e-13
-4.30755e-05
9.07839e-09
-1.965e-13
-4.32263e-05
-5.59553e-08
-3.14663e-13
-4.35266e-05
-2.08068e-07
-3.77635e-13
-4.40747e-05
-5.55808e-07
-4.69272e-13
-4.49902e-05
-1.34189e-06
-6.3442e-13
-4.63345e-05
-3.06576e-06
-8.72174e-13
-4.78295e-05
-6.72526e-06
-1.16498e-12
-1.42144e-05
-1.37178e-12
-4.80856e-05
-3.94254e-05
1.01692e-05
2.32122e-13
-3.61585e-05
3.56392e-06
6.28616e-14
-3.4133e-05
1.36388e-06
7.49889e-15
-3.29746e-05
5.62163e-07
6.95973e-15
-3.23212e-05
2.52403e-07
-7.13218e-15
-3.19483e-05
1.26222e-07
-3.06284e-14
-3.17302e-05
7.05812e-08
-5.52115e-14
-3.15983e-05
4.41019e-08
-5.34701e-14
-3.15153e-05
3.12641e-08
-7.35836e-14
-3.14613e-05
2.57462e-08
-6.29602e-14
-3.14275e-05
2.45934e-08
-3.84948e-14
-3.1414e-05
2.5998e-08
-1.03384e-13
-3.14329e-05
2.80189e-08
-2.84991e-13
-3.15147e-05
2.57509e-08
-3.82302e-13
-3.17223e-05
-6.82953e-10
-4.08567e-13
-3.21936e-05
-8.48956e-08
-4.99517e-13
-3.31776e-05
-3.59146e-07
-8.69617e-13
-3.50834e-05
-1.16407e-06
-1.35243e-12
-3.83397e-05
-3.47347e-06
-1.70313e-12
-1.04061e-05
-1.99066e-12
-4.21379e-05
-1.93121e-05
8.1337e-15
-1.57538e-05
-2.17819e-13
-1.43899e-05
-1.6022e-13
-1.38288e-05
-9.20538e-14
-1.35771e-05
-7.79014e-14
-1.34511e-05
-6.39066e-14
-1.33807e-05
-3.95654e-14
-1.33367e-05
-4.68223e-14
-1.33054e-05
-4.07231e-14
-1.32797e-05
-3.78809e-15
-1.32551e-05
-1.31009e-14
-1.32291e-05
-1.42886e-13
-1.32011e-05
-3.02048e-13
-1.31753e-05
-3.823e-13
-1.31758e-05
-4.05019e-13
-1.32603e-05
-5.73116e-13
-1.36185e-05
-1.04024e-12
-1.47835e-05
-1.5255e-12
-1.82529e-05
-2.19383e-12
-2.98511e-12
-2.86092e-05
-1.16423e-05
7.7981e-07
-1.10429e-09
-1.2219e-05
5.77415e-07
-7.51945e-10
-1.26247e-05
4.06166e-07
-4.8512e-10
-1.28985e-05
2.74167e-07
-2.97594e-10
-1.30778e-05
1.79456e-07
-1.75211e-10
-1.3193e-05
1.15244e-07
-1.00338e-10
-1.32666e-05
7.3722e-08
-5.71203e-11
-1.33146e-05
4.80132e-08
-3.38645e-11
-1.33473e-05
3.2724e-08
-2.28126e-11
-1.3371e-05
2.37561e-08
-1.87763e-11
-1.33888e-05
1.78052e-08
-1.83019e-11
-1.34006e-05
1.18044e-08
-2.02883e-11
-1.3402e-05
1.42309e-09
-2.22936e-11
-1.33849e-05
-1.7116e-08
-1.52713e-11
-1.3333e-05
-5.18391e-08
9.64973e-12
-1.32215e-05
-1.11625e-07
6.16795e-11
-1.30144e-05
-2.07219e-07
1.61144e-10
-1.26665e-05
-3.48233e-07
3.32107e-10
-1.21289e-05
-5.382e-07
5.99161e-10
-7.67875e-07
9.808e-10
-1.1362e-05
-2.73908e-05
2.58171e-06
1.14726e-09
-2.87371e-05
1.92273e-06
9.83692e-10
-2.96959e-05
1.3642e-06
7.86412e-10
-3.03538e-05
9.314e-07
5.98834e-10
-3.07926e-05
6.17872e-07
4.36903e-10
-3.10798e-05
4.02118e-07
3.07889e-10
-3.12657e-05
2.59438e-07
2.11808e-10
-3.13858e-05
1.67904e-07