/*--------------------------------*- C++ -*----------------------------------*\
| =========                 |                                                 |
| \\      /  F ield         | OpenFOAM: The Open Source CFD Toolbox           |
|  \\    /   O peration     | Version:  2.4.0                                 |
|   \\  /    A nd           | Web:      www.OpenFOAM.org                      |
|    \\/     M anipulation  |                                                 |
\*---------------------------------------------------------------------------*/
FoamFile
{
    version     2.0;
    format      ascii;
    class       volVectorField;
    location    "0.3";
    object      U;
}
// * * * * * * * * * * * * * * * * * * * * * * * * * * * * * * * * * * * * * //

dimensions      [0 1 -1 0 0 0 0];

internalField   nonuniform List<vector> 
4800
(
(4.66876e-05 -4.85518e-05 1.05941e-08)
(-0.000485278 0.00030187 0.000120341)
(-0.00196062 0.000570724 0.000178803)
(-0.00392243 0.00070936 0.000151921)
(-0.00612987 0.000766307 2.3846e-05)
(-0.0084304 0.000776284 -0.000210773)
(-0.0107183 0.000755429 -0.000551133)
(-0.0129083 0.000707371 -0.000993699)
(-0.014916 0.000631104 -0.00153202)
(-0.0166589 0.000528999 -0.00215537)
(-0.000311297 0.00048807 -0.000120811)
(-0.00209776 0.0020752 8.62715e-08)
(-0.00565597 0.00323666 2.95198e-05)
(-0.0101568 0.00389938 -2.9861e-05)
(-0.015168 0.00421056 -0.000183293)
(-0.0204044 0.00428689 -0.000437463)
(-0.0256363 0.00418802 -0.000793297)
(-0.0306608 0.00393061 -0.00124843)
(-0.0352772 0.00351706 -0.00179741)
(-0.039292 0.00296803 -0.00243101)
(-0.000596721 0.00199651 -0.000178466)
(-0.00332249 0.00565623 -2.76275e-05)
(-0.00833391 0.00821116 1.35401e-06)
(-0.01451 0.00973063 -6.62999e-05)
(-0.0213298 0.0104896 -0.000225776)
(-0.0284617 0.0107038 -0.00048256)
(-0.0356166 0.0104831 -0.000837625)
(-0.0425159 0.00985444 -0.0012894)
(-0.0488642 0.00882213 -0.00183379)
(-0.0543596 0.00744069 -0.00246328)
(-0.000753292 0.00403405 -0.000144343)
(-0.00405659 0.0102467 4.05811e-05)
(-0.00999893 0.0144218 7.72257e-05)
(-0.0172404 0.0169299 9.56507e-06)
(-0.0252161 0.0182281 -0.000150761)
(-0.0335896 0.0186392 -0.000408168)
(-0.0420502 0.0183072 -0.000763831)
(-0.0502664 0.0172422 -0.00121743)
(-0.0578448 0.015423 -0.00176696)
(-0.0643393 0.0129306 -0.00240752)
(-0.000822769 0.00635635 2.85493e-06)
(-0.00442168 0.015413 0.000215573)
(-0.0108754 0.0213516 0.000258744)
(-0.0187284 0.0249423 0.000193594)
(-0.0274101 0.0268709 3.51823e-05)
(-0.0366055 0.027571 -0.00022089)
(-0.0460082 0.0271948 -0.000577058)
(-0.0552463 0.025687 -0.00103552)
(-0.063812 0.0229417 -0.00159795)
(-0.0710417 0.0190274 -0.00226508)
(-0.000836857 0.00879522 0.000271955)
(-0.00452216 0.0208497 0.000507418)
(-0.0111545 0.0286529 0.000555029)
(-0.0192615 0.0334219 0.000494286)
(-0.0283022 0.0361007 0.000341065)
(-0.0380074 0.0372339 8.99546e-05)
(-0.0481002 0.0369489 -0.000264114)
(-0.0581872 0.0350546 -0.00072774)
(-0.0676378 0.0312569 -0.00130905)
(-0.0754633 0.0255074 -0.002022)
(-0.00081131 0.0112256 0.000663128)
(-0.00441519 0.0263006 0.000917913)
(-0.01094 0.0360148 0.000968009)
(-0.0189742 0.042046 0.000914018)
(-0.0280341 0.0456106 0.000770954)
(-0.0379141 0.0473632 0.000531767)
(-0.0483944 0.0473726 0.000187465)
(-0.0590983 0.0452251 -0.000275165)
(-0.0693106 0.0402783 -0.000874323)
(-0.0776021 0.0321296 -0.00165443)
(-0.00075076 0.0135432 0.00117142)
(-0.00411994 0.031536 0.0014431)
(-0.0102609 0.0431366 0.00149437)
(-0.0178758 0.0504698 0.00145061)
(-0.0265431 0.0550278 0.00132521)
(-0.0361191 0.0575789 0.00110968)
(-0.0464548 0.0581162 0.000790577)
(-0.0572434 0.0559252 0.000346423)
(-0.0678205 0.0498075 -0.000253262)
(-0.0762736 0.0385229 -0.0011175)
(-0.000656027 0.015648 0.00178693)
(-0.00364393 0.03633 0.00207377)
(-0.00912688 0.0496979 0.00212564)
(-0.0159435 0.0582803 0.00209666)
(-0.0237066 0.0638334 0.00199862)
(-0.0322866 0.0672525 0.00182307)
(-0.0415616 0.0684827 0.00155277)
(-0.0513005 0.0665123 0.00115672)
(-0.0611377 0.0594744 0.00059372)
(-0.0689387 0.0445975 -0.000373402)
(-0.000532051 0.0174449 0.00249396)
(-0.00301526 0.0404666 0.00279525)
(-0.00760095 0.0553689 0.00284774)
(-0.0132593 0.0649994 0.00283839)
(-0.0195736 0.0713314 0.00277895)
(-0.026312 0.0753754 0.00266548)
(-0.0332022 0.0770641 0.00248452)
(-0.0398332 0.0751766 0.00220515)
(-0.0461446 0.0673478 0.00180912)
(-0.0510544 0.0495051 0.00089946)
(5.07279e-05 -5.25128e-05 1.25987e-08)
(-0.000480383 0.000296485 1.13675e-06)
(-0.00195931 0.000560988 1.35789e-06)
(-0.00392166 0.000697294 1.55461e-06)
(-0.0061295 0.000753376 1.6611e-06)
(-0.00843042 0.000763131 1.68534e-06)
(-0.0107187 0.000742586 1.65698e-06)
(-0.012909 0.00069534 1.57369e-06)
(-0.0149174 0.000620324 1.417e-06)
(-0.0166609 0.000519739 1.1706e-06)
(-0.000305736 0.000483089 -1.08023e-06)
(-0.00209485 0.00207226 5.94762e-08)
(-0.0056602 0.0032291 -9.26256e-07)
(-0.0101588 0.00388987 -1.23707e-06)
(-0.0151685 0.00420079 -1.31298e-06)
(-0.0204043 0.00427718 -1.35709e-06)
(-0.0256357 0.00417866 -1.32351e-06)
(-0.03066 0.00392197 -1.22422e-06)
(-0.0352765 0.00350945 -1.08945e-06)
(-0.0392918 0.00296139 -9.68872e-07)
(-0.000586768 0.00199486 -1.34802e-06)
(-0.00331513 0.00566012 1.01227e-06)
(-0.00833758 0.00821413 5.6821e-10)
(-0.0145108 0.00973392 -7.4156e-08)
(-0.0213294 0.0104938 5.01551e-08)
(-0.0284614 0.0107085 6.50525e-08)
(-0.0356161 0.0104879 7.87748e-08)
(-0.0425155 0.0098593 1.02703e-07)
(-0.0488645 0.00882697 1.20169e-07)
(-0.0543613 0.00744472 5.9684e-08)
(-0.000740897 0.00403302 -1.59376e-06)
(-0.00404731 0.0102485 1.31218e-06)
(-0.0100031 0.0144222 3.16967e-08)
(-0.0172409 0.0169298 -4.77349e-08)
(-0.0252153 0.0182283 1.31477e-07)
(-0.033589 0.0186397 1.69916e-07)
(-0.0420495 0.0183079 1.99475e-07)
(-0.0502657 0.0172434 2.42366e-07)
(-0.0578452 0.0154252 3.07213e-07)
(-0.0643426 0.0129327 2.48264e-07)
(-0.00080941 0.00635588 -1.731e-06)
(-0.00441214 0.0154135 1.39199e-06)
(-0.0108806 0.021351 -1.11665e-07)
(-0.0187293 0.0249411 -2.50449e-07)
(-0.0274092 0.0268695 -7.29351e-08)
(-0.0366047 0.0275695 -3.00876e-08)
(-0.046007 0.0271935 1.68247e-08)
(-0.0552444 0.0256863 1.00263e-07)
(-0.0638115 0.0229433 3.14189e-07)
(-0.0710473 0.0190298 3.79701e-07)
(-0.000823239 0.00879528 -1.75809e-06)
(-0.00451271 0.0208497 1.44266e-06)
(-0.0111603 0.0286524 -1.35596e-07)
(-0.0192627 0.033421 -3.03546e-07)
(-0.0283015 0.0360994 -1.39567e-07)
(-0.0380066 0.0372322 -1.0556e-07)
(-0.0480987 0.036947 -6.92751e-08)
(-0.0581835 0.035053 6.08607e-10)
(-0.067635 0.0312598 4.41483e-07)
(-0.0754738 0.0255142 8.34234e-07)
(-0.000798035 0.0112261 -1.71749e-06)
(-0.00440613 0.0263001 1.41286e-06)
(-0.010946 0.0360145 -1.48321e-07)
(-0.0189759 0.0420453 -3.3703e-07)
(-0.0280339 0.0456093 -2.06168e-07)
(-0.0379138 0.0473612 -1.95042e-07)
(-0.048393 0.0473697 -2.01269e-07)
(-0.0590916 0.0452218 -2.61847e-07)
(-0.0693015 0.0402842 5.59942e-07)
(-0.0776228 0.032152 1.93649e-06)
(-0.000738384 0.0135443 -1.60507e-06)
(-0.00411164 0.0315353 1.31721e-06)
(-0.010267 0.0431364 -1.54727e-07)
(-0.017878 0.0504695 -3.56897e-07)
(-0.0265437 0.0550265 -2.71619e-07)
(-0.0361198 0.0575761 -2.69105e-07)
(-0.0464545 0.0581102 -2.72505e-07)
(-0.0572305 0.0559123 -5.1836e-07)
(-0.0677908 0.0498012 1.41226e-06)
(-0.0763063 0.0385561 6.91339e-06)
(-0.000645028 0.0156497 -1.40561e-06)
(-0.00363664 0.0363295 1.18675e-06)
(-0.00913262 0.0496985 -1.34282e-07)
(-0.0159463 0.0582813 -3.53164e-07)
(-0.0237088 0.0638338 -3.70518e-07)
(-0.0322909 0.0672514 -4.93759e-07)
(-0.0415698 0.0684761 -7.57861e-07)
(-0.0512921 0.0664857 -2.25639e-06)
(-0.0610767 0.0594208 -3.91212e-07)
(-0.0689732 0.0445677 1.53086e-05)
(-0.000522743 0.0174472 -1.11268e-06)
(-0.00300896 0.0404664 1.06176e-06)
(-0.00760559 0.0553708 -3.89736e-08)
(-0.0132617 0.0650032 -2.30376e-07)
(-0.0195761 0.0713379 -3.34149e-07)
(-0.0263193 0.0753874 -6.79753e-07)
(-0.0332259 0.0770876 -1.62251e-06)
(-0.0398622 0.0752134 -6.79903e-06)
(-0.0460987 0.0673858 -1.45522e-05)
(-0.0511071 0.0495683 2.12447e-06)
(5.07278e-05 -5.25113e-05 -1.09743e-08)
(-0.000480382 0.000296486 -1.13509e-06)
(-0.00195931 0.000560988 -1.35598e-06)
(-0.00392166 0.000697293 -1.55316e-06)
(-0.00612949 0.000753375 -1.66033e-06)
(-0.00843041 0.00076313 -1.68513e-06)
(-0.0107187 0.000742585 -1.65696e-06)
(-0.012909 0.000695339 -1.57359e-06)
(-0.0149174 0.000620323 -1.41666e-06)
(-0.0166609 0.000519739 -1.17011e-06)
(-0.000305736 0.00048309 1.084e-06)
(-0.00209485 0.00207226 -5.63568e-08)
(-0.00566019 0.0032291 9.29116e-07)
(-0.0101588 0.00388986 1.23932e-06)
(-0.0151685 0.00420079 1.31465e-06)
(-0.0204043 0.00427717 1.35831e-06)
(-0.0256357 0.00417865 1.32451e-06)
(-0.0306599 0.00392196 1.22522e-06)
(-0.0352765 0.00350945 1.09049e-06)
(-0.0392918 0.00296139 9.69871e-07)
(-0.000586767 0.00199486 1.35201e-06)
(-0.00331512 0.00566012 -1.0088e-06)
(-0.00833756 0.00821412 2.59643e-09)
(-0.0145108 0.00973391 7.6862e-08)
(-0.0213294 0.0104938 -4.78947e-08)
(-0.0284614 0.0107085 -6.31777e-08)
(-0.0356161 0.0104879 -7.71635e-08)
(-0.0425155 0.00985928 -1.01195e-07)
(-0.0488644 0.00882696 -1.18799e-07)
(-0.0543612 0.00744471 -5.85158e-08)
(-0.000740895 0.00403301 1.59819e-06)
(-0.0040473 0.0102484 -1.30824e-06)
(-0.0100031 0.0144222 -2.8134e-08)
(-0.0172409 0.0169298 5.08981e-08)
(-0.0252152 0.0182283 -1.28676e-07)
(-0.033589 0.0186396 -1.67528e-07)
(-0.0420495 0.0183079 -1.97394e-07)
(-0.0502656 0.0172434 -2.40524e-07)
(-0.0578451 0.0154252 -3.05646e-07)
(-0.0643425 0.0129327 -2.47014e-07)
(-0.000809408 0.00635587 1.73577e-06)
(-0.00441213 0.0154135 -1.38782e-06)
(-0.0108806 0.021351 1.15442e-07)
(-0.0187293 0.0249411 2.53783e-07)
(-0.0274092 0.0268695 7.59113e-08)
(-0.0366046 0.0275695 3.27295e-08)
(-0.0460069 0.0271934 -1.447e-08)
(-0.0552443 0.0256863 -9.82302e-08)
(-0.0638114 0.0229433 -3.12511e-07)
(-0.0710472 0.0190298 -3.78429e-07)
(-0.000823237 0.00879527 1.76294e-06)
(-0.0045127 0.0208497 -1.43847e-06)
(-0.0111603 0.0286524 1.39372e-07)
(-0.0192627 0.033421 3.06922e-07)
(-0.0283015 0.0360993 1.42598e-07)
(-0.0380066 0.0372322 1.08316e-07)
(-0.0480987 0.036947 7.17719e-08)
(-0.0581835 0.035053 1.53134e-09)
(-0.067635 0.0312598 -4.3975e-07)
(-0.0754737 0.0255142 -8.32919e-07)
(-0.000798033 0.0112261 1.72211e-06)
(-0.00440612 0.0263001 -1.40881e-06)
(-0.010946 0.0360144 1.52011e-07)
(-0.0189759 0.0420453 3.40363e-07)
(-0.0280338 0.0456093 2.09214e-07)
(-0.0379137 0.0473612 1.97848e-07)
(-0.048393 0.0473697 2.03824e-07)
(-0.0590915 0.0452218 2.64074e-07)
(-0.0693014 0.0402841 -5.5812e-07)
(-0.0776227 0.032152 -1.93507e-06)
(-0.000738381 0.0135443 1.60939e-06)
(-0.00411163 0.0315353 -1.31332e-06)
(-0.010267 0.0431364 1.58301e-07)
(-0.017878 0.0504694 3.60184e-07)
(-0.0265436 0.0550265 2.74665e-07)
(-0.0361198 0.057576 2.71917e-07)
(-0.0464544 0.0581101 2.75073e-07)
(-0.0572304 0.0559123 5.20679e-07)
(-0.0677907 0.0498012 -1.41026e-06)
(-0.0763063 0.0385561 -6.91175e-06)
(-0.000645027 0.0156497 1.40966e-06)
(-0.00363663 0.0363294 -1.18295e-06)
(-0.00913261 0.0496985 1.3779e-07)
(-0.0159463 0.0582813 3.56363e-07)
(-0.0237088 0.0638338 3.73465e-07)
(-0.0322908 0.0672513 4.96515e-07)
(-0.0415697 0.068476 7.60495e-07)
(-0.0512921 0.0664857 2.25884e-06)
(-0.0610767 0.0594208 3.93338e-07)
(-0.0689732 0.0445677 -1.5307e-05)
(-0.000522741 0.0174472 1.11653e-06)
(-0.00300895 0.0404664 -1.0581e-06)
(-0.00760558 0.0553707 4.23393e-08)
(-0.0132617 0.0650031 2.33433e-07)
(-0.0195761 0.0713378 3.3701e-07)
(-0.0263193 0.0753874 6.82503e-07)
(-0.0332259 0.0770876 1.6252e-06)
(-0.0398621 0.0752133 6.80149e-06)
(-0.0460988 0.0673858 1.45544e-05)
(-0.0511071 0.0495683 -2.12269e-06)
(4.66873e-05 -4.85463e-05 -1.23018e-08)
(-0.000485276 0.000301873 -0.000120343)
(-0.00196061 0.000570724 -0.000178805)
(-0.00392242 0.000709358 -0.000151923)
(-0.00612985 0.000766304 -2.38468e-05)
(-0.00843037 0.000776281 0.000210773)
(-0.0107183 0.000755426 0.000551133)
(-0.0129082 0.000707369 0.000993699)
(-0.014916 0.000631102 0.00153202)
(-0.0166588 0.000528998 0.00215537)
(-0.000311298 0.000488076 0.000120807)
(-0.00209775 0.0020752 -8.95691e-08)
(-0.00565595 0.00323665 -2.95228e-05)
(-0.0101567 0.00389937 2.98586e-05)
(-0.0151679 0.00421054 0.000183291)
(-0.0204043 0.00428688 0.000437462)
(-0.0256362 0.004188 0.000793296)
(-0.0306607 0.0039306 0.00124843)
(-0.0352771 0.00351705 0.00179741)
(-0.0392918 0.00296802 0.00243101)
(-0.000596719 0.00199651 0.000178462)
(-0.00332248 0.00565622 2.76238e-05)
(-0.00833388 0.00821114 -1.35735e-06)
(-0.0145099 0.0097306 6.62971e-05)
(-0.0213297 0.0104896 0.000225774)
(-0.0284616 0.0107038 0.000482558)
(-0.0356164 0.0104831 0.000837624)
(-0.0425158 0.00985441 0.00128939)
(-0.048864 0.0088221 0.00183379)
(-0.0543595 0.00744068 0.00246328)
(-0.000753288 0.00403404 0.000144338)
(-0.00405658 0.0102466 -4.05852e-05)
(-0.00999889 0.0144218 -7.72295e-05)
(-0.0172403 0.0169298 -9.56841e-06)
(-0.025216 0.0182281 0.000150758)
(-0.0335895 0.0186392 0.000408166)
(-0.0420501 0.0183071 0.000763828)
(-0.0502662 0.0172422 0.00121743)
(-0.0578446 0.015423 0.00176696)
(-0.0643391 0.0129306 0.00240752)
(-0.000822764 0.00635634 -2.85996e-06)
(-0.00442166 0.0154129 -0.000215577)
(-0.0108753 0.0213516 -0.000258748)
(-0.0187284 0.0249423 -0.000193598)
(-0.02741 0.0268708 -3.51854e-05)
(-0.0366054 0.0275709 0.000220887)
(-0.0460081 0.0271947 0.000577056)
(-0.0552461 0.025687 0.00103552)
(-0.0638118 0.0229417 0.00159795)
(-0.0710415 0.0190273 0.00226508)
(-0.000836851 0.00879519 -0.00027196)
(-0.00452214 0.0208496 -0.000507422)
(-0.0111545 0.0286528 -0.000555033)
(-0.0192614 0.0334218 -0.000494289)
(-0.0283021 0.0361006 -0.000341068)
(-0.0380073 0.0372338 -8.99575e-05)
(-0.0481001 0.0369488 0.000264111)
(-0.058187 0.0350545 0.000727737)
(-0.0676376 0.0312569 0.00130905)
(-0.0754631 0.0255074 0.002022)
(-0.000811305 0.0112255 -0.000663133)
(-0.00441516 0.0263005 -0.000917917)
(-0.0109399 0.0360147 -0.000968013)
(-0.0189742 0.0420459 -0.000914022)
(-0.028034 0.0456105 -0.000770957)
(-0.0379139 0.0473631 -0.00053177)
(-0.0483943 0.0473725 -0.000187467)
(-0.0590982 0.045225 0.000275163)
(-0.0693105 0.0402782 0.000874321)
(-0.077602 0.0321296 0.00165443)
(-0.000750755 0.0135432 -0.00117143)
(-0.00411992 0.0315359 -0.00144311)
(-0.0102609 0.0431364 -0.00149437)
(-0.0178758 0.0504697 -0.00145062)
(-0.0265431 0.0550277 -0.00132521)
(-0.036119 0.0575787 -0.00110968)
(-0.0464547 0.0581161 -0.000790579)
(-0.0572433 0.0559251 -0.000346426)
(-0.0678204 0.0498075 0.00025326)
(-0.0762735 0.0385229 0.0011175)
(-0.000656022 0.0156479 -0.00178693)
(-0.00364391 0.0363299 -0.00207378)
(-0.00912685 0.0496978 -0.00212564)
(-0.0159435 0.0582802 -0.00209667)
(-0.0237066 0.0638332 -0.00199863)
(-0.0322865 0.0672524 -0.00182307)
(-0.0415615 0.0684827 -0.00155277)
(-0.0513005 0.0665123 -0.00115672)
(-0.0611377 0.0594744 -0.000593722)
(-0.0689387 0.0445976 0.000373401)
(-0.000532048 0.0174448 -0.00249397)
(-0.00301525 0.0404664 -0.00279525)
(-0.00760093 0.0553687 -0.00284774)
(-0.0132593 0.0649992 -0.00283839)
(-0.0195735 0.0713313 -0.00277895)
(-0.0263119 0.0753753 -0.00266548)
(-0.0332022 0.077064 -0.00248453)
(-0.0398332 0.0751766 -0.00220516)
(-0.0461446 0.0673479 -0.00180912)
(-0.0510545 0.0495051 -0.000899462)
(-0.0180758 0.000412763 -0.00284804)
(-0.0191535 0.000301278 -0.00359119)
(-0.0199274 0.000207767 -0.00436776)
(-0.020458 0.000136771 -0.00516467)
(-0.020809 8.69375e-05 -0.00597301)
(-0.0210355 5.41841e-05 -0.00678725)
(-0.0211799 3.39489e-05 -0.00760439)
(-0.0212727 2.23258e-05 -0.00842301)
(-0.0213344 1.63579e-05 -0.00924276)
(-0.021378 1.38953e-05 -0.0100639)
(-0.0214108 1.32817e-05 -0.0108872)
(-0.0214353 1.30223e-05 -0.0117136)
(-0.0214482 1.14243e-05 -0.0125446)
(-0.0214399 5.10928e-06 -0.013381)
(-0.0213919 -9.38349e-06 -0.0142243)
(-0.0212715 -3.75302e-05 -0.0150745)
(-0.0210303 -8.59928e-05 -0.01593)
(-0.020602 -0.000161049 -0.0167862)
(-0.0199081 -0.000265586 -0.0176335)
(-0.0188726 -0.000394837 -0.0184566)
(-0.0425642 0.00234688 -0.00313543)
(-0.0450651 0.00174829 -0.00389342)
(-0.0468779 0.00123887 -0.00468955)
(-0.0481383 0.000843314 -0.00551153)
(-0.0489871 0.000556941 -0.00635024)
(-0.0495456 0.000360702 -0.00719939)
(-0.049908 0.000232119 -0.00805498)
(-0.0501419 0.000151043 -0.00891465)
(-0.050293 0.000101401 -0.0097772)
(-0.0503902 7.07641e-05 -0.0106422)
(-0.0504489 4.89486e-05 -0.0115098)
(-0.0504725 2.62495e-05 -0.0123804)
(-0.0504524 -8.53193e-06 -0.0132546)
(-0.0503641 -7.09503e-05 -0.0141331)
(-0.0501622 -0.000181187 -0.0150159)
(-0.0497747 -0.000365942 -0.0159022)
(-0.049095 -0.000655739 -0.0167894)
(-0.0479818 -0.00107721 -0.0176721)
(-0.0462693 -0.00163895 -0.0185408)
(-0.0437986 -0.00231271 -0.0193814)
(-0.0587735 0.00587536 -0.00316481)
(-0.0620711 0.00437461 -0.00391923)
(-0.0644061 0.00310481 -0.0047111)
(-0.0659969 0.00212205 -0.00552874)
(-0.0670513 0.00141013 -0.00636339)
(-0.0677372 0.000919465 -0.00720897)
(-0.0681784 0.000593791 -0.0080615)
(-0.0684602 0.000383396 -0.00891853)
(-0.0686388 0.000248735 -0.00977869)
(-0.0687485 0.000159052 -0.0106413)
(-0.0688072 8.89275e-05 -0.0115064)
(-0.0688183 1.39821e-05 -0.012374)
(-0.0687703 -9.38607e-05 -0.0132444)
(-0.0686332 -0.000270825 -0.0141181)
(-0.068351 -0.000566275 -0.0149949)
(-0.0678321 -0.00104365 -0.0158741)
(-0.0669382 -0.00177538 -0.0167535)
(-0.0654775 -0.00282511 -0.0176286)
(-0.0632131 -0.00421415 -0.0184912)
(-0.0598998 -0.00587467 -0.0193287)
(-0.0693831 0.0100823 -0.00312583)
(-0.072948 0.00739348 -0.00389487)
(-0.0753237 0.00517148 -0.00469739)
(-0.0768521 0.00349112 -0.0055221)
(-0.0778144 0.00229779 -0.00636087)
(-0.0784144 0.00148759 -0.00720841)
(-0.0787874 0.000954642 -0.00806141)
(-0.0790195 0.000610916 -0.0089179)
(-0.0791631 0.000389199 -0.00977676)
(-0.0792491 0.000238714 -0.0106375)
(-0.0792929 0.000118291 -0.0114999)
(-0.0792978 -1.11586e-05 -0.0123641)
(-0.0792542 -0.000194631 -0.0132304)
(-0.0791359 -0.000491436 -0.0140992)
(-0.0788914 -0.000983614 -0.0149707)
(-0.07843 -0.0017806 -0.0158448)
(-0.0776015 -0.00301368 -0.0167207)
(-0.0761769 -0.0048086 -0.0175958)
(-0.07384 -0.00722644 -0.0184644)
(-0.0702142 -0.0101694 -0.0193163)
(-0.0763171 0.014479 -0.00302414)
(-0.0796437 0.010307 -0.00382748)
(-0.0815862 0.00700279 -0.00465498)
(-0.0826769 0.00460672 -0.00549693)
(-0.0832758 0.00296771 -0.00634663)
(-0.083604 0.00188915 -0.00720048)
(-0.0837866 0.00119662 -0.00805664)
(-0.0838906 0.000757562 -0.00891413)
(-0.0839515 0.000477342 -0.00977248)
(-0.0839878 0.00028814 -0.0106315)
(-0.0840086 0.000137052 -0.0114912)
(-0.0840165 -2.52746e-05 -0.0123518)
(-0.0840083 -0.000256128 -0.0132135)
(-0.0839708 -0.000633873 -0.0140769)
(-0.0838722 -0.00127211 -0.0149426)
(-0.0836445 -0.00233241 -0.0158118)
(-0.0831521 -0.00402565 -0.0166856)
(-0.0821494 -0.00658164 -0.0175646)
(-0.0802344 -0.0101633 -0.0184474)
(-0.0768215 -0.0146963 -0.0193297)
(-0.0805614 0.0186329 -0.00286051)
(-0.0830452 0.0126299 -0.0037239)
(-0.0840356 0.00818703 -0.00459158)
(-0.0843334 0.00516702 -0.00545999)
(-0.0843485 0.00321646 -0.0063259)
(-0.0842755 0.00199361 -0.00718894)
(-0.0841936 0.00123848 -0.00804978)
(-0.0841278 0.000774265 -0.00890905)
(-0.0840826 0.000485444 -0.00976725)
(-0.0840568 0.000295053 -0.0106247)
(-0.0840495 0.000146372 -0.0114816)
(-0.0840623 -1.20917e-05 -0.0123382)
(-0.0841004 -0.000241245 -0.0131946)
(-0.0841704 -0.000628499 -0.0140517)
(-0.0842748 -0.00131042 -0.0149105)
(-0.0843942 -0.00249902 -0.0157732)
(-0.0844487 -0.00450336 -0.0166438)
(-0.0842278 -0.00771572 -0.0175273)
(-0.0832778 -0.0125165 -0.0184292)
(-0.0807133 -0.0190038 -0.0193595)
(-0.0819187 0.0219146 -0.00264254)
(-0.0827032 0.013729 -0.0036009)
(-0.0821634 0.00827808 -0.00452309)
(-0.0813845 0.00490927 -0.00542391)
(-0.0807032 0.00290586 -0.00630765)
(-0.0801987 0.00173396 -0.0071798)
(-0.0798545 0.00104953 -0.00804478)
(-0.0796297 0.000647272 -0.00890532)
(-0.0794879 0.000406845 -0.00976295)
(-0.0794046 0.000255175 -0.0106185)
(-0.0793672 0.000142366 -0.0114723)
(-0.0793753 2.4882e-05 -0.0123244)
(-0.079441 -0.000150016 -0.013175)
(-0.079592 -0.00046318 -0.0140245)
(-0.0798722 -0.00105421 -0.0148741)
(-0.0803356 -0.00216473 -0.0157268)
(-0.0810132 -0.0041987 -0.0165893)
(-0.0818341 -0.00776288 -0.0174723)
(-0.0824371 -0.0136297 -0.018392)
(-0.0816141 -0.0224252 -0.0193907)
(-0.0786425 0.0231502 -0.00239029)
(-0.0764965 0.012678 -0.00348668)
(-0.0739435 0.00681743 -0.00447211)
(-0.0720557 0.00368065 -0.00540492)
(-0.0707904 0.00202449 -0.00630239)
(-0.0699846 0.00114643 -0.00717941)
(-0.0694844 0.000671921 -0.00804546)
(-0.0691753 0.000409682 -0.0089053)
(-0.0689844 0.000261704 -0.00976126)
(-0.0688685 0.000175002 -0.0106144)
(-0.0688062 0.00011689 -0.0114648)
(-0.0687935 6.06152e-05 -0.0123124)
(-0.0688444 -2.68649e-05 -0.0131567)
(-0.068998 -0.000202306 -0.0139974)
(-0.0693299 -0.000575269 -0.0148351)
(-0.0699685 -0.00136444 -0.0156728)
(-0.0710963 -0.00300439 -0.0165193)
(-0.0729224 -0.00628853 -0.0173915)
(-0.0755297 -0.0125573 -0.0183174)
(-0.0777196 -0.023723 -0.0193995)
(-0.0666473 0.0207079 -0.00226102)
(-0.0601712 0.00875451 -0.00349969)
(-0.0558209 0.00380058 -0.00450162)
(-0.05344 0.00172868 -0.00543471)
(-0.0521018 0.000834461 -0.00632552)
(-0.0513393 0.000434033 -0.00719509)
(-0.0508996 0.000244515 -0.00805533)
(-0.0506382 0.000149855 -0.00891089)
(-0.0504763 0.000101564 -0.00976349)
(-0.0503717 7.7851e-05 -0.0106136)
(-0.0503029 6.74199e-05 -0.0114607)
(-0.0502627 6.23357e-05 -0.0123041)
(-0.0502595 5.30238e-05 -0.0131421)
(-0.0503228 1.9936e-05 -0.0139735)
(-0.0505199 -8.54147e-05 -0.0147971)
(-0.0509981 -0.000395022 -0.0156114)
(-0.0520332 -0.00122607 -0.0164244)
(-0.0541571 -0.00334632 -0.0172512)
(-0.0584557 -0.00860391 -0.0181127)
(-0.0651413 -0.0212725 -0.0192203)
(-0.0368829 0.0133882 -0.00256)
(-0.0273803 0.00374137 -0.00373062)
(-0.0236677 0.00110669 -0.00449594)
(-0.0223967 0.00034367 -0.00527095)
(-0.0218573 0.000112984 -0.00605475)
(-0.0215917 4.28068e-05 -0.00684519)
(-0.02145 2.1146e-05 -0.00764169)
(-0.0213659 1.44026e-05 -0.00844164)
(-0.0213095 1.30332e-05 -0.00924282)
(-0.021266 1.45391e-05 -0.0100435)
(-0.0212268 1.84973e-05 -0.0108422)
(-0.0211863 2.524e-05 -0.0116368)
(-0.0211414 3.55047e-05 -0.0124247)
(-0.021093 4.98858e-05 -0.0132015)
(-0.0210592 6.19523e-05 -0.0139596)
(-0.0210908 3.25547e-05 -0.0146917)
(-0.0213219 -0.000155855 -0.015386)
(-0.0222232 -0.000913938 -0.0160241)
(-0.0257038 -0.00371261 -0.0165679)
(-0.0357356 -0.0140866 -0.0174147)
(-0.0180779 0.000405079 8.6057e-07)
(-0.0191551 0.000295263 5.86013e-07)
(-0.0199285 0.000203306 3.78032e-07)
(-0.0204587 0.000133597 2.31847e-07)
(-0.0208094 8.47527e-05 1.36499e-07)
(-0.0210356 5.27179e-05 7.8226e-08)
(-0.02118 3.29805e-05 4.45527e-08)
(-0.0212727 2.16902e-05 2.64018e-08)
(-0.0213344 1.59416e-05 1.77189e-08)
(-0.0213779 1.36291e-05 1.45285e-08)
(-0.0214107 1.31357e-05 1.40904e-08)
(-0.0214352 1.29986e-05 1.55332e-08)
(-0.0214481 1.15604e-05 1.69984e-08)
(-0.0214399 5.51757e-06 1.15835e-08)
(-0.0213919 -8.52608e-06 -7.65846e-09)
(-0.0212717 -3.59801e-05 -4.79666e-08)
(-0.0210308 -8.343e-05 -1.25189e-07)
(-0.020603 -0.000157101 -2.58043e-07)
(-0.0199098 -0.000259908 -4.65661e-07)
(-0.0188749 -0.000387283 -7.62507e-07)
(-0.042564 0.00234084 -8.91738e-07)
(-0.0450644 0.00174331 -7.64734e-07)
(-0.0468768 0.00123513 -6.11474e-07)
(-0.0481371 0.000840632 -4.65652e-07)
(-0.0489859 0.000555095 -3.39698e-07)
(-0.0495447 0.00035947 -2.3934e-07)
(-0.0499073 0.000231312 -1.6464e-07)
(-0.0501413 0.000150519 -1.11563e-07)
(-0.0502926 0.00010106 -7.44463e-08)
(-0.0503898 7.05464e-05 -4.72615e-08)
(-0.0504485 4.88237e-05 -2.3838e-08)
(-0.0504721 2.62114e-05 1.34231e-09)
(-0.0504518 -8.46205e-06 3.4824e-08)
(-0.0503633 -7.06841e-05 8.56327e-08)
(-0.0501611 -0.000180583 1.65007e-07)
(-0.0497732 -0.000364799 2.784e-07)
(-0.0490933 -0.000653788 4.29256e-07)
(-0.0479801 -0.00107412 6.13248e-07)
(-0.0462682 -0.00163447 8.11934e-07)
(-0.0437983 -0.00230703 9.72642e-07)
(-0.0587752 0.00587708 -1.39937e-07)
(-0.0620716 0.00437539 -2.15494e-07)
(-0.0644056 0.00310538 -2.16521e-07)
(-0.0659962 0.00212251 -1.93634e-07)
(-0.0670505 0.00141051 -1.5731e-07)
(-0.0677365 0.000919788 -1.19089e-07)
(-0.0681778 0.000594049 -8.60675e-08)
(-0.0684598 0.000383592 -5.99016e-08)
(-0.0686384 0.000248876 -3.98611e-08)
(-0.0687482 0.000159141 -2.41476e-08)
(-0.0688069 8.89586e-05 -1.0289e-08)
(-0.0688179 1.3941e-05 4.14813e-09)
(-0.0687699 -9.39954e-05 1.95076e-08)
(-0.0686326 -0.00027109 4.33074e-08)
(-0.0683501 -0.000566704 7.69468e-08)
(-0.067831 -0.00104426 1.20343e-07)
(-0.0669371 -0.00177617 1.69136e-07)
(-0.0654766 -0.00282604 2.16231e-07)
(-0.0632131 -0.00421521 2.49275e-07)
(-0.0599015 -0.00587672 1.86735e-07)
(-0.0693865 0.0100806 -1.65117e-07)
(-0.0729486 0.00739156 -2.63129e-07)
(-0.075323 0.00517042 -2.39117e-07)
(-0.0768511 0.00349066 -2.0282e-07)
(-0.0778135 0.0022977 -1.55813e-07)
(-0.0784136 0.0014877 -1.11365e-07)
(-0.0787868 0.000954822 -7.65833e-08)
(-0.079019 0.00061109 -5.09336e-08)
(-0.0791628 0.000389335 -3.23906e-08)
(-0.0792488 0.000238796 -1.86589e-08)
(-0.0792926 0.000118309 -7.5229e-09)
(-0.0792975 -1.1214e-05 2.80424e-09)
(-0.0792538 -0.000194773 1.64649e-08)
(-0.0791353 -0.000491671 3.50703e-08)
(-0.0788906 -0.00098391 6.32745e-08)
(-0.0784289 -0.00178085 1.04861e-07)
(-0.0776002 -0.00301371 1.56676e-07)
(-0.0761757 -0.00480802 2.18102e-07)
(-0.0738402 -0.00722467 2.98987e-07)
(-0.0702177 -0.0101677 2.32106e-07)
(-0.0763228 0.0144733 -4.67477e-07)
(-0.0796435 0.0103022 -4.96683e-07)
(-0.0815843 0.00700065 -3.60393e-07)
(-0.0826751 0.0046059 -2.7101e-07)
(-0.0832744 0.00296759 -1.85247e-07)
(-0.083603 0.00188935 -1.17328e-07)
(-0.0837858 0.0011969 -7.24707e-08)
(-0.0838901 0.000757813 -4.38625e-08)
(-0.0839512 0.000477529 -2.57552e-08)
(-0.0839876 0.00028825 -1.40586e-08)
(-0.0840083 0.00013708 -5.50484e-09)
(-0.0840163 -2.53341e-05 2.77536e-09)
(-0.084008 -0.000256303 1.15583e-08)
(-0.0839702 -0.000634166 2.65973e-08)
(-0.0838713 -0.00127247 5.47999e-08)
(-0.0836431 -0.00233266 1.06635e-07)
(-0.0831502 -0.00402548 1.79619e-07)
(-0.0821468 -0.00658023 2.84783e-07)
(-0.0802334 -0.0101588 5.18658e-07)
(-0.0768274 -0.0146902 5.79842e-07)
(-0.0805719 0.0186204 -1.12857e-06)
(-0.0830422 0.0126216 -8.58565e-07)
(-0.0840311 0.00818442 -4.63262e-07)
(-0.0843304 0.00516647 -3.04395e-07)
(-0.0843465 0.00321673 -1.77853e-07)
(-0.0842743 0.00199413 -9.16914e-08)
(-0.0841929 0.00123897 -4.55185e-08)
(-0.0841274 0.000774639 -2.15861e-08)
(-0.0840824 0.0004857 -9.4513e-09)
(-0.0840566 0.000295204 -3.62569e-09)
(-0.0840493 0.000146423 -1.80446e-10)
(-0.0840622 -1.21471e-05 5.58872e-09)
(-0.0841002 -0.000241423 3.1494e-09)
(-0.08417 -0.000628839 7.12698e-09)
(-0.0842739 -0.0013109 2.45147e-08)
(-0.0843926 -0.00249944 7.509e-08)
(-0.0844458 -0.00450335 1.50404e-07)
(-0.0842222 -0.00771394 2.80533e-07)
(-0.0832734 -0.0125082 8.37211e-07)
(-0.080724 -0.0189905 1.36182e-06)
(-0.0819394 0.0218963 -3.11804e-06)
(-0.0826932 0.0137225 -1.83176e-06)
(-0.0821539 0.00827952 -7.38025e-07)
(-0.08138 0.00491121 -3.96874e-07)
(-0.0807008 0.00290745 -1.78963e-07)
(-0.0801975 0.00173515 -6.12085e-08)
(-0.079854 0.00105032 -1.5375e-08)
(-0.0796295 0.000647763 1.23751e-09)
(-0.0794878 0.000407151 6.20608e-09)
(-0.0794046 0.000255362 6.08393e-09)
(-0.0793673 0.000142459 3.3489e-09)
(-0.0793753 2.48742e-05 -3.26141e-09)
(-0.079441 -0.000150133 -1.71498e-09)
(-0.0795918 -0.000463512 -5.1005e-09)
(-0.0798715 -0.00105486 7.53714e-09)
(-0.0803339 -0.0021658 7.85027e-08)
(-0.0810093 -0.00420048 2.01275e-07)
(-0.0818236 -0.00776485 4.28547e-07)
(-0.082425 -0.0136233 1.77331e-06)
(-0.0816354 -0.0224062 3.6372e-06)
(-0.0786809 0.0231195 -5.49442e-06)
(-0.0764747 0.0126825 -1.96075e-06)
(-0.0739314 0.00682974 -3.03361e-07)
(-0.072053 0.00368739 -1.65488e-07)
(-0.0707894 0.00202789 -1.74611e-08)
(-0.0699843 0.00114826 4.74737e-08)
(-0.0694845 0.000672875 4.61747e-08)
(-0.0691755 0.000410188 3.54678e-08)
(-0.0689845 0.000262002 2.67847e-08)
(-0.0688686 0.000175204 1.99695e-08)
(-0.0688064 0.00011704 1.36128e-08)
(-0.0687936 6.07033e-05 6.77417e-09)
(-0.0688446 -2.6915e-05 2.28285e-09)
(-0.0689983 -0.000202627 -1.08184e-08)
(-0.06933 -0.000576244 -1.45845e-08)
(-0.0699684 -0.00136678 3.19511e-08)
(-0.0710951 -0.00301024 7.66221e-08)
(-0.0729102 -0.00630097 -5.49693e-08)
(-0.0755059 -0.012562 1.73086e-06)
(-0.0777593 -0.023689 6.09768e-06)
(-0.0666913 0.0205822 -7.38349e-06)
(-0.0601242 0.00872098 2.58607e-06)
(-0.0558131 0.00379551 2.87349e-06)
(-0.0534458 0.00172507 1.09679e-06)
(-0.0521049 0.000831802 5.47599e-07)
(-0.0513408 0.000432493 3.26481e-07)
(-0.0509006 0.000243606 1.80206e-07)
(-0.0506387 0.000149293 1.04136e-07)
(-0.0504766 0.000101214 6.87355e-08)
(-0.050372 7.76405e-05 5.19253e-08)
(-0.0503031 6.73238e-05 4.24193e-08)
(-0.050263 6.23664e-05 2.96726e-08)
(-0.05026 5.32022e-05 2.46042e-09)
(-0.0503238 2.03412e-05 -4.29529e-08)
(-0.0505215 -8.4529e-05 -1.56361e-07)
(-0.0510021 -0.000392954 -3.25066e-07)
(-0.0520415 -0.00122264 -9.34353e-07)
(-0.0541509 -0.00334108 -3.2472e-06)
(-0.0584044 -0.00856725 -3.49609e-06)
(-0.0651816 -0.0211299 7.88223e-06)
(-0.0368986 0.0132973 -3.48759e-05)
(-0.0272756 0.00370332 -4.40444e-06)
(-0.0236422 0.00109215 2.15661e-08)
(-0.0223954 0.000335349 -8.21039e-07)
(-0.0218557 0.000108224 -5.19201e-07)
(-0.0215905 4.02614e-05 -2.20236e-07)
(-0.0214496 1.97626e-05 -1.11942e-07)
(-0.0213657 1.36098e-05 -6.36403e-08)
(-0.0213094 1.25505e-05 -3.64137e-08)
(-0.0212659 1.423e-05 -2.10815e-08)
(-0.0212267 1.83119e-05 -1.03279e-08)
(-0.0211863 2.51991e-05 3.06416e-09)
(-0.0211414 3.56921e-05 2.41856e-08)
(-0.0210928 5.04345e-05 4.1584e-08)
(-0.0210583 6.33782e-05 9.67794e-08)
(-0.0210897 3.60519e-05 3.72024e-07)
(-0.0213222 -0.000148486 6.75078e-07)
(-0.0221982 -0.000899722 -6.67378e-07)
(-0.0255848 -0.00367245 3.15579e-06)
(-0.0357375 -0.0139818 3.87066e-05)
(-0.0180779 0.000405079 -8.60018e-07)
(-0.0191551 0.000295263 -5.85588e-07)
(-0.0199285 0.000203306 -3.778e-07)
(-0.0204587 0.000133597 -2.31776e-07)
(-0.0208094 8.47527e-05 -1.36442e-07)
(-0.0210356 5.27179e-05 -7.80779e-08)