/*--------------------------------*- C++ -*----------------------------------*\
| =========                 |                                                 |
| \\      /  F ield         | OpenFOAM: The Open Source CFD Toolbox           |
|  \\    /   O peration     | Version:  2.4.0                                 |
|   \\  /    A nd           | Web:      www.OpenFOAM.org                      |
|    \\/     M anipulation  |                                                 |
\*---------------------------------------------------------------------------*/
FoamFile
{
    version     2.0;
    format      ascii;
    class       volScalarField;
    location    "0.635";
    object      T;
}
// * * * * * * * * * * * * * * * * * * * * * * * * * * * * * * * * * * * * * //

dimensions      [0 0 0 1 0 0 0];

internalField   nonuniform List<scalar> 
1600
(
101.398
104.194
106.988
109.778
112.562
115.339
118.107
120.864
123.609
126.341
129.058
131.758
134.44
137.104
139.746
142.368
144.967
147.543
150.095
152.623
155.126
157.604
160.058
162.488
164.893
167.276
169.636
171.974
174.293
176.593
178.875
181.142
183.394
185.634
187.863
190.082
192.294
194.5
196.701
198.901
101.399
104.197
106.993
109.784
112.57
115.349
118.118
120.877
123.625
126.358
129.076
131.778
134.462
137.126
139.77
142.392
144.992
147.568
150.121
152.649
155.152
157.63
160.084
162.513
164.918
167.299
169.658
171.996
174.313
176.612
178.893
181.158
183.408
185.646
187.873
190.091
192.301
194.505
196.705
198.902
101.401
104.202
107.001
109.796
112.586
115.368
118.141
120.904
123.654
126.391
129.112
131.816
134.502
137.169
139.815
142.439
145.041
147.619
150.172
152.701
155.204
157.683
160.136
162.564
164.968
167.347
169.705
172.04
174.355
176.65
178.928
181.189
183.437
185.671
187.894
190.108
192.314
194.514
196.71
198.904
101.404
104.21
107.015
109.815
112.61
115.397
118.175
120.943
123.698
126.439
129.164
131.873
134.563
137.233
139.882
142.509
145.113
147.693
150.248
152.777
155.281
157.76
160.212
162.639
165.041
167.419
169.773
172.105
174.416
176.707
178.981
181.237
183.479
185.708
187.926
190.134
192.335
194.529
196.719
198.907
101.407
104.221
107.032
109.84
112.641
115.435
118.22
120.994
123.755
126.502
129.234
131.947
134.642
137.317
139.971
142.601
145.208
147.79
150.347
152.878
155.383
157.861
160.313
162.738
165.138
167.513
169.864
172.192
174.498
176.784
179.051
181.301
183.536
185.758
187.969
190.169
192.362
194.549
196.731
198.911
101.412
104.234
107.054
109.87
112.68
115.483
118.276
121.058
123.827
126.581
129.319
132.04
134.741
137.421
140.079
142.715
145.325
147.911
150.47
153.003
155.508
157.986
160.437
162.861
165.259
167.63
169.977
172.3
174.6
176.879
179.139
181.381
183.608
185.821
188.022
190.213
192.396
194.573
196.746
198.916
101.417
104.25
107.08
109.906
112.727
115.539
118.342
121.133
123.911
126.675
129.421
132.149
134.857
137.544
140.209
142.849
145.464
148.053
150.615
153.15
155.657
158.135
160.585
163.007
165.402
167.77
170.111
172.428
174.722
176.993
179.244
181.477
183.694
185.896
188.086
190.266
192.438
194.603
196.763
198.921
101.423
104.268
107.11
109.949
112.781
115.605
118.419
121.221
124.01
126.783
129.539
132.276
134.992
137.687
140.358
143.004
145.624
148.218
150.783
153.32
155.828
158.307
160.756
163.176
165.568
167.931
170.267
172.577
174.863
177.126
179.367
181.589
183.794
185.984
188.161
190.328
192.486
194.637
196.784
198.928
101.43
104.288
107.145
109.997
112.842
115.68
118.506
121.321
124.121
126.906
129.672
132.419
135.145
137.848
140.526
143.179
145.805
148.403
150.972
153.512
156.022
158.501
160.949
163.367
165.755
168.114
170.444
172.747
175.024
177.277
179.507
181.717
183.909
186.085
188.248
190.399
192.542
194.677
196.808
198.936
101.438
104.312
107.184
110.051
112.912
115.763
118.605
121.433
124.246
127.043
129.822
132.58
135.315
138.027
140.714
143.375
146.007
148.61
151.183
153.726
156.237
158.716
161.164
163.579
165.964
168.317
170.641
172.936
175.204
177.446
179.664
181.861
184.038
186.198
188.345
190.479
192.604
194.722
196.835
198.945
101.446
104.338
107.227
110.111
112.989
115.857
118.714
121.557
124.385
127.196
129.987
132.757
135.504
138.226
140.922
143.59
146.229
148.837
151.415
153.96
156.473
158.952
161.399
163.812
166.193
168.541
170.858
173.145
175.402
177.633
179.838
182.02
184.181
186.325
188.453
190.569
192.674
194.772
196.866
198.955
101.456
104.367
107.275
110.178
113.074
115.96
118.834
121.694
124.538
127.364
130.169
132.952
135.71
138.443
141.149
143.825
146.471
149.085
151.667
154.215
156.729
159.209
161.655
164.065
166.442
168.785
171.094
173.372
175.619
177.837
180.029
182.195
184.339
186.464
188.573
190.667
192.752
194.828
196.899
198.967
101.467
104.398
107.328
110.251
113.167
116.073
118.966
121.844
124.705
127.547
130.367
133.164
135.936
138.68
141.395
144.08
146.734
149.354
151.94
154.491
157.007
159.487
161.93
164.338
166.71
169.047
171.349
173.617
175.853
178.059
180.235
182.385
184.512
186.617
188.704
190.776
192.837
194.889
196.936
198.979
101.478
104.433
107.385
110.332
113.27
116.197
119.11
122.008
124.888
127.747
130.584
133.395
136.18
138.937
141.663
144.357
147.017
149.643
152.234
154.788
157.305
159.785
162.227
164.631
166.998
169.328
171.622
173.881
176.105
178.297
180.459
182.591
184.698
186.782
188.846
190.894
192.93
194.956
196.976
198.992
101.491
104.471
107.449
110.42
113.382
116.332
119.268
122.187
125.087
127.965
130.819
133.646
136.445
139.215
141.952
144.655
147.324
149.956
152.551
155.108
157.626
160.105
162.545
164.945
167.307
169.63
171.915
174.163
176.375
178.553
180.698
182.813
184.899
186.961
189.001
191.023
193.031
195.028
197.02
199.007
101.505
104.513
107.518
110.516
113.504
116.479
119.44
122.382
125.303
128.201
131.074
133.918
136.733
139.515
142.264
144.977
147.654
150.292
152.892
155.451
157.971
160.449
162.886
165.283
167.638
169.953
172.229
174.466
176.664
178.827
180.955
183.05
185.115
187.153
189.168
191.162
193.14
195.107
197.068
199.022
101.52
104.559
107.593
110.621
113.637
116.64
119.627
122.594
125.538
128.458
131.351
134.213
137.044
139.841
142.602
145.325
148.01
150.655
153.26
155.822
158.342
160.819
163.254
165.646
167.995
170.301
172.566
174.79
176.974
179.12
181.23
183.304
185.347
187.36
189.347
191.312
193.259
195.193
197.119
199.04
101.537
104.608
107.676
110.735
113.783
116.816
119.831
122.825
125.795
128.738
131.652
134.534
137.382
140.194
142.968
145.703
148.396
151.048
153.657
156.223
158.744
161.22
163.651
166.038
168.379
170.676
172.93
175.14
177.308
179.436
181.526
183.578
185.596
187.582
189.541
191.474
193.387
195.285
197.175
199.058
101.555
104.663
107.767
110.861
113.943
117.008
120.054
123.077
126.075
129.043
131.98
134.883
137.749
140.577
143.365
146.112
148.815
151.475
154.089
156.657
159.179
161.654
164.082
166.462
168.796
171.082
173.323
175.518
177.67
179.778
181.845
183.873
185.864
187.822
189.749
191.649
193.526
195.386
197.236
199.078
101.575
104.723
107.866
110.999
114.118
117.219
120.299
123.354
126.38
129.376
132.338
135.263
138.149
140.995
143.798
146.557
149.271
151.938
154.558
157.129
159.652
162.125
164.549
166.923
169.248
171.523
173.75
175.929
178.062
180.148
182.191
184.192
186.154
188.08
189.974
191.838
193.676
195.495
197.302
199.1
101.597
104.79
107.976
111.151
114.31
117.45
120.567
123.657
126.715
129.741
132.729
135.678
138.586
141.451
144.27
147.042
149.767
152.443
155.068
157.643
160.167
162.638
165.058
167.425
169.74
172.004
174.215
176.377
178.488
180.551
182.568
184.54
186.47
188.361
190.217
192.042
193.839
195.613
197.374
199.124
101.622
104.863
108.096
111.318
114.522
117.705
120.862
123.989
127.083
130.14
133.158
136.133
139.064
141.949
144.785
147.572
150.309
152.993
155.625
158.204
160.728
163.198
165.613
167.973
170.278
172.528
174.723
176.865
178.954
180.991
182.979
184.919
186.814
188.668
190.483
192.265
194.016
195.743
197.453
199.15
101.649
104.943
108.23
111.502
114.756
117.986
121.187
124.355
127.487
130.579
133.628
136.632
139.588
142.494
145.349
148.152
150.901
153.595
156.234
158.816
161.342
163.809
166.219
168.571
170.865
173.1
175.278
177.399
179.463
181.473
183.429
185.335
187.191
189.003
190.774
192.508
194.209
195.884
197.539
199.178
101.679
105.033
108.377
111.707
115.015
118.296
121.546
124.759
127.933
131.062
134.145
137.179
140.162
143.092
145.967
148.786
151.548
154.253
156.898
159.485
162.011
164.477
166.881
169.224
171.506
173.726
175.885
177.983
180.021
182
183.923
185.79
187.605
189.371
191.093
192.775
194.421
196.038
197.634
199.21
101.712
105.132
108.542
111.934
115.301
118.64
121.942
125.205
128.424
131.594
134.714
137.781
140.792
143.747
146.643
149.48
152.256
154.972
157.625
160.215
162.743
165.206
167.605
169.938
172.207
174.41
176.549
178.623
180.632
182.579
184.465
186.291
188.061
189.777
191.445
193.069
194.655
196.208
197.739
199.244
101.749
105.243
108.724
112.186
115.62
119.021
122.382
125.698
128.966
132.181
135.341
138.443
141.485
144.466
147.384
150.24
153.031
155.758
158.419
161.014
163.542
166.002
168.395
170.719
172.974
175.159
177.276
179.324
181.303
183.215
185.061
186.843
188.563
190.225
191.833
193.394
194.913
196.396
197.854
199.283
101.79
105.367
108.928
112.467
115.975
119.445
122.87
126.245
129.566
132.829
136.031
139.17
142.245
145.254
148.196
151.071
153.878
156.616
159.285
161.885
164.414
166.871
169.257
171.571
173.811
175.978
178.072
180.092
182.039
183.914
185.717
187.451
189.117
190.72
192.264
193.755
195.199
196.605
197.982
199.325
101.837
105.505
109.157
112.782
116.371
119.917
123.412
126.851
130.229
133.544
136.791
139.971
143.08
146.118
149.085
151.981
154.804
157.554
160.231
162.835
165.364
167.819
170.198
172.5
174.726
176.874
178.943
180.934
182.847
184.682
186.439
188.121
189.73
191.269
192.742
194.156
195.518
196.837
198.124
199.373
101.889
105.661
109.413
113.134
116.814
120.443
124.015
127.524
130.964
134.333
137.629
140.851
143.996
147.065
150.058
152.974
155.814
158.577
161.262
163.87
166.4
168.851
171.223
173.514
175.724
177.851
179.896
181.857
183.733
185.526
187.235
188.862
190.409
191.878
193.274
194.603
195.874
197.097
198.283
199.426
101.948
105.837
109.702
113.531
117.311
121.033
124.688
128.271
131.778
135.206
138.553
141.818
145.001
148.102
151.121
154.059
156.915
159.69
162.384
164.996
167.527
169.974
172.338
174.618
176.812
178.918
180.937
182.866
184.706
186.455
188.113
189.681
191.161
192.555
193.867
195.104
196.274
197.39
198.462
199.486
102.015
106.037
110.03
113.98
117.871
121.693
125.439
129.103
132.68
136.169
139.569
142.88
146.101
149.235
152.281
155.24
158.113
160.901
163.603
166.219
168.75
171.194
173.55
175.818
177.995
180.081
182.073
183.971
185.772
187.475
189.081
190.588
191.997
193.31
194.531
195.666
196.725
197.72
198.664
199.554
102.093
106.265
110.404
114.489
118.503
122.436
126.28
130.029
133.68
137.233
140.687
144.044
147.305
150.471
153.544
156.524
159.414
162.214
164.924
167.545
170.076
172.516
174.865
177.12
179.281
181.346
183.312
185.177
186.94
188.597
190.148
191.591
192.926
194.153
195.276
196.301
197.235
198.095
198.893
199.631
102.182
106.529
110.834
115.071
119.222
123.275
127.222
131.061
134.788
138.407
141.916
145.32
148.619
151.818
154.917
157.918
160.824
163.636
166.354
168.979
171.509
173.946
176.287
178.531
180.676
182.72
184.66
186.494
188.218
189.83
191.326
192.704
193.962
195.099
196.117
197.02
197.818
198.525
199.157
199.721
102.286
106.838
111.333
115.741
120.042
124.224
128.281
132.212
136.017
139.701
143.265
146.714
150.052
153.281
156.405
159.427
162.349
165.172
167.897
170.525
173.056
175.489
177.823
180.056
182.186
184.21
186.126
187.929
189.616
191.183
192.625
193.938
195.117
196.161
197.069
197.842
198.488
199.023
199.463
199.827
102.411
107.204
111.92
116.521
120.984
125.302
129.472
133.496
137.379
141.126
144.743
148.236
151.609
154.868
158.016
161.056
163.993
166.826
169.558
172.19
174.721
177.151
179.478
181.701
183.817
185.823
187.716
189.491
191.143
192.667
194.057
195.307
196.41
197.36
198.153
198.788
199.267
199.609
199.826
199.956
102.565
107.651
112.623
117.437
122.074
126.532
130.815
134.93
138.886
142.693
146.359
149.892
153.298
156.583
159.753
162.811
165.76
168.603
171.341
173.976
176.507
178.935
181.256
183.47
185.574
187.565
189.437
191.187
192.808
194.294
195.637
196.828
197.858
198.716
199.394
199.885
200.185
200.31
200.266
200.112
102.764
108.213
113.484
118.529
123.345
127.94
132.33
136.529
140.552
144.413
148.122
151.69
155.125
158.433
161.622
164.694
167.655
170.507
173.251
175.889
178.421
180.846
183.163
185.37
187.465
189.442
191.298
193.027
194.622
196.075
197.377
198.517
199.482
200.257
200.826
201.174
201.286
201.168
200.809
200.307
103.037
108.956
114.563
119.845
124.833
129.554
134.038
138.309
142.389
146.294
150.039
153.636
157.095
160.423
163.627
166.712
169.683
172.542
175.291
177.932
180.465
182.89
185.204
187.407
189.494
191.462
193.305
195.018
196.593
198.021
199.292
200.391
201.303
202.01
202.486
202.706
202.633
202.254
201.514
200.568
103.496
109.997
115.938
121.441
126.577
131.402
135.96
140.287
144.41
148.349
152.121
155.74
159.217
162.56
165.776
168.871
171.849
174.714
177.468
180.113
182.647
185.072
187.386
189.586
191.669
193.631
195.467
197.17
198.732
200.143
201.392
202.464
203.34
203.998
204.408
204.533
204.312
203.691
202.527
201.007
104.344
111.581
117.798
123.45
128.677
133.56
138.158
142.514
146.659
150.616
154.403
158.033
161.52
164.87
168.093
171.194
174.177
177.045
179.802
182.448
184.984
187.409
189.722
191.921
194.002
195.961
197.793
199.49
201.046
202.448
203.685
204.742
205.598
206.229
206.601
206.674
206.37
205.613
204.156
202.057
)
;

boundaryField
{
    carasuperior
    {
        type            fixedGradient;
        gradient        uniform 100;
    }
    lateralizquierda
    {
        type            fixedValue;
        value           uniform 100;
    }
    lateralderecha
    {
        type            fixedValue;
        value           uniform 200;
    }
    carainferior
    {
        type            zeroGradient;
    }
    frontAndBack
    {
        type            empty;
    }
}


// ************************************************************************* //
