/*--------------------------------*- C++ -*----------------------------------*\
| =========                 |                                                 |
| \\      /  F ield         | OpenFOAM: The Open Source CFD Toolbox           |
|  \\    /   O peration     | Version:  2.4.0                                 |
|   \\  /    A nd           | Web:      www.OpenFOAM.org                      |
|    \\/     M anipulation  |                                                 |
\*---------------------------------------------------------------------------*/
FoamFile
{
    version     2.0;
    format      ascii;
    class       volScalarField;
    location    "0.01";
    object      T;
}
// * * * * * * * * * * * * * * * * * * * * * * * * * * * * * * * * * * * * * //

dimensions      [0 0 0 1 0 0 0];

internalField   nonuniform List<scalar> 
4800
(
100.194
100.581
100.968
101.354
101.738
102.117
102.487
102.844
103.182
103.493
100.581
101.742
102.903
104.063
105.217
106.359
107.475
108.552
109.571
110.511
100.968
102.904
104.841
106.779
108.71
110.625
112.503
114.319
116.039
117.626
101.354
104.063
106.779
109.5
112.22
114.927
117.594
120.182
122.64
124.908
101.738
105.218
108.711
112.221
115.745
119.269
122.762
126.175
129.431
132.439
102.117
106.359
110.625
114.928
119.269
123.641
128.012
132.323
136.471
140.314
102.488
107.476
112.504
117.595
122.764
128.013
133.323
138.633
143.817
148.66
102.845
108.554
114.321
120.184
126.177
132.325
138.634
145.068
151.502
157.641
103.182
109.573
116.042
122.644
129.435
136.475
143.82
151.504
159.482
167.46
103.494
110.514
117.631
124.915
132.445
140.321
148.666
157.645
167.462
178.222
100.194
100.581
100.968
101.354
101.738
102.117
102.487
102.844
103.182
103.493
100.581
101.742
102.903
104.063
105.217
106.359
107.475
108.552
109.571
110.511
100.968
102.903
104.841
106.779
108.71
110.625
112.503
114.319
116.039
117.626
101.354
104.063
106.779
109.5
112.22
114.927
117.594
120.182
122.64
124.908
101.738
105.218
108.711
112.221
115.745
119.269
122.762
126.174
129.431
132.438
102.117
106.359
110.625
114.928
119.269
123.641
128.012
132.323
136.471
140.314
102.488
107.476
112.505
117.595
122.764
128.013
133.323
138.633
143.817
148.66
102.845
108.554
114.321
120.185
126.177
132.325
138.634
145.068
151.502
157.641
103.183
109.573
116.043
122.645
129.436
136.476
143.82
151.504
159.482
167.46
103.494
110.515
117.631
124.915
132.446
140.322
148.667
157.646
167.463
178.223
100.194
100.581
100.968
101.354
101.738
102.117
102.487
102.844
103.182
103.493
100.581
101.742
102.903
104.063
105.217
106.359
107.475
108.552
109.571
110.511
100.968
102.903
104.841
106.779
108.71
110.625
112.503
114.319
116.039
117.626
101.354
104.063
106.779
109.5
112.22
114.927
117.594
120.182
122.64
124.908
101.738
105.218
108.711
112.221
115.745
119.269
122.762
126.174
129.431
132.438
102.117
106.359
110.625
114.928
119.269
123.641
128.012
132.323
136.471
140.314
102.488
107.476
112.505
117.595
122.764
128.013
133.323
138.633
143.817
148.66
102.845
108.554
114.321
120.185
126.177
132.325
138.634
145.068
151.502
157.641
103.183
109.573
116.043
122.645
129.436
136.476
143.82
151.504
159.482
167.46
103.494
110.515
117.631
124.915
132.446
140.322
148.667
157.646
167.463
178.223
100.194
100.581
100.968
101.354
101.738
102.117
102.487
102.844
103.182
103.493
100.581
101.742
102.903
104.063
105.217
106.359
107.475
108.552
109.571
110.511
100.968
102.904
104.841
106.779
108.71
110.625
112.503
114.319
116.039
117.626
101.354
104.063
106.779
109.5
112.22
114.927
117.594
120.182
122.64
124.908
101.738
105.218
108.711
112.221
115.745
119.269
122.762
126.175
129.431
132.439
102.117
106.359
110.625
114.928
119.269
123.641
128.012
132.323
136.471
140.314
102.488
107.476
112.504
117.595
122.764
128.013
133.323
138.633
143.817
148.66
102.845
108.554
114.321
120.184
126.177
132.325
138.634
145.068
151.502
157.641
103.182
109.573
116.042
122.644
129.435
136.475
143.82
151.504
159.482
167.46
103.494
110.514
117.631
124.915
132.445
140.321
148.666
157.645
167.462
178.222
103.773
104.016
104.222
104.391
104.526
104.63
104.707
104.762
104.796
104.813
104.813
104.796
104.761
104.707
104.63
104.526
104.391
104.222
104.016
103.773
111.354
112.087
112.704
113.208
113.609
113.916
114.144
114.304
114.405
114.454
114.454
114.405
114.304
114.144
113.916
113.608
113.208
112.703
112.086
111.353
119.045
120.272
121.298
122.13
122.784
123.283
123.65
123.906
124.067
124.145
124.145
124.067
123.905
123.649
123.281
122.782
122.128
121.297
120.271
119.044
126.928
128.659
130.088
131.229
132.114
132.78
133.266
133.602
133.812
133.914
133.913
133.812
133.601
133.265
132.779
132.112
131.227
130.086
128.657
126.927
135.1
137.347
139.164
140.584
141.662
142.459
143.032
143.423
143.667
143.783
143.783
143.666
143.422
143.03
142.457
141.66
140.581
139.162
137.345
135.098
143.687
146.465
148.638
150.28
151.49
152.363
152.978
153.393
153.649
153.77
153.77
153.648
153.392
152.977
152.361
151.488
150.278
148.636
146.462
143.685
152.869
156.186
158.644
160.408
161.655
162.526
163.125
163.522
163.764
163.879
163.878
163.763
163.521
163.123
162.524
161.653
160.406
158.641
156.184
152.867
162.943
166.766
169.342
171.053
172.195
172.96
173.473
173.806
174.007
174.102
174.101
174.007
173.806
173.472
172.959
172.193
171.052
169.341
166.764
162.941
174.495
178.591
180.906
182.268
183.11
183.649
183.999
184.223
184.357
184.419
184.419
184.356
184.223
183.998
183.648
183.109
182.267
180.905
178.591
174.494
188.984
192.199
193.422
194.004
194.328
194.526
194.651
194.73
194.777
194.799
194.799
194.777
194.73
194.651
194.525
194.328
194.003
193.422
192.199
188.983
103.773
104.016
104.222
104.391
104.526
104.63
104.707
104.761
104.796
104.812
104.812
104.796
104.761
104.707
104.629
104.525
104.391
104.222
104.016
103.772
111.354
112.086
112.704
113.208
113.608
113.916
114.144
114.304
114.405
114.454
114.454
114.405
114.303
114.143
113.915
113.607
113.207
112.702
112.085
111.352
119.045
120.272
121.298
122.13
122.783
123.282
123.649
123.905
124.067
124.144
124.144
124.066
123.904
123.648
123.28
122.781
122.127
121.296
120.27
119.043
126.928
128.659
130.087
131.228
132.113
132.78
133.265
133.601
133.812
133.913
133.913
133.811
133.6
133.264
132.778
132.111
131.226
130.084
128.656
126.925
135.1
137.347
139.164
140.583
141.661
142.459
143.031
143.423
143.666
143.783
143.782
143.665
143.421
143.029
142.456
141.658
140.58
139.16
137.343
135.097
143.687
146.464
148.638
150.28
151.489
152.363
152.978
153.392
153.648
153.769
153.769
153.647
153.391
152.976
152.36
151.486
150.276
148.634
146.461
143.684
152.869
156.186
158.643
160.407
161.654
162.525
163.124
163.521
163.763
163.878
163.877
163.762
163.52
163.122
162.523
161.651
160.404
158.64
156.182
152.866
162.943
166.765
169.342
171.053
172.194
172.96
173.472
173.805
174.006
174.101
174.1
174.006
173.804
173.47
172.958
172.192
171.05
169.339
166.762
162.94
174.495
178.591
180.906
182.268
183.109
183.648
183.998
184.222
184.356
184.418
184.418
184.355
184.222
183.997
183.647
183.108
182.266
180.904
178.589
174.492
188.984
192.199
193.422
194.003
194.328
194.525
194.651
194.73
194.777
194.799
194.799
194.777
194.73
194.65
194.525
194.327
194.003
193.421
192.198
188.982
103.773
104.016
104.222
104.391
104.526
104.63
104.707
104.761
104.796
104.812
104.812
104.796
104.761
104.707
104.629
104.525
104.391
104.222
104.016
103.772
111.354
112.086
112.704
113.208
113.608
113.916
114.144
114.304
114.405
114.454
114.454
114.405
114.303
114.143
113.915
113.607
113.207
112.702
112.085
111.352
119.045
120.272
121.298
122.13
122.783
123.282
123.649
123.905
124.067
124.144
124.144
124.066
123.904
123.648
123.28
122.781
122.127
121.296
120.27
119.043
126.928
128.659
130.087
131.228
132.113
132.78
133.265
133.601
133.812
133.913
133.913
133.811
133.6
133.264
132.778
132.111
131.226
130.084
128.656
126.925
135.1
137.347
139.164
140.583
141.661
142.459
143.031
143.423
143.666
143.783
143.782
143.665
143.421
143.029
142.456
141.658
140.58
139.16
137.343
135.097
143.687
146.464
148.638
150.28
151.489
152.363
152.978
153.392
153.648
153.769
153.769
153.647
153.391
152.976
152.36
151.486
150.276
148.634
146.461
143.684
152.869
156.186
158.643
160.407
161.654
162.525
163.124
163.521
163.763
163.878
163.877
163.762
163.52
163.122
162.523
161.651
160.404
158.64
156.182
152.866
162.943
166.765
169.342
171.053
172.194
172.96
173.472
173.805
174.006
174.101
174.1
174.006
173.804
173.47
172.958
172.192
171.05
169.339
166.762
162.94
174.495
178.591
180.906
182.268
183.109
183.648
183.998
184.222
184.356
184.418
184.418
184.355
184.222
183.997
183.647
183.108
182.266
180.904
178.589
174.492
188.984
192.199
193.422
194.003
194.328
194.525
194.651
194.73
194.777
194.799
194.799
194.777
194.73
194.65
194.525
194.327
194.003
193.421
192.198
188.982
103.773
104.016
104.222
104.391
104.526
104.63
104.707
104.762
104.796
104.813
104.813
104.796
104.761
104.707
104.63
104.526
104.391
104.222
104.016
103.773
111.354
112.087
112.704
113.208
113.609
113.916
114.144
114.304
114.405
114.454
114.454
114.405
114.304
114.144
113.916
113.608
113.208
112.703
112.086
111.353
119.045
120.272
121.298
122.13
122.784
123.283
123.65
123.906
124.067
124.145
124.145
124.067
123.905
123.649
123.281
122.782
122.128
121.297
120.271
119.044
126.928
128.659
130.088
131.229
132.114
132.78
133.266
133.602
133.812
133.914
133.913
133.812
133.601
133.265
132.779
132.112
131.227
130.086
128.657
126.927
135.1
137.347
139.164
140.584
141.662
142.459
143.032
143.423
143.667
143.783
143.783
143.666
143.422
143.03
142.457
141.66
140.581
139.162
137.345
135.098
143.687
146.465
148.638
150.28
151.49
152.363
152.978
153.393
153.649
153.77
153.77
153.648
153.392
152.977
152.361
151.488
150.278
148.636
146.462
143.685
152.869
156.186
158.644
160.408
161.655
162.526
163.125
163.522
163.764
163.879
163.878
163.763
163.521
163.123
162.524
161.653
160.406
158.641
156.184
152.867
162.943
166.766
169.342
171.053
172.195
172.96
173.473
173.806
174.007
174.102
174.101
174.007
173.806
173.472
172.959
172.193
171.052
169.341
166.764
162.941
174.495
178.591
180.906
182.268
183.11
183.649
183.999
184.223
184.357
184.419
184.419
184.356
184.223
183.998
183.648
183.109
182.267
180.905
178.591
174.494
188.984
192.199
193.422
194.004
194.328
194.526
194.651
194.73
194.777
194.799
194.799
194.777
194.73
194.651
194.525
194.328
194.003
193.422
192.199
188.983
103.493
103.182
102.845
102.488
102.117
101.738
101.354
100.968
100.581
100.194
110.511
109.571
108.553
107.476
106.359
105.218
104.064
102.904
101.743
100.581
117.625
116.039
114.319
112.503
110.625
108.711
106.779
104.842
102.904
100.968
124.907
122.639
120.182
117.594
114.927
112.221
109.5
106.779
104.064
101.354
132.437
129.43
126.174
122.762
119.269
115.746
112.222
108.712
105.218
101.738
140.313
136.471
132.323
128.013
123.642
119.27
114.929
110.627
106.36
102.117
148.659
143.816
138.633
133.324
128.014
122.765
117.597
112.506
107.477
102.488
157.641
151.503
145.069
138.636
132.327
126.179
120.186
114.323
108.555
102.845
167.461
159.483
151.506
143.822
136.478
129.438
122.647
116.045
109.575
103.183
178.224
167.464
157.648
148.669
140.324
132.449
124.918
117.634
110.516
103.495
103.492
103.181
102.844
102.487
102.116
101.737
101.353
100.967
100.58
100.193
110.509
109.57
108.551
107.474
106.358
105.217
104.063
102.903
101.741
100.58
117.624
116.037
114.318
112.502
110.624
108.709
106.778
104.84
102.903
100.967
124.905
122.638
120.18
117.592
114.926
112.219
109.499
106.778
104.063
101.353
132.436
129.429
126.173
122.761
119.268
115.744
112.22
108.71
105.217
101.737
140.311
136.469
132.321
128.011
123.64
119.269
114.927
110.625
106.359
102.117
148.658
143.815
138.631
133.322
128.013
122.763
117.595
112.504
107.476
102.487
157.639
151.501
145.067
138.634
132.325
126.177
120.185
114.321
108.554
102.845
167.459
159.481
151.504
143.82
136.476
129.436
122.645
116.043
109.573
103.182
178.222
167.462
157.646
148.667
140.322
132.447
124.916
117.632
110.515
103.494
103.492
103.181
102.844
102.487
102.116
101.737
101.353
100.967
100.58
100.193
110.509
109.57
108.551
107.474
106.358
105.217
104.063
102.903
101.741
100.58
117.624
116.037
114.318
112.502
110.624
108.709
106.778
104.84
102.903
100.967
124.905
122.638
120.18
117.592
114.926
112.219
109.499
106.778
104.063
101.353
132.436
129.429
126.173
122.761
119.268
115.744
112.22
108.71
105.217
101.737
140.311
136.469
132.321
128.011
123.64
119.269
114.927
110.625
106.359
102.117
148.658
143.815
138.631
133.322
128.013
122.763
117.595
112.504
107.476
102.487
157.639
151.501
145.067
138.634
132.325
126.177
120.185
114.321
108.554
102.845
167.459
159.481
151.504
143.82
136.476
129.436
122.645
116.043
109.573
103.182
178.222
167.462
157.646
148.667
140.322
132.447
124.916
117.632
110.515
103.494
103.493
103.182
102.845
102.488
102.117
101.738
101.354
100.968
100.581
100.194
110.511
109.571
108.553
107.476
106.359
105.218
104.064
102.904
101.743
100.581
117.625
116.039
114.319
112.503
110.625
108.711
106.779
104.842
102.904
100.968
124.907
122.639
120.182
117.594
114.927
112.221
109.5
106.779
104.064
101.354
132.437
129.43
126.174
122.762
119.269
115.746
112.222
108.712
105.218
101.738
140.313
136.471
132.323
128.013
123.642
119.27
114.929
110.627
106.36
102.117
148.659
143.816
138.633
133.324
128.014
122.765
117.597
112.506
107.477
102.488
157.641
151.503
145.069
138.636
132.327
126.179
120.186
114.323
108.555
102.845
167.461
159.483
151.506
143.822
136.478
129.438
122.647
116.045
109.575
103.183
178.224
167.464
157.648
148.669
140.324
132.449
124.918
117.634
110.516
103.495
188.986
174.501
162.953
152.882
143.702
135.115
126.941
119.056
111.361
103.775
192.203
178.601
166.78
156.204
146.485
137.367
128.677
120.287
112.096
104.02
193.427
180.919
169.362
158.669
148.666
139.192
130.113
121.319
112.717
104.227
194.01
182.286
171.081
160.442
150.318
140.622
131.263
122.157
113.226
104.398
194.337
183.134
172.232
161.702
151.542
141.714
132.161
122.821
113.633
104.535
194.537
183.682
173.012
162.59
152.434
142.53
132.844
123.333
113.949
104.641
194.667
184.044
173.543
163.212
153.075
143.128
133.353
123.719
114.189
104.723
194.752
184.285
173.902
163.642
153.525
143.555
133.72
123.999
114.364
104.782
194.807
184.441
174.138
163.928
153.829
143.846
133.973
124.194
114.487
104.824
194.84
184.535
174.28
164.102
154.016
144.027
134.132
124.317
114.565
104.851
194.854
184.578
174.346
164.184
154.105
144.115
134.21
124.379
114.604
104.864
194.853
184.575
174.344
164.182
154.106
144.118
134.214
124.383
114.607
104.865
194.836
184.525
174.27
164.096
154.018
144.037
134.146
124.332
114.576
104.855
194.798
184.419
174.115
163.915
153.832
143.865
134.002
124.224
114.509
104.832
194.733
184.239
173.855
163.616
153.531
143.59
133.772
124.053
114.404
104.797
194.625
183.949
173.449
163.164
153.087
143.192
133.445
123.811
114.256
104.747
194.442
183.482
172.83
162.503
152.46
142.646
133.005
123.49
114.062
104.682
194.101
182.707
171.886
161.559
151.607
141.926
132.438
123.085
113.818
104.601
193.353
181.358
170.448
160.242
150.482
141.014
131.739
122.591
113.525
104.504
191.307
178.925
168.308
158.478
149.068
139.91
130.912
122.018
113.188
104.392
188.985
174.499
162.951
152.88
143.699
135.113
126.939
119.054
111.359
103.774
192.201
178.599
166.778
156.202
146.483
137.365
128.675
120.285
112.095
104.019
193.425
180.917
169.36
158.666
148.664
139.19
130.111
121.317
112.715
104.226
194.008
182.284
171.078
160.44
150.316
140.619
131.261
122.155
113.225
104.397
194.335
183.132
172.229
161.699
151.539
141.711
132.158
122.819
113.631
104.533
194.536
183.679
173.009
162.587
152.432
142.528
132.842
123.331
113.947
104.64
194.665
184.041
173.54
163.209
153.072
143.126
133.35
123.716
114.187
104.722
194.75
184.282
173.899
163.639
153.522
143.552
133.718
123.997
114.362
104.781
194.805
184.438
174.135
163.924
153.826
143.843
133.97
124.192
114.485
104.823
194.837
184.532
174.277
164.099
154.013
144.024
134.129
124.315
114.563
104.85
194.852
184.575
174.343
164.181
154.102
144.112
134.207
124.376
114.602
104.863
194.851
184.572
174.34
164.179
154.103
144.115
134.212
124.381
114.605
104.864
194.833
184.522
174.266
164.093
154.015
144.034
134.144
124.33
114.574
104.854
194.796
184.416
174.111
163.911
153.829
143.862
133.999
124.221
114.507
104.831
194.73
184.235
173.851
163.613
153.528
143.587
133.77
124.05
114.401
104.795
194.623
183.945
173.446
163.16
153.083
143.189
133.442
123.808
114.254
104.746
194.439
183.478
172.826
162.499
152.457
142.642
133.002
123.488
114.059
104.681
194.098
182.703
171.882
161.555
151.603
141.923
132.435
123.082
113.816
104.6
193.351
181.354
170.444
160.238
150.479
141.011
131.736
122.589
113.523
104.502
191.304
178.921
168.304
158.474
149.064
139.907
130.909
122.015
113.185
104.391
188.985
174.499
162.951
152.88
143.699
135.113
126.939
119.054
111.359
103.774
192.201
178.599
166.778
156.202
146.483
137.365
128.675
120.285
112.095
104.019
193.425
180.917
169.36
158.666
148.664
139.19
130.111
121.317
112.715
104.226
194.008
182.284
171.078
160.44
150.316
140.619
131.261
122.155
113.225
104.397
194.335
183.132
172.229
161.699
151.539
141.711
132.158
122.819
113.631
104.533
194.536
183.679
173.009
162.587
152.432
142.528
132.842
123.331
113.947
104.64
194.665
184.041
173.54
163.209
153.072
143.126
133.35
123.716
114.187
104.722
194.75
184.282
173.899
163.639
153.522
143.552
133.718
123.997
114.362
104.781
194.805
184.438
174.135
163.924
153.826
143.843
133.97
124.192
114.485
104.823
194.837
184.532
174.277
164.099
154.013
144.024
134.129
124.315
114.563
104.85
194.852
184.575
174.343
164.181
154.102
144.112
134.207
124.376
114.602
104.863
194.851
184.572
174.34
164.179
154.103
144.115
134.212
124.381
114.605
104.864
194.833
184.522
174.266
164.093
154.015
144.034
134.144
124.33
114.574
104.854
194.796
184.416
174.111
163.911
153.829
143.862
133.999
124.221
114.507
104.831
194.73
184.235
173.851
163.613
153.528
143.587
133.77
124.05
114.401
104.795
194.623
183.945
173.446
163.16
153.083
143.189
133.442
123.808
114.254
104.746
194.439
183.478
172.826
162.499
152.457
142.642
133.002
123.488
114.059
104.681
194.098
182.703
171.882
161.555
151.603
141.923
132.435
123.082
113.816
104.6
193.351
181.354
170.444
160.238
150.479
141.011
131.736
122.589
113.523
104.502
191.304
178.921
168.304
158.474
149.064
139.907
130.909
122.015
113.185
104.391
188.986
174.501
162.953
152.882
143.702
135.115
126.941
119.056
111.361
103.775
192.203
178.601
166.78
156.204
146.485
137.367
128.677
120.287
112.096
104.02
193.427
180.919
169.362
158.669
148.666
139.192
130.113
121.319
112.717
104.227
194.01
182.286
171.081
160.442
150.318
140.622
131.263
122.157
113.226
104.398
194.337
183.134
172.232
161.702
151.542
141.714
132.161
122.821
113.633
104.535
194.537
183.682
173.012
162.59
152.434
142.53
132.844
123.333
113.949
104.641
194.667
184.044
173.543
163.212
153.075
143.128
133.353
123.719
114.189
104.723
194.752
184.285
173.902
163.642
153.525
143.555
133.72
123.999
114.364
104.782
194.807
184.441
174.138
163.928
153.829
143.846
133.973
124.194
114.487
104.824
194.84
184.535
174.28
164.102
154.016
144.027
134.132
124.317
114.565
104.851
194.854
184.578
174.346
164.184
154.105
144.115
134.21
124.379
114.604
104.864
194.853
184.575
174.344
164.182
154.106
144.118
134.214
124.383
114.607
104.865
194.836
184.525
174.27
164.096
154.018
144.037
134.146
124.332
114.576
104.855
194.798
184.419
174.115
163.915
153.832
143.865
134.002
124.224
114.509
104.832
194.733
184.239
173.855
163.616
153.531
143.59
133.772
124.053
114.404
104.797
194.625
183.949
173.449
163.164
153.087
143.192
133.445
123.811
114.256
104.747
194.442
183.482
172.83
162.503
152.46
142.646
133.005
123.49
114.062
104.682
194.101
182.707
171.886
161.559
151.607
141.926
132.438
123.085
113.818
104.601
193.353
181.358
170.448
160.242
150.482
141.014
131.739
122.591
113.525
104.504
191.307
178.925
168.308
158.478
149.068
139.91
130.912
122.018
113.188
104.392
184.249
174.727
165.383
156.295
147.403
138.648
129.984
121.38
112.815
104.27
178.068
170.354
162.202
153.918
145.605
137.295
128.996
120.705
112.421
104.14
173.094
166.419
159.158
151.572
143.806
135.935
128
120.025
112.025
104.01
169.126
163.074
156.44
149.41
142.115
134.641
127.047
119.372
111.643
103.885
165.968
160.314
154.12
147.514
140.603
133.47
126.177
118.772
111.292
103.769
163.482
158.096
152.213
145.925
139.316
132.461
125.421
118.248
110.984
103.668
161.578
156.376
150.712
144.656
138.276
131.638
124.801
117.816
110.729
103.584
160.195
155.118
149.604
143.71
137.494
131.015
124.329
117.486
110.534
103.519
159.293
154.294
148.874
143.083
136.974
130.599
124.013
117.265
110.402
103.476
158.848
153.886
148.512
142.772
136.714
130.391
123.854
117.154
110.337
103.459
184.246
174.723
165.379
156.291
147.4
138.644
129.98
121.377
112.812
104.268
178.064
170.35
162.199
153.915
145.602
137.292
128.993
120.702
112.419
104.139
173.09
166.416
159.155
151.569
143.803
135.932
127.997
120.022
112.022
104.009
169.123
163.071
156.437
149.407
142.111
134.638
127.044
119.368
111.641
103.883
165.965
160.312
154.117
147.511
140.6
133.467
126.174
118.768
111.289
103.767
163.48
158.094
152.21
145.922
139.313
132.458
125.418
118.244
110.981
103.665
161.575
156.374
150.71
144.653
138.273
131.635
124.797
117.811
110.725
103.581
160.192
155.115
149.601
143.707
137.491
131.011
124.324
117.481
110.529
103.516
159.291
154.291
148.871
143.08
136.97
130.595
124.008
117.259
110.396
103.471
158.846
153.884
148.51
142.769
136.711
130.387
123.85
117.149
110.33
103.453
184.246
174.723
165.379
156.291
147.4
138.644
129.98
121.377
112.812
104.268
178.064
170.35
162.199
153.915
145.602
137.292
128.993
120.702
112.419
104.139
173.09
166.416
159.155
151.569
143.803
135.932
127.997
120.022
112.022
104.009
169.123
163.071
156.437
149.407
142.111
134.638
127.044
119.368
111.641
103.883
165.965
160.311
154.117
147.511
140.6
133.467
126.174
118.768
111.289
103.767
163.48
158.094
152.21
145.922
139.313
132.458
125.418
118.244
110.981
103.665
161.575
156.374
150.71
144.653
138.273
131.635
124.797
117.811
110.725
103.581
160.192
155.115
149.601
143.707
137.491
131.011
124.324
117.481
110.529
103.516
159.291
154.291
148.871
143.08
136.97
130.595
124.008
117.259
110.396
103.471
158.846
153.884
148.51
142.769
136.711
130.387
123.85
117.149
110.33
103.453
184.249
174.727
165.383
156.295
147.403
138.648
129.984
121.38
112.815
104.27
178.068
170.353
162.202
153.918
145.605
137.295
128.996
120.705
112.421
104.14
173.094
166.419
159.158
151.572
143.806
135.935
128
120.025
112.025
104.01
169.126
163.074
156.44
149.41
142.115
134.641
127.047
119.372
111.643
103.885
165.968
160.314
154.12
147.514
140.603
133.47
126.177
118.772
111.292
103.769
163.482
158.096
152.213
145.925
139.316
132.461
125.421
118.248
110.984
103.668
161.578
156.376
150.712
144.656
138.276
131.638
124.801
117.816
110.729
103.584
160.195
155.118
149.604
143.71
137.494
131.015
124.329
117.486
110.534
103.519
159.293
154.294
148.874
143.083
136.974
130.599
124.013
117.265
110.402
103.476
158.849
153.886
148.512
142.772
136.714
130.391
123.855
117.154
110.337
103.459
192.894
195.658
196.831
197.468
197.873
198.151
198.346
198.479
198.564
198.605
198.605
198.565
198.481
198.348
198.153
197.876
197.471
196.834
195.66
192.897
184.569
188.565
191.028
192.638
193.748
194.536
195.099
195.488
195.735
195.854
195.855
195.737
195.492
195.104
194.542
193.755
192.646
191.035
188.571
184.574
178.752
183.004
186.079
188.309
189.944
191.148
192.026
192.641
193.032
193.224
193.225
193.036
192.646
192.034
191.158
189.955
188.321
186.091
183.016
178.763
174.35
178.619
181.976
184.574
186.57
188.087
189.216
190.016
190.531
190.783
190.785
190.536
190.025
189.227
188.101
186.586
184.592
181.995
178.638
174.369
170.921
175.147
178.63
181.442
183.676
185.416
186.733
187.679
188.292
188.594
188.596
188.299
187.69
186.748
185.435
183.698
181.467
178.657
175.176
170.95
168.247
172.419
175.955
178.889
181.274
183.168
184.621
185.676
186.364
186.704
186.707
186.373
185.691
184.642
183.193
181.304
178.923
175.992
172.458
168.287
166.205
170.328
173.883
176.885
179.365
181.361
182.909
184.042
184.784
185.153
185.157
184.795
184.06
182.935
181.393
179.403
176.929
173.931
170.379
166.259
164.722
168.806
172.365
175.405
177.942
180.003
181.614
182.799
183.579
183.968
183.972
183.592
182.821
181.644
180.042
177.988
175.457
172.424
168.87
164.789
163.755
167.812
171.369
174.428
176.998
179.097
180.745
181.963
182.766
183.167
183.172
182.781
181.988
180.78
179.141
177.05
174.488
171.437
167.885
163.833
163.276
167.32
170.875
173.942
176.526
178.643
180.31
181.542
182.357
182.764
182.77
182.373
181.569
180.347
178.691
176.583
174.008
170.949
167.4
163.362
192.897
195.66
196.832
197.47
197.874
198.152
198.346
198.48
198.564
198.605
198.605
198.564
198.48
198.347
198.152
197.875
197.47
196.832
195.659
192.895
184.572
188.567
191.031
192.64
193.75
194.538
195.1
195.489
195.735
195.854
195.855
195.736
195.491
195.103
194.541
193.753
192.644
191.033
188.569
184.571
178.755
183.007
186.082
188.311
189.946
191.15
192.027
192.641
193.033
193.224
193.224
193.035
192.646
192.032
191.156
189.953
188.319
186.089
183.013
178.76
174.354
178.622
181.978
184.577
186.572
188.089
189.217
190.017
190.531
190.783
190.784
190.535
190.024
189.226
188.1
186.585
184.59
181.992
178.636
174.366
170.924
175.15
178.633
181.444
183.678
185.417
186.734
187.68
188.292
188.594
188.595
188.298
187.69
186.747
185.434
183.696
181.465
178.655
175.173
170.947
168.25
172.422
175.958
178.891
181.276
183.17
184.623
185.677
186.364
186.704
186.707
186.372
185.69
184.64
183.192
181.303
178.921
175.99
172.456
168.285
166.208
170.331
173.886
176.888
179.367
181.363
182.911
184.043
184.785
185.153
185.156
184.795
184.059
182.934
181.392
179.402
176.927
173.929
170.377
166.256
164.725
168.809
172.368
175.407
177.944
180.005
181.615
182.8
183.579
183.968
183.972
183.592
182.82
181.643
180.04
177.987
175.455
172.422
168.867
164.787
163.758
167.814
171.372
174.43
177
179.098
180.746
181.964
182.767
183.167
183.172
182.781
181.987
180.779
179.139
177.049
174.487
171.435
167.883
163.831
163.279
167.322
170.878
173.944
176.528
178.645
180.311
181.543
182.358
182.764
182.77
182.373
181.569
180.346
178.689
176.582
174.006
170.947
167.398
163.359
192.897
195.66
196.832
197.47
197.874
198.152
198.346
198.48
198.564
198.605
198.605
198.564
198.48
198.347
198.152
197.875
197.47
196.832
195.659
192.895
184.572
188.567
191.031
192.64
193.75
194.538
195.1
195.489
195.735
195.854
195.855
195.736
195.491
195.103
194.541
193.753
192.644
191.033
188.569
184.571
178.755
183.007
186.082
188.311
189.946
191.15
192.027
192.641
193.033
193.223
193.224
193.035
192.645
192.032
191.156
189.953
188.319
186.089
183.013
178.76
174.354
178.622
181.978
184.577
186.572
188.089
189.217
190.017
190.531
190.783
190.784
190.535
190.024
189.226
188.1
186.585
184.59
181.992
178.636
174.366
170.924
175.15
178.633
181.444
183.678
185.417
186.734
187.68
188.292
188.594
188.595
188.298
187.69
186.747
185.434
183.696
181.465
178.655
175.173
170.947
168.25
172.422
175.958
178.891
181.276
183.17
184.623
185.677
186.364
186.704
186.707
186.372
185.69
184.64
183.192
181.303
178.921
175.99
172.456
168.285
166.208
170.331
173.886
176.888
179.367
181.363
182.911
184.043
184.785
185.153
185.156
184.795
184.059
182.934
181.392
179.402
176.927
173.929
170.377
166.256
164.725
168.809
172.368
175.407
177.944
180.005
181.615
182.8
183.579
183.968
183.972
183.592
182.82
181.643
180.04
177.987
175.455
172.422
168.867
164.787
163.758
167.814
171.372
174.43
177
179.098
180.746
181.964
182.767
183.167
183.172
182.781
181.987
180.779
179.139
177.049
174.487
171.435
167.883
163.831
163.279
167.322
170.878
173.944
176.528
178.645
180.311
181.543
182.358
182.764
182.77
182.373
181.569
180.346
178.689
176.582
174.006
170.947
167.398
163.359
192.894
195.658
196.831
197.468
197.873
198.151
198.346
198.479
198.564
198.605
198.605
198.565
198.481
198.348
198.153
197.876
197.471
196.834
195.66
192.897
184.569
188.565
191.028
192.638
193.748
194.536
195.099
195.488
195.735
195.854
195.855
195.737
195.492
195.104
194.542
193.755
192.646
191.035
188.571
184.574
178.752
183.004
186.079
188.309
189.944
191.148
192.026
192.641
193.032
193.224
193.225
193.036
192.646
192.034
191.158
189.955
188.321
186.091
183.016
178.763
174.35
178.619
181.976
184.574
186.57
188.087
189.216
190.016
190.531
190.783
190.785
190.536
190.025
189.227
188.101
186.586
184.592
181.995
178.638
174.369
170.921
175.147
178.63
181.442
183.676
185.416
186.733
187.679
188.292
188.594
188.596
188.299
187.691
186.748
185.435
183.698
181.467
178.657
175.176
170.95
168.247
172.419
175.955
178.889
181.274
183.168
184.622
185.676
186.364
186.704
186.707
186.373
185.691
184.642
183.193
181.304
178.923
175.992
172.458
168.287
166.205
170.328
173.883
176.885
179.365
181.361
182.909
184.042
184.784
185.153
185.157
184.795
184.06
182.935
181.393
179.403
176.929
173.931
170.379
166.259
164.722
168.806
172.365
175.405
177.942
180.003
181.614
182.799
183.579
183.968
183.972
183.592
182.821
181.644
180.042
177.988
175.457
172.424
168.87
164.789
163.755
167.812
171.369
174.428
176.998
179.097
180.745
181.963
182.766
183.167
183.173
182.781
181.988
180.78
179.141
177.05
174.488
171.437
167.885
163.833
163.276
167.32
170.875
173.942
176.526
178.643
180.31
181.543
182.357
182.764
182.77
182.373
181.569
180.347
178.691
176.583
174.008
170.949
167.4
163.362
104.269
112.816
121.383
129.989
138.654
147.41
156.3
165.386
174.728
184.248
104.14
112.422
120.708
128.999
137.3
145.61
153.921
162.204
170.353
178.064
104.009
112.024
120.026
128.001
135.936
143.806
151.571
159.154
166.413
173.085
103.883
111.641
119.369
127.044
134.637
142.108
149.401
156.428
163.06
169.109
103.767
111.287
118.765
126.168
133.458
140.587
147.494
154.097
160.289
165.94
103.664
110.975
118.235
125.404
132.438
139.288
145.892
152.177
158.058
163.442
103.578
110.716
117.796
124.773
131.603
138.234
144.609
150.661
156.323
161.524
103.512
110.517
117.457
124.29
130.967
137.438
143.647
149.537
155.049
160.126
103.467
110.381
117.227
123.962
130.537
136.903
143.007
148.794
154.212