/*--------------------------------*- C++ -*----------------------------------*\
| =========                 |                                                 |
| \\      /  F ield         | OpenFOAM: The Open Source CFD Toolbox           |
|  \\    /   O peration     | Version:  2.4.0                                 |
|   \\  /    A nd           | Web:      www.OpenFOAM.org                      |
|    \\/     M anipulation  |                                                 |
\*---------------------------------------------------------------------------*/
FoamFile
{
    version     2.0;
    format      ascii;
    class       volScalarField;
    location    "3.3";
    object      p;
}
// * * * * * * * * * * * * * * * * * * * * * * * * * * * * * * * * * * * * * //

dimensions      [0 2 -2 0 0 0 0];

internalField   nonuniform List<scalar> 
4800
(
-8.17307e-07
-0.00159843
-0.00327503
-0.00451497
-0.00499447
-0.00456251
-0.00317215
-0.000827328
0.00242705
0.0064951
0.0015925
-3.65762e-05
-0.00122729
-0.00193372
-0.00203253
-0.00141378
-2.99568e-05
0.00213485
0.00507118
0.00873217
0.00330814
0.00110477
-9.37862e-05
-0.00064498
-0.000617869
4.60075e-05
0.00137811
0.00340535
0.0061495
0.00960704
0.00446742
0.00160952
0.000237008
-0.000329428
-0.000317543
0.000287169
0.00150477
0.00338071
0.00598098
0.009362
0.00451914
0.00114216
-0.000414904
-0.00107044
-0.0011676
-0.000717899
0.000305049
0.0019855
0.00446161
0.00789704
0.00309757
-0.000588748
-0.00229738
-0.00309255
-0.00338627
-0.00319645
-0.00246795
-0.00105063
0.00130754
0.0049821
2.58734e-05
-0.0037305
-0.00553557
-0.00650624
-0.00708029
-0.00726687
-0.00696163
-0.00592248
-0.00373733
0.000400058
-0.00470103
-0.00828653
-0.0101238
-0.0112946
-0.0122273
-0.0129171
-0.0132008
-0.012733
-0.0109256
-0.00612698
-0.0109164
-0.0141196
-0.0159239
-0.0173027
-0.0186504
-0.0199574
-0.0210076
-0.0213567
-0.0203203
-0.0146888
-0.0183068
-0.0209703
-0.022678
-0.0242431
-0.0260171
-0.0280207
-0.0300527
-0.0316736
-0.0326431
-0.0282408
-1.99864e-06
-0.00161984
-0.00330669
-0.00455548
-0.00504025
-0.00461048
-0.00322027
-0.000873504
0.00238514
0.00646008
0.00160969
-4.14866e-05
-0.0012102
-0.00190644
-0.00200013
-0.00137821
5.44209e-06
0.00216805
0.00510036
0.00875736
0.00333826
0.00107847
-9.52351e-05
-0.000644093
-0.000619381
4.45986e-05
0.00137655
0.00340318
0.00614657
0.00960525
0.00451135
0.00157258
0.000236961
-0.000326335
-0.000318651
0.000285597
0.00150275
0.00337748
0.00597547
0.00935715
0.00457286
0.00109876
-0.000410175
-0.00105994
-0.00116127
-0.000711828
0.000310486
0.00198869
0.00445813
0.00789025
0.00315573
-0.000636843
-0.00229116
-0.00307916
-0.00337697
-0.00318718
-0.00245886
-0.00104332
0.00130155
0.00496324
8.25283e-05
-0.00378005
-0.00552893
-0.00649158
-0.00706909
-0.00725521
-0.00694867
-0.00590693
-0.00374518
0.000352186
-0.0046473
-0.00833384
-0.0101177
-0.0112804
-0.0122156
-0.0129052
-0.0131873
-0.0127089
-0.0109487
-0.00629361
-0.0108712
-0.0141623
-0.0159196
-0.0172907
-0.0186394
-0.0199455
-0.0209915
-0.0213003
-0.0203035
-0.0150628
-0.018274
-0.0210072
-0.0226773
-0.0242362
-0.0260099
-0.0280099
-0.0300299
-0.0315331
-0.0323144
-0.0283534
-1.79358e-06
-0.00161974
-0.00330667
-0.0045555
-0.00504029
-0.00461051
-0.00322031
-0.000873529
0.00238513
0.00646007
0.00160979
-4.14446e-05
-0.00121021
-0.00190647
-0.00200017
-0.00137825
5.41453e-06
0.00216803
0.00510035
0.00875735
0.00333827
0.00107846
-9.52636e-05
-0.00064413
-0.000619419
4.4566e-05
0.00137652
0.00340316
0.00614656
0.00960524
0.00451133
0.00157255
0.000236922
-0.000326376
-0.00031869
0.000285567
0.00150272
0.00337747
0.00597546
0.00935714
0.00457283
0.00109873
-0.000410216
-0.00105997
-0.0011613
-0.000711857
0.000310463
0.00198867
0.00445811
0.00789024
0.00315569
-0.00063688
-0.0022912
-0.00307919
-0.003377
-0.00318721
-0.00245889
-0.00104334
0.00130153
0.00496323
8.24943e-05
-0.00378008
-0.00552896
-0.00649161
-0.00706912
-0.00725523
-0.0069487
-0.00590695
-0.00374519
0.000352176
-0.00464733
-0.00833387
-0.0101177
-0.0112804
-0.0122156
-0.0129052
-0.0131873
-0.0127089
-0.0109487
-0.00629361
-0.0108713
-0.0141624
-0.0159196
-0.0172907
-0.0186394
-0.0199455
-0.0209915
-0.0213003
-0.0203035
-0.0150628
-0.018274
-0.0210072
-0.0226773
-0.0242362
-0.0260099
-0.02801
-0.0300299
-0.0315331
-0.0323144
-0.0283534
-4.03326e-07
-0.00159826
-0.00327503
-0.00451505
-0.00499457
-0.0045626
-0.00317222
-0.000827385
0.00242701
0.00649507
0.00159267
-3.65139e-05
-0.00122735
-0.00193382
-0.00203263
-0.00141388
-3.00313e-05
0.00213479
0.00507114
0.00873214
0.00330813
0.00110472
-9.38821e-05
-0.00064509
-0.000617975
4.59134e-05
0.00137804
0.0034053
0.00614946
0.00960702
0.00446734
0.00160942
0.000236894
-0.000329539
-0.000317648
0.00028708
0.0015047
0.00338066
0.00598095
0.00936198
0.00451904
0.00114205
-0.000415015
-0.00107054
-0.0011677
-0.00071798
0.000304989
0.00198545
0.00446157
0.00789702
0.00309746
-0.000588848
-0.00229748
-0.00309264
-0.00338635
-0.00319652
-0.002468
-0.00105067
0.0013075
0.00498207
2.57832e-05
-0.00373059
-0.00553566
-0.00650632
-0.00708036
-0.00726694
-0.00696168
-0.00592252
-0.00373736
0.000400036
-0.00470111
-0.0082866
-0.0101239
-0.0112947
-0.0122273
-0.0129172
-0.0132009
-0.012733
-0.0109256
-0.00612699
-0.0109164
-0.0141196
-0.0159239
-0.0173027
-0.0186505
-0.0199575
-0.0210077
-0.0213567
-0.0203203
-0.0146888
-0.0183068
-0.0209703
-0.022678
-0.0242431
-0.0260172
-0.0280207
-0.0300527
-0.0316736
-0.0326431
-0.0282408
0.0112239
0.0164263
0.021933
0.0276165
0.033392
0.0392101
0.0450472
0.0508977
0.0567696
0.0626829
0.0686701
0.0747767
0.0810619
0.0875965
0.0944566
0.10171
0.109397
0.117498
0.125896
0.134352
0.013021
0.0177998
0.0229388
0.0283305
0.0338921
0.039566
0.045316
0.0511236
0.0569853
0.0629102
0.0689198
0.0750462
0.081332
0.0878261
0.0945785
0.10163
0.108997
0.116648
0.124484
0.132312
0.0137127
0.0183279
0.0233298
0.0286152
0.0341001
0.0397226
0.045441
0.0512309
0.0570823
0.0629977
0.0689905
0.0750838
0.0813089
0.0877034
0.0943067
0.101154
0.108265
0.115628
0.123177
0.130767
0.0134833
0.0181432
0.0231958
0.0285297
0.0340555
0.0397099
0.0454508
0.0512534
0.0571057
0.063006
0.0689613
0.0749863
0.0811028
0.0873391
0.09373
0.100315
0.107135
0.114217
0.121559
0.129089
0.0122901
0.0172431
0.0225543
0.028099
0.0337837
0.0395507
0.0453667
0.0512134
0.0570817
0.0629687
0.068876
0.0748096
0.0807802
0.0868056
0.0929147
0.0991545
0.105592
0.112315
0.119418
0.126969
0.0100833
0.0156815
0.0214967
0.027417
0.033364
0.0393058
0.0452329
0.0511435
0.0570371
0.0629124
0.0687667
0.0745961
0.0803979
0.086175
0.0919447
0.097754
0.103698
0.109931
0.116682
0.124294
0.00699413
0.0137253
0.0202935
0.0267081
0.0329622
0.039089
0.0451251
0.0510946
0.0570098
0.0628721
0.0686737
0.0743997
0.0800305
0.0855484
0.0909478
0.0962594
0.101593
0.107162
0.11336
0.121036
0.00343691
0.0119006
0.0193749
0.0262805
0.0327791
0.0390239
0.0451175
0.051113
0.0570327
0.0628779
0.0686338
0.0742724
0.0797544
0.0850351
0.0900739
0.0948655
0.0995144
0.104247
0.109582
0.117179
0.00145588
0.0118862
0.0196794
0.0266138
0.0330513
0.0392255
0.0452698
0.0512366
0.05714
0.0629715
0.0687045
0.0742952
0.0796817
0.084784
0.0895079
0.0937762
0.0976394
0.101115
0.104557
0.110875
0.00600337
0.0172069
0.0228472
0.0283773
0.0340395
0.0397973
0.0456315
0.0515053
0.057382
0.0632248
0.0689878
0.0746079
0.0799943
0.0850171
0.0894898
0.0931509
0.095647
0.0966851
0.0954637
0.0970395
0.0111975
0.0164078
0.0219208
0.0276088
0.0333873
0.0392072
0.0450452
0.050896
0.0567677
0.0626806
0.068667
0.0747727
0.0810569
0.0875906
0.0944502
0.101704
0.109393
0.117499
0.125904
0.134371
0.0130433
0.0178184
0.0229536
0.0283417
0.0339005
0.0395723
0.045321
0.051128
0.0569895
0.0629147
0.0689247
0.0750517
0.0813376
0.0878312
0.0945819
0.10163
0.108992
0.116635
0.124462
0.132282
0.0137154
0.0183327
0.0233351
0.0286202
0.0341044
0.039726
0.0454436
0.0512329
0.0570839
0.062999
0.0689916
0.0750847
0.0813096
0.0877036
0.0943063
0.101153
0.108263
0.115624
0.123171
0.130762
0.0134877
0.0181502
0.0232028
0.0285359
0.0340605
0.0397135
0.0454534
0.0512552
0.0571069
0.0630068
0.0689619
0.0749867
0.0811031
0.0873393
0.0937299
0.100315
0.107133
0.114214
0.121554
0.129084
0.0123019
0.0172564
0.0225651
0.0281075
0.0337896
0.0395546
0.0453692
0.051215
0.0570827
0.0629694
0.0688767
0.0748103
0.080781
0.0868065
0.0929156
0.0991545
0.105591
0.112312
0.119408
0.126954
0.0101086
0.0157032
0.0215103
0.0274261
0.0333694
0.0393086
0.0452343
0.0511441
0.0570373
0.0629126
0.0687669
0.0745964
0.0803984
0.0861759
0.0919458
0.0977547
0.103698
0.109929
0.116664
0.124256
0.00706162
0.0137699
0.0203141
0.0267189
0.0329667
0.0390905
0.0451253
0.0510944
0.0570095
0.0628719
0.0686738
0.0744
0.0800313
0.0855497
0.0909495
0.0962603
0.101592
0.107157
0.113317
0.120933
0.00355155
0.0119472
0.0193844
0.0262841
0.0327786
0.039022
0.0451157
0.0511116
0.0570314
0.0628768
0.0686329
0.0742717
0.079754
0.0850355
0.0900754
0.094866
0.099513
0.104252
0.109544
0.117014
0.00159911
0.0118228
0.0196084
0.0265834
0.0330356
0.039216
0.0452637
0.051232
0.0571356
0.0629665
0.0686986
0.0742881
0.0796737
0.0847765
0.0895036
0.0937773
0.0976585
0.101204
0.104677
0.110697
0.00684241
0.0173497
0.0228576
0.0284002
0.0340544
0.0398043
0.0456355
0.0515081
0.0573845
0.0632276
0.0689913
0.0746122
0.0799995
0.0850228
0.0894941
0.0931484
0.0956376
0.0967161
0.0954021
0.095978
0.0111975
0.0164078
0.0219208
0.0276088
0.0333873
0.0392072
0.0450452
0.050896
0.0567677
0.0626806
0.068667
0.0747727
0.0810569
0.0875906
0.0944502
0.101704
0.109393
0.117499
0.125904
0.134371
0.0130433
0.0178184
0.0229536
0.0283417
0.0339005
0.0395723
0.045321
0.051128
0.0569895
0.0629147
0.0689247
0.0750517
0.0813376
0.0878312
0.0945819
0.10163
0.108992
0.116635
0.124462
0.132282
0.0137154
0.0183327
0.0233351
0.0286202
0.0341044
0.039726
0.0454436
0.0512329
0.0570839
0.062999
0.0689916
0.0750847
0.0813096
0.0877036
0.0943063
0.101153
0.108263
0.115624
0.123171
0.130762
0.0134877
0.0181502
0.0232028
0.0285359
0.0340605
0.0397135
0.0454534
0.0512552
0.0571069
0.0630068
0.0689619
0.0749867
0.0811031
0.0873393
0.0937299
0.100315
0.107133
0.114214
0.121554
0.129084
0.0123019
0.0172564
0.0225651
0.0281075
0.0337896
0.0395546
0.0453692
0.051215
0.0570827
0.0629694
0.0688767
0.0748103
0.080781
0.0868065
0.0929156
0.0991545
0.105591
0.112312
0.119408
0.126954
0.0101086
0.0157032
0.0215103
0.0274261
0.0333694
0.0393086
0.0452344
0.0511441
0.0570373
0.0629126
0.0687669
0.0745964
0.0803984
0.0861759
0.0919458
0.0977547
0.103698
0.109929
0.116664
0.124256
0.00706161
0.0137699
0.0203141
0.0267189
0.0329667
0.0390905
0.0451253
0.0510944
0.0570095
0.0628719
0.0686738
0.0744
0.0800313
0.0855497
0.0909495
0.0962603
0.101592
0.107157
0.113317
0.120933
0.00355155
0.0119472
0.0193844
0.0262841
0.0327786
0.039022
0.0451157
0.0511116
0.0570314
0.0628768
0.068633
0.0742717
0.079754
0.0850355
0.0900754
0.094866
0.099513
0.104252
0.109544
0.117014
0.00159911
0.0118228
0.0196084
0.0265834
0.0330356
0.039216
0.0452637
0.051232
0.0571356
0.0629665
0.0686986
0.0742881
0.0796737
0.0847765
0.0895036
0.0937773
0.0976585
0.101204
0.104677
0.110697
0.00684242
0.0173497
0.0228576
0.0284002
0.0340544
0.0398043
0.0456355
0.0515081
0.0573845
0.0632276
0.0689913
0.0746122
0.0799995
0.0850228
0.0894941
0.0931484
0.0956376
0.0967162
0.0954021
0.0959781
0.0112239
0.0164262
0.021933
0.0276165
0.033392
0.0392102
0.0450472
0.0508977
0.0567696
0.062683
0.0686701
0.0747767
0.0810619
0.0875965
0.0944566
0.10171
0.109397
0.117498
0.125896
0.134352
0.013021
0.0177998
0.0229388
0.0283305
0.0338921
0.039566
0.045316
0.0511236
0.0569853
0.0629102
0.0689198
0.0750463
0.081332
0.0878261
0.0945785
0.10163
0.108997
0.116648
0.124484
0.132312
0.0137127
0.0183279
0.0233298
0.0286152
0.0341001
0.0397226
0.045441
0.0512309
0.0570823
0.0629977
0.0689905
0.0750838
0.0813089
0.0877034
0.0943067
0.101154
0.108265
0.115628
0.123177
0.130767
0.0134833
0.0181431
0.0231958
0.0285297
0.0340555
0.0397099
0.0454508
0.0512534
0.0571057
0.063006
0.0689613
0.0749863
0.0811028
0.0873391
0.09373
0.100315
0.107135
0.114217
0.121559
0.129089
0.01229
0.017243
0.0225543
0.028099
0.0337837
0.0395507
0.0453667
0.0512134
0.0570817
0.0629687
0.068876
0.0748097
0.0807802
0.0868056
0.0929148
0.0991545
0.105592
0.112315
0.119418
0.126969
0.0100833
0.0156815
0.0214967
0.027417
0.033364
0.0393058
0.0452329
0.0511435
0.0570371
0.0629124
0.0687668
0.0745961
0.0803979
0.086175
0.0919447
0.097754
0.103698
0.109931
0.116682
0.124294
0.00699412
0.0137253
0.0202935
0.0267081
0.0329622
0.039089
0.0451251
0.0510946
0.0570098
0.0628721
0.0686737
0.0743997
0.0800305
0.0855484
0.0909478
0.0962594
0.101593
0.107162
0.11336
0.121036
0.0034369
0.0119006
0.0193749
0.0262805
0.0327791
0.0390239
0.0451175
0.051113
0.0570327
0.0628779
0.0686339
0.0742724
0.0797544
0.0850351
0.0900739
0.0948655
0.0995144
0.104247
0.109582
0.117179
0.00145588
0.0118862
0.0196794
0.0266138
0.0330513
0.0392255
0.0452698
0.0512366
0.05714
0.0629715
0.0687045
0.0742952
0.0796817
0.084784
0.0895079
0.0937762
0.0976394
0.101115
0.104557
0.110875
0.0060034
0.0172069
0.0228472
0.0283773
0.0340395
0.0397973
0.0456315
0.0515053
0.057382
0.0632248
0.0689879
0.0746079
0.0799943
0.0850171
0.0894897
0.0931509
0.095647
0.0966852
0.0954637
0.0970395
0.142499
0.149891
0.156109
0.160839
0.163915
0.16534
0.165291
0.164133
0.162417
0.160822
0.139837
0.146689
0.152524
0.157083
0.160228
0.161962
0.162432
0.161928
0.160786
0.159223
0.13813
0.144885
0.150687
0.155278
0.15852
0.160405
0.161059
0.160729
0.159595
0.157545
0.136565
0.143506
0.149516
0.154307
0.157724
0.15975
0.160493
0.160179
0.158889
0.156305
0.13479
0.142157
0.148582
0.153732
0.15743
0.159653
0.160506
0.160208
0.158792
0.155827
0.132786
0.140848
0.14789
0.153544
0.157619
0.160103
0.161113
0.160875
0.159415
0.156262
0.130753
0.139795
0.147603
0.153847
0.158347
0.161128
0.162334
0.162211
0.160804
0.157657
0.12913
0.139442
0.148066
0.154882
0.159763
0.16281
0.164214
0.164246
0.162978
0.160012
0.128159
0.140472
0.149867
0.157062
0.16212
0.165289
0.166822
0.167
0.165927
0.163281
0.132556
0.146091
0.154653
0.161192
0.165792
0.168728
0.170212
0.170472
0.169607
0.167371
0.142532
0.149936
0.156163
0.160898
0.163974
0.165394
0.165335
0.164163
0.162434
0.160821
0.139801
0.146647
0.152477
0.157034
0.160181
0.161919
0.162395
0.161902
0.160781
0.159201
0.138131
0.14489
0.150694
0.155285
0.158526
0.16041
0.161059
0.160728
0.159612
0.157513
0.136572
0.143518
0.14953
0.154322
0.157738
0.15976
0.160496
0.16018
0.158917
0.156264
0.134798
0.142168
0.148594
0.153743
0.15744
0.159659
0.160505
0.160206
0.158825
0.155781
0.132797
0.14086
0.147902
0.153555
0.157629
0.16011
0.161112
0.160873
0.15945
0.156214
0.130776
0.139811
0.147617
0.15386
0.158356
0.161133
0.162332
0.16221
0.16084
0.157609
0.129271
0.139498
0.14809
0.154898
0.159771
0.162813
0.164211
0.164244
0.163011
0.159965
0.128487
0.140489
0.149844
0.157055
0.162114
0.165285
0.166816
0.166998
0.165957
0.163239
0.132443
0.145717
0.154487
0.161144
0.165774
0.168721
0.170207
0.17047
0.169632
0.167336
0.142532
0.149936
0.156163
0.160898
0.163974
0.165394
0.165335
0.164163
0.162434
0.160821
0.139801
0.146647
0.152477
0.157034
0.160181
0.161919
0.162395
0.161902
0.160781
0.159201
0.138131
0.14489
0.150694
0.155285
0.158526
0.16041
0.161059
0.160728
0.159612
0.157513
0.136572
0.143518
0.14953
0.154322
0.157738
0.15976
0.160496
0.16018
0.158917
0.156264
0.134798
0.142168
0.148594
0.153743
0.15744
0.159659
0.160505
0.160206
0.158825
0.155781
0.132797
0.14086
0.147902
0.153555
0.157629
0.16011
0.161112
0.160873
0.15945
0.156214
0.130776
0.139811
0.147617
0.15386
0.158356
0.161133
0.162332
0.16221
0.16084
0.157609
0.129271
0.139498
0.14809
0.154898
0.159771
0.162813
0.164211
0.164244
0.163011
0.159965
0.128487
0.140489
0.149844
0.157055
0.162114
0.165285
0.166816
0.166998
0.165957
0.163239
0.132443
0.145717
0.154487
0.161144
0.165774
0.168721
0.170207
0.17047
0.169632
0.167336
0.142499
0.149891
0.156109
0.160839
0.163915
0.16534
0.165291
0.164133
0.162417
0.160822
0.139837
0.146689
0.152524
0.157083
0.160228
0.161962
0.162432
0.161928
0.160786
0.159223
0.13813
0.144885
0.150687
0.155278
0.15852
0.160405
0.161059
0.160729
0.159595
0.157545
0.136565
0.143506
0.149516
0.154307
0.157724
0.15975
0.160493
0.160179
0.158889
0.156305
0.13479
0.142157
0.148582
0.153732
0.15743
0.159653
0.160506
0.160208
0.158792
0.155827
0.132786
0.140848
0.14789
0.153544
0.157619
0.160103
0.161113
0.160875
0.159415
0.156262
0.130753
0.139795
0.147603
0.153847
0.158347
0.161128
0.162334
0.162211
0.160804
0.157657
0.12913
0.139442
0.148066
0.154882
0.159763
0.16281
0.164214
0.164246
0.162978
0.160012
0.128159
0.140472
0.149867
0.157062
0.16212
0.165289
0.166822
0.167
0.165927
0.163281
0.132556
0.146091
0.154653
0.161192
0.165792
0.168728
0.170212
0.170472
0.169607
0.167371
0.166752
0.162204
0.164195
0.167773
0.17089
0.173126
0.174345
0.174597
0.173921
0.172131
0.177895
0.172593
0.172631
0.174488
0.176483
0.178084
0.17902
0.179235
0.178731
0.177377
0.18347
0.180341
0.180075
0.181039
0.182293
0.183401
0.184089
0.184264
0.183908
0.182939
0.188928
0.18723
0.186951
0.187437
0.188208
0.188952
0.189439
0.189576
0.189341
0.18869
0.194513
0.193627
0.193428
0.19368
0.194152
0.19464
0.194976
0.195081
0.19494
0.194539
0.200201
0.19978
0.199671
0.199809
0.200095
0.200406
0.200628
0.200705
0.200634
0.200425
0.205993
0.20584
0.205798
0.205872
0.206033
0.206212
0.206343
0.206392
0.206368
0.206304
0.211876
0.211899
0.21189
0.211911
0.211968
0.212034
0.212079
0.21209
0.212091
0.212141
0.217879
0.218008
0.218006
0.21796
0.217909
0.217855
0.217801
0.217756
0.217758
0.21789
0.224038
0.224229
0.224195
0.224052
0.223863
0.22366
0.223477
0.223345
0.22332
0.223501
0.230419
0.230621
0.230507
0.230217
0.229838
0.229436
0.229076
0.228815
0.228721
0.228911
0.237116
0.237251
0.236988
0.23648
0.235841
0.23517
0.23457
0.234122
0.233908
0.234043
0.244245
0.244189
0.243679
0.242862
0.241872
0.240849
0.239933
0.239231
0.238826
0.238811
0.251951
0.251495
0.250603
0.249366
0.247926
0.246463
0.245152
0.244119
0.243434
0.243133
0.260412
0.259179
0.257735
0.255961
0.253977
0.252
0.250227
0.248792
0.247723
0.246937
0.26974
0.26721
0.264961
0.262538
0.259957
0.257444
0.255187
0.253298
0.251725
0.250208
0.279995
0.275257
0.271937
0.268832
0.265705
0.26275
0.260083
0.257749
0.255561
0.252993
0.290852
0.282557
0.277959
0.27432
0.270904
0.267806
0.264981
0.262332
0.25946
0.255463
0.302295
0.288127
0.281856
0.278059
0.274944
0.272349
0.269924
0.267313
0.263796
0.257965
0.313313
0.288393
0.280432
0.277878
0.276567
0.275811
0.274867
0.273033
0.269138
0.261103
0.167591
0.162347
0.16431
0.167841
0.170915
0.173137
0.17435
0.174599
0.173943
0.172105
0.178037
0.172529
0.172678
0.174533
0.176505
0.178097
0.179027
0.17924
0.17875
0.177358
0.18348
0.18027
0.180084
0.181059
0.182307
0.183412
0.184096
0.184269
0.183923
0.182927
0.18895
0.1872
0.186955
0.187447
0.188217
0.18896
0.189445
0.18958
0.189351
0.188683
0.194528
0.193614
0.193428
0.193684
0.194157
0.194646
0.194981
0.195084
0.194946
0.194534
0.200207
0.199773
0.199669
0.19981
0.200098
0.20041
0.200632
0.200708
0.200638
0.200423
0.205995
0.205838
0.205797
0.205872
0.206034
0.206214
0.206346
0.206394
0.206369
0.206304
0.211876
0.2119
0.21189
0.211911
0.211969
0.212036
0.212081
0.212091
0.21209
0.212142
0.217877
0.218011
0.218005
0.21796
0.217909
0.217856
0.217802
0.217756
0.217756
0.217892
0.224034
0.224233
0.224195
0.224052
0.223863
0.22366
0.223478
0.223345
0.223316
0.223505
0.230414
0.230626
0.230506
0.230216
0.229838
0.229436
0.229077
0.228815
0.228717
0.228916
0.23711
0.237255
0.236987
0.236478
0.23584
0.235169
0.23457
0.234123
0.233904
0.234048
0.24424
0.244191
0.243677
0.24286
0.241871
0.240848
0.239934
0.239232
0.238824
0.238817
0.251946
0.25149
0.250599
0.249363
0.247924
0.246461
0.245152
0.244121
0.243436
0.243137
0.260411
0.25916
0.257729
0.255957
0.253974
0.251998
0.250227
0.248795
0.247732
0.246938
0.269753
0.267172
0.264954
0.262535
0.259952
0.257442
0.255187
0.253303
0.251746
0.250203
0.280046
0.275187
0.271931
0.268831
0.265699
0.262748
0.260083
0.257757
0.2556
0.252978
0.290918
0.282383
0.277935
0.274318
0.270897
0.267805
0.264983
0.262345
0.259524
0.255434
0.302411
0.287802
0.281861
0.278101
0.274959
0.272362
0.269933
0.267334
0.263894
0.257916
0.314644
0.288501
0.280726
0.278062
0.276635
0.275845
0.274883
0.273063
0.269281
0.261026
0.167591
0.162347
0.16431
0.167841
0.170915
0.173137
0.17435
0.174599
0.173943
0.172105
0.178037
0.172529
0.172678
0.174533
0.176505
0.178097
0.179027
0.17924
0.17875
0.177358
0.18348
0.18027
0.180084
0.181059
0.182307
0.183412
0.184096
0.184269
0.183923
0.182927
0.18895
0.1872
0.186955
0.187447
0.188217
0.18896
0.189445
0.18958
0.189351
0.188683
0.194528
0.193614
0.193428
0.193684
0.194157
0.194646
0.194981
0.195084
0.194946
0.194534
0.200207
0.199773
0.199669
0.19981
0.200098
0.20041
0.200632
0.200708
0.200638
0.200423
0.205995
0.205838
0.205797
0.205872
0.206034
0.206214
0.206346
0.206394
0.206369
0.206304
0.211876
0.2119
0.21189
0.211911
0.211969
0.212036
0.212081
0.212091
0.21209
0.212142
0.217877
0.218011
0.218005
0.21796
0.217909
0.217856
0.217802
0.217756
0.217756
0.217892
0.224034
0.224233
0.224195
0.224052
0.223863
0.22366
0.223478
0.223345
0.223316
0.223505
0.230414
0.230626
0.230506
0.230216
0.229838
0.229436
0.229077
0.228815
0.228717
0.228916
0.23711
0.237255
0.236987
0.236478
0.23584
0.235169
0.23457
0.234123
0.233904
0.234048
0.24424
0.244191
0.243677
0.24286
0.241871
0.240848
0.239934
0.239232
0.238824
0.238817
0.251946
0.25149
0.250599
0.249363
0.247924
0.246461
0.245152
0.244121
0.243436
0.243137
0.260411
0.25916
0.257729
0.255957
0.253974
0.251998
0.250227
0.248795
0.247732
0.246938
0.269753
0.267172
0.264954
0.262535
0.259952
0.257442
0.255187
0.253303
0.251746
0.250203
0.280046
0.275187
0.271931
0.268831
0.265699
0.262748
0.260083
0.257757
0.2556
0.252978
0.290918
0.282383
0.277935
0.274318
0.270897
0.267805
0.264983
0.262345
0.259524
0.255434
0.302411
0.287802
0.281861
0.278101
0.274959
0.272362
0.269933
0.267334
0.263894
0.257916
0.314644
0.288501
0.280726
0.278062
0.276635
0.275845
0.274883
0.273063
0.269281
0.261026
0.166752
0.162204
0.164195
0.167773
0.17089
0.173125
0.174345
0.174597
0.173921
0.172131
0.177895
0.172593
0.172631
0.174488
0.176483
0.178084
0.17902
0.179235
0.178731
0.177377
0.18347
0.180341
0.180075
0.181039
0.182293
0.183401
0.184089
0.184264
0.183908
0.182939
0.188928
0.18723
0.186951
0.187437
0.188208
0.188952
0.189439
0.189576
0.189341
0.18869
0.194513
0.193627
0.193428
0.19368
0.194152
0.19464
0.194976
0.195081
0.19494
0.194539
0.200201
0.19978
0.199671
0.199809
0.200095
0.200406
0.200628
0.200705
0.200634
0.200425
0.205993
0.20584
0.205798
0.205872
0.206033
0.206212
0.206343
0.206392
0.206368
0.206304
0.211876
0.211899
0.21189
0.211911
0.211968
0.212034
0.212079
0.21209
0.212091
0.212141
0.217879
0.218008
0.218006
0.21796
0.217909
0.217855
0.217801
0.217756
0.217758
0.21789
0.224038
0.224229
0.224195
0.224052
0.223863
0.22366
0.223477
0.223345
0.22332
0.223501
0.230419
0.230621
0.230507
0.230217
0.229838
0.229436
0.229076
0.228815
0.228721
0.228911
0.237116
0.237251
0.236988
0.23648
0.235841
0.23517
0.23457
0.234122
0.233908
0.234043
0.244245
0.244189
0.243679
0.242862
0.241872
0.240849
0.239933
0.239231
0.238826
0.238811
0.251951
0.251495
0.250603
0.249366
0.247926
0.246463
0.245152
0.244119
0.243434
0.243133
0.260412
0.259179
0.257735
0.255961
0.253977
0.252
0.250227
0.248792
0.247723
0.246937
0.26974
0.26721
0.264961
0.262538
0.259957
0.257444
0.255187
0.253298
0.251725
0.250208
0.279995
0.275257
0.271937
0.268832
0.265705
0.26275
0.260083
0.257749
0.255561
0.252993
0.290852
0.282557
0.277959
0.27432
0.270904
0.267806
0.264981
0.262332
0.25946
0.255463
0.302295
0.288127
0.281856
0.278059
0.274944
0.272349
0.269924
0.267313
0.263796
0.257965
0.313313
0.288393
0.280432
0.277878
0.276567
0.275811
0.274867
0.273033
0.269138
0.261103
0.25282
0.261435
0.266678
0.270782
0.274344
0.277591
0.279803
0.279982
0.276338
0.265865
0.223696
0.239516
0.250748
0.2603
0.269385
0.278038
0.285115
0.288948
0.286665
0.273821
0.206224
0.221555
0.234919
0.248423
0.262887
0.277861
0.29151
0.301088
0.301952
0.28743
0.192716
0.206555
0.220752
0.23718
0.25662
0.278447
0.300298
0.318164
0.324894
0.310633
0.182886
0.19554
0.210214
0.228975
0.252976
0.281936
0.313529
0.342751
0.359468
0.349895
0.176986
0.189327
0.20483
0.225912
0.254359
0.290749
0.333685
0.378141
0.411262
0.415324
0.174832
0.187916
0.205009
0.228901
0.262138
0.306592
0.362831
0.427546
0.486779
0.521242
0.175539
0.190101
0.209353
0.236477
0.274929
0.328352
0.40041
0.491185
0.590972
0.694821
0.177475
0.19316
0.213851
0.243022
0.285094
0.345962
0.433939
0.557254
0.726088
1.00594
0.178835
0.194026
0.21353
0.240722
0.280294
0.3396
0.432633
0.586917
0.873273
1.49039
0.253159
0.260971
0.266551
0.270772
0.274342
0.277599
0.279808
0.280015
0.276534
0.265752
0.224116
0.239443
0.250683
0.260266
0.269362
0.278032
0.285107
0.288985
0.286928
0.273669
0.206479
0.221573
0.234887
0.248381
0.262847
0.277833
0.291479
0.301122
0.302292
0.287234
0.192805
0.20654
0.2207
0.237111
0.256546
0.27838
0.300223
0.31818
0.325304
0.310394
0.182912
0.195507
0.210144
0.228878
0.252861
0.281813
0.31339
0.342727
0.359901
0.34964
0.176994
0.18929
0.20475
0.225792
0.2542
0.29055
0.333442
0.378023
0.411617
0.415277
0.174847
0.187893
0.204941
0.228778
0.261941
0.306279
0.362399
0.427211
0.486756
0.521732
0.175582
0.190135
0.209375
0.236477
0.274877
0.328151
0.400032
0.490839
0.589674
0.694503
0.177543
0.193273
0.214035
0.243312
0.285524
0.346523
0.434682
0.557856
0.722856
1.00365
0.178886
0.194065
0.213549
0.240725
0.280307
0.339675
0.43299
0.587351
0.869584
1.49964
0.253159
0.260971
0.266551
0.270772
0.274342
0.277599
0.279808
0.280015
0.276534
0.265752
0.224116
0.239443
0.250683
0.260266
0.269362
0.278032
0.285107
0.288985
0.286928
0.273669
0.206479
0.221573
0.234887
0.248381
0.262847
0.277833
0.291479
0.301122
0.302292
0.287234
0.192805
0.20654
0.2207
0.237111
0.256546
0.27838
0.300223
0.31818
0.325304
0.310394
0.182912
0.195507
0.210144
0.228878
0.252861
0.281813
0.31339
0.342727
0.359901
0.34964
0.176994
0.18929
0.20475
0.225792
0.2542
0.29055
0.333442
0.378023
0.411617
0.415277
0.174847
0.187893
0.204941
0.228778
0.261941
0.306279
0.362399
0.427211
0.486756
0.521732
0.175582
0.190135
0.209375
0.236477
0.274877
0.328151
0.400032
0.490839
0.589674
0.694503
0.177543
0.193273
0.214035
0.243312
0.285524
0.346523
0.434682
0.557856
0.722856
1.00365
0.178886
0.194065
0.213549
0.240725
0.280307
0.339675
0.43299
0.587351
0.869584
1.49964
0.25282
0.261435
0.266678
0.270782
0.274344
0.277591
0.279803
0.279982
0.276338
0.265865
0.223696
0.239516
0.250748
0.2603
0.269385
0.278038
0.285115
0.288949
0.286665
0.273821
0.206224
0.221555
0.234919
0.248423
0.262887
0.277861
0.29151
0.301088
0.301952
0.28743
0.192716
0.206555
0.220752
0.23718
0.25662
0.278447
0.300298
0.318164
0.324894
0.310633
0.182886
0.19554
0.210214
0.228975
0.252976
0.281936
0.313529
0.342751
0.359468
0.349895
0.176986
0.189327
0.20483
0.225912
0.254359
0.290749
0.333685
0.378141
0.411262
0.415324
0.174832
0.187916
0.205009
0.228901
0.262138
0.306592
0.362831
0.427546
0.486779
0.521242
0.175539
0.190101
0.209353
0.236477
0.274929
0.328352
0.40041
0.491185
0.590972
0.694821
0.177475
0.19316
0.213851
0.243022
0.285094
0.345962
0.433939
0.557254
0.726088
1.00594
0.178835
0.194026
0.21353
0.240722
0.280294
0.3396
0.432633
0.586917
0.873273
1.49039
-0.153655
-0.132995
-0.114962
-0.0983285
-0.0817163
-0.0649195
-0.0479302
-0.0307838
-0.013541
0.00372682
0.0209431
0.0380359
0.0549384
0.0716019
0.0880528
0.104478
0.121362
0.139742
0.162919
0.200674
-0.139716
-0.126233
-0.111715
-0.0964667
-0.0805383
-0.06414
-0.0474069
-0.0304359
-0.0133115
0.00389154
0.0211079
0.038279
0.0553651
0.0723692
0.0893633
0.106554
0.124337
0.143337
0.165063
0.192969
-0.136516
-0.124521
-0.110821
-0.0959641
-0.0802699
-0.0640024
-0.0473347
-0.0303887
-0.0132584
0.00398145
0.0212699
0.038558
0.0558124
0.0730262
0.0902383
0.107565
0.12522
0.143497
0.162952
0.184491
-0.137712
-0.125408
-0.11153
-0.0965382
-0.08074
-0.0643752
-0.0476132
-0.0305741
-0.0133458
0.00400519
0.0214256
0.0388703
0.0562989
0.0736759
0.0909741
0.108182
0.1253
0.142329
0.159328
0.176399
-0.140416
-0.127434
-0.113064
-0.0976918
-0.0816003
-0.0650053
-0.0480584
-0.0308643
-0.0134959
0.00399342
0.0215598
0.0391597
0.0567406
0.0742317
0.0915354
0.108521
0.125015
0.140813
0.155745
0.16977
-0.142854
-0.129253
-0.114414
-0.0986784
-0.0823101
-0.0655044
-0.0483948
-0.0310697
-0.0135882
0.00400708
0.0216782
0.0393795
0.0570441
0.0745689
0.0917999
0.108526
0.124472
0.139345
0.152937
0.165309
-0.143366
-0.129524
-0.114548
-0.0987319
-0.0823165
-0.0654817
-0.0483516
-0.0310085
-0.0135077
0.00410959
0.0218033
0.0395205
0.0571805
0.0746576
0.0917672
0.108261
0.123842
0.138226
0.151273
0.163199
-0.141073
-0.127586
-0.112992
-0.0975246
-0.0814015
-0.0647985
-0.0478452
-0.0306336
-0.0132297
0.00431409
0.0219465
0.0396022
0.0571882
0.0745678
0.0915493
0.107888
0.123316
0.137609
0.150735
0.163051
-0.135986
-0.123632
-0.110012
-0.0953342
-0.0798227
-0.0636776
-0.0470589
-0.0300888
-0.0128597
0.00455478
0.0220881
0.0396595
0.0571668
0.074472
0.0913904
0.107698
0.123161
0.137617
0.151099
0.164035
-0.127738
-0.117678
-0.105815
-0.092437
-0.0778598
-0.0623694
-0.046201
-0.0295365
-0.0125126
0.00476495
0.0222062
0.0397291
0.0572309
0.0745759
0.0915897
0.108059
0.123758
0.13851
0.152301
0.165456
-0.154036
-0.132878
-0.114947
-0.0983508
-0.081729
-0.0649271
-0.0479355
-0.0307871
-0.0135427
0.00372645
0.0209437
0.0380366
0.0549384
0.071599
0.088043
0.104458
0.121339
0.139693
0.162589
0.200072
-0.139658
-0.126063
-0.111638
-0.0964299
-0.0805119
-0.0641215
-0.0473943
-0.0304274
-0.013306
0.00389493
0.0211103
0.0382818
0.0553703
0.07238
0.0893826
0.106586
0.124397
0.143408
0.164962
0.192712
-0.136576
-0.124495
-0.110797
-0.0959458
-0.0802551
-0.0639918
-0.0473273
-0.0303835
-0.0132548
0.00398383
0.0212714
0.038559
0.055813
0.0730265
0.0902369
0.10756
0.125214
0.143479
0.162861
0.184406