/*--------------------------------*- C++ -*----------------------------------*\
| =========                 |                                                 |
| \\      /  F ield         | OpenFOAM: The Open Source CFD Toolbox           |
|  \\    /   O peration     | Version:  2.4.0                                 |
|   \\  /    A nd           | Web:      www.OpenFOAM.org                      |
|    \\/     M anipulation  |                                                 |
\*---------------------------------------------------------------------------*/
FoamFile
{
    version     2.0;
    format      ascii;
    class       surfaceScalarField;
    location    "3.3";
    object      phi;
}
// * * * * * * * * * * * * * * * * * * * * * * * * * * * * * * * * * * * * * //

dimensions      [0 3 -1 0 0 0 0];

internalField   nonuniform List<scalar> 
12720
(
1.53665e-07
-1.53568e-07
9.56786e-11
-5.42038e-07
6.93942e-07
1.76222e-09
-2.06799e-06
1.52335e-06
2.60478e-09
-4.17741e-06
2.10609e-06
3.33331e-09
-6.63437e-06
2.45319e-06
3.76761e-09
-9.24449e-06
2.60617e-06
3.94729e-09
-1.18477e-05
2.59928e-06
3.96071e-09
-1.43054e-05
2.45392e-06
3.79996e-09
-1.64965e-05
2.18764e-06
3.44839e-09
1.82921e-06
2.88169e-09
-1.83286e-05
-7.25306e-07
5.73155e-07
-1.4149e-09
-3.29253e-06
3.26074e-06
4.2658e-10
-7.48988e-06
5.72217e-06
-1.48486e-09
-1.28935e-05
7.51209e-06
-2.37004e-09
-1.90556e-05
8.61808e-06
-2.81486e-09
-2.55577e-05
9.11142e-06
-3.08996e-09
-3.20207e-05
9.06546e-06
-3.19744e-09
-3.81027e-05
8.53876e-06
-2.88427e-09
-4.35087e-05
7.59624e-06
-2.53462e-09
6.3461e-06
-2.18809e-09
-4.80234e-05
-1.69093e-06
2.26657e-06
-2.47882e-09
-6.12289e-06
7.69042e-06
2.28525e-09
-1.27007e-05
1.22998e-05
1.25873e-10
-2.08293e-05
1.56408e-05
-7.70722e-11
-2.99233e-05
1.77119e-05
1.31337e-10
-3.94253e-05
1.86133e-05
1.22391e-10
-4.88084e-05
1.84485e-05
1.35481e-10
-5.75801e-05
1.73102e-05
1.88736e-10
-6.53062e-05
1.53221e-05
2.54453e-10
1.27071e-05
1.56305e-10
-7.16673e-05
-2.4839e-06
4.75408e-06
-3.61507e-09
-8.49433e-06
1.36976e-05
3.20843e-09
-1.70473e-05
2.08528e-05
4.11935e-12
-2.73599e-05
2.59537e-05
-2.68632e-10
-3.87325e-05
2.90845e-05
9.62719e-11
-5.05113e-05
3.03918e-05
1.36589e-10
-6.20636e-05
3.00006e-05
1.75779e-10
-7.27749e-05
2.80213e-05
2.80146e-10
-8.2079e-05
2.46257e-05
4.78923e-10
2.01673e-05
4.2133e-10
-8.95397e-05
-3.04451e-06
7.80301e-06
-4.42069e-09
-1.02086e-05
2.0858e-05
3.76986e-09
-2.02059e-05
3.08505e-05
-4.10786e-10
-3.20955e-05
3.78442e-05
-9.12773e-10
-4.50893e-05
4.20788e-05
-5.50337e-10
-5.84656e-05
4.37687e-05
-5.27367e-10
-7.15146e-05
4.30501e-05
-4.72363e-10
-8.35146e-05
4.00215e-05
-2.76848e-10
-9.37528e-05
3.48637e-05
3.02753e-10
2.80364e-05
5.90169e-10
-0.000101623
-3.34871e-06
1.11565e-05
-4.78642e-09
-1.11605e-05
2.86656e-05
4.17817e-09
-2.1976e-05
4.16666e-05
-5.40223e-10
-3.47568e-05
5.06261e-05
-1.1634e-09
-4.86614e-05
5.59842e-05
-8.07493e-10
-6.2932e-05
5.80401e-05
-8.05069e-10
-7.6811e-05
5.69299e-05
-7.89157e-10
-8.94865e-05
5.26977e-05
-6.35133e-10
-0.000100077
4.54538e-05
5.19906e-10
3.56553e-05
1.63855e-09
-0.000107698
-3.38742e-06
1.45495e-05
-5.53108e-09
-1.13001e-05
3.6574e-05
4.30374e-09
-2.22449e-05
5.26119e-05
-5.77327e-10
-3.51558e-05
6.35384e-05
-1.27346e-09
-4.91786e-05
7.00079e-05
-9.72955e-10
-6.35536e-05
7.24162e-05
-1.01319e-09
-7.75159e-05
7.08932e-05
-1.12512e-09
-9.02032e-05
6.53864e-05
-1.35065e-09
-0.000100568
5.58182e-05
6.81757e-10
4.23691e-05
4.1588e-09
-0.000107286
-3.16774e-06
1.77216e-05
-4.42166e-09
-1.06341e-05
4.40362e-05
4.11004e-09
-2.0998e-05
6.29764e-05
-5.30697e-10
-3.32267e-05
7.57683e-05
-1.24113e-09
-4.64818e-05
8.3264e-05
-1.01711e-09
-6.0027e-05
8.59624e-05
-1.03722e-09
-7.31323e-05
8.39998e-05
-1.17717e-09
-8.4958e-05
7.72142e-05
-2.09129e-09
-9.43775e-05
6.52356e-05
2.00712e-09
4.74259e-05
1.44754e-08
-9.94487e-05
-2.72017e-06
2.04455e-05
-3.71344e-09
-9.24703e-06
5.05593e-05
3.71494e-09
-1.8365e-05
7.20947e-05
-3.68728e-10
-2.91084e-05
8.65128e-05
-1.04171e-09
-4.06535e-05
9.48101e-05
-9.57657e-10
-5.227e-05
9.758e-05
-1.03975e-09
-6.32628e-05
9.49939e-05
-1.39964e-09
-7.28673e-05
8.68236e-05
-4.90173e-09
-8.00973e-05
7.24671e-05
-1.45497e-09
4.97309e-05
3.24925e-08
-8.24349e-05
-2.10893e-06
-2.69757e-09
2.25571e-05
-7.32788e-06
3.2043e-09
5.5775e-05
-1.4678e-05
-6.06722e-11
7.94449e-05
-2.32649e-05
-5.93939e-10
9.51002e-05
-3.22344e-05
-6.3253e-10
0.00010378
-4.07598e-05
-9.30857e-10
0.000106106
-4.80215e-05
-1.98116e-09
0.000102258
-5.31018e-05
-1.22115e-08
9.1916e-05
-5.48902e-05
-2.85532e-08
7.42841e-05
9.77805e-09
-5.22115e-05
4.70425e-05
1.54904e-07
-1.54793e-07
-1.56292e-11
-5.42736e-07
6.99411e-07
-7.89419e-12
-2.06878e-06
1.52865e-06
-9.68383e-13
-4.17756e-06
2.11212e-06
2.55455e-12
-6.63424e-06
2.46044e-06
3.44175e-12
-9.24435e-06
2.61405e-06
3.20613e-12
-1.18477e-05
2.60732e-06
3.03985e-12
-1.43056e-05
2.46169e-06
2.34037e-12
-1.64969e-05
2.19478e-06
1.39052e-12
1.83519e-06
9.65169e-13
-1.83293e-05
-7.30072e-07
5.73873e-07
-8.11873e-12
-3.29822e-06
3.26799e-06
-3.98787e-12
-7.49491e-06
5.72385e-06
1.22944e-12
-1.2897e-05
7.51181e-06
3.48837e-12
-1.90573e-05
8.6179e-06
3.95958e-12
-2.55578e-05
9.11154e-06
3.53779e-12
-3.20197e-05
9.06596e-06
2.80446e-12
-3.81007e-05
8.53987e-06
2.08757e-12
-4.35065e-05
7.59797e-06
1.4604e-12
6.3477e-06
1.09575e-12
-4.80212e-05
-1.69637e-06
2.26776e-06
-1.11546e-12
-6.12369e-06
7.69759e-06
1.20088e-12
-1.27015e-05
1.23018e-05
3.21873e-12
-2.08304e-05
1.56406e-05
4.02007e-12
-2.99239e-05
1.77116e-05
3.99567e-12
-3.94254e-05
1.86131e-05
3.31372e-12
-4.88081e-05
1.84488e-05
2.71437e-12
-5.75796e-05
1.73115e-05
2.15448e-12
-6.53059e-05
1.53245e-05
1.45829e-12
1.27093e-05
9.3418e-13
-7.16674e-05
-2.49075e-06
4.75489e-06
2.33529e-12
-8.49324e-06
1.37033e-05
3.41478e-12
-1.70462e-05
2.08547e-05
4.19608e-12
-2.73597e-05
2.59538e-05
4.22552e-12
-3.87325e-05
2.90845e-05
3.92608e-12
-5.05113e-05
3.0392e-05
3.02873e-12
-6.20635e-05
3.00012e-05
2.51521e-12
-7.27747e-05
2.80231e-05
1.93199e-12
-8.20795e-05
2.46298e-05
1.34436e-12
2.01713e-05
9.47676e-13
-8.95411e-05
-3.05307e-06
7.80354e-06
3.35996e-12
-1.02072e-05
2.08612e-05
3.92669e-12
-2.02043e-05
3.08514e-05
4.22322e-12
-3.20952e-05
3.78438e-05
3.91936e-12
-4.50893e-05
4.2078e-05
3.52359e-12
-5.84658e-05
4.37679e-05
2.80086e-12
-7.15146e-05
4.30496e-05
2.31739e-12
-8.35142e-05
4.00224e-05
1.83814e-12
-9.37533e-05
3.48692e-05
1.40721e-12
2.80437e-05
1.02375e-12
-0.000101625
-3.3583e-06
1.11571e-05
3.47382e-12
-1.11591e-05
2.86662e-05
3.79243e-12
-2.19744e-05
4.16662e-05
3.84327e-12
-3.47568e-05
5.06249e-05
3.46901e-12
-4.8662e-05
5.59824e-05
3.09233e-12
-6.29329e-05
5.80381e-05
2.62804e-12
-7.68117e-05
5.69276e-05
2.18563e-12
-8.94862e-05
5.26962e-05
1.81073e-12
-0.000100077
4.5461e-05
1.43728e-12
3.567e-05
1.02934e-12
-0.000107702
-3.39744e-06
1.4549e-05
3.28774e-12
-1.12989e-05
3.65719e-05
3.35266e-12
-2.22436e-05
5.26103e-05
3.26453e-12
-3.51564e-05
6.35365e-05
2.94103e-12
-4.91802e-05
7.00052e-05
2.66289e-12
-6.35561e-05
7.24129e-05
2.36368e-12
-7.75183e-05
7.08887e-05
2.00426e-12
-9.02034e-05
6.538e-05
1.61395e-12
-0.000100567
5.58256e-05
1.29485e-12
4.24015e-05
9.50566e-13
-0.000107295
-3.17674e-06
1.77213e-05
2.50949e-12
-1.06328e-05
4.40321e-05
2.58612e-12
-2.0997e-05
6.2974e-05
2.58174e-12
-3.32279e-05
7.57661e-05
2.41495e-12
-4.64846e-05
8.3261e-05
2.2941e-12
-6.00312e-05
8.59584e-05
2.09961e-12
-7.3137e-05
8.39933e-05
1.7061e-12
-8.49584e-05
7.71993e-05
1.32519e-12
-9.4365e-05
6.52343e-05
1.05478e-12
4.75087e-05
7.9978e-13
-9.94577e-05
-2.72763e-06
2.04452e-05
1.78183e-12
-9.24579e-06
5.0554e-05
1.92877e-12
-1.83643e-05
7.20921e-05
2.01198e-12
-2.91103e-05
8.65111e-05
1.95059e-12
-4.06583e-05
9.4808e-05
1.91871e-12
-5.22786e-05
9.75776e-05
1.76851e-12
-6.32773e-05
9.49907e-05
1.31506e-12
-7.28872e-05
8.68042e-05
8.5157e-13
-8.00735e-05
7.24192e-05
6.25365e-13
4.98486e-05
4.11381e-13
-8.23809e-05
-2.11434e-06
1.21639e-12
2.25568e-05
-7.32632e-06
1.29175e-12
5.57692e-05
-1.46767e-05
1.43555e-12
7.94425e-05
-2.32658e-05
1.46458e-12
9.50996e-05
-3.22392e-05
1.4898e-12
0.000103781
-4.07717e-05
1.35429e-12
0.000106109
-4.80504e-05
9.33691e-13
0.000102267
-5.31902e-05
3.71364e-13
9.19319e-05
-5.50313e-05
6.10331e-14
7.42317e-05
-1.31264e-13
-5.19831e-05
4.68102e-05
1.5489e-07
-1.54807e-07
-9.8071e-11
-5.4275e-07
6.99401e-07
-1.76798e-09
-2.06879e-06
1.52864e-06
-2.60377e-09
-4.17757e-06
2.11211e-06
-3.32883e-09
-6.63425e-06
2.46044e-06
-3.76264e-09
-9.24435e-06
2.61405e-06
-3.94283e-09
-1.18477e-05
2.60732e-06
-3.9576e-09
-1.43056e-05
2.46169e-06
-3.79735e-09
-1.64969e-05
2.19478e-06
-3.44635e-09
1.83519e-06
-2.8804e-09
-1.83293e-05
-7.30082e-07
5.73858e-07
1.40941e-09
-3.29823e-06
3.26798e-06
-4.2834e-10
-7.49492e-06
5.72384e-06
1.48886e-09
-1.2897e-05
7.51181e-06
2.37602e-09
-1.90573e-05
8.6179e-06
2.82052e-09
-2.55578e-05
9.11154e-06
3.09534e-09
-3.20197e-05
9.06596e-06
3.20142e-09
-3.81007e-05
8.53987e-06
2.88748e-09
-4.35065e-05
7.59797e-06
2.53714e-09
6.3477e-06
2.18964e-09
-4.80212e-05
-1.69637e-06
2.26775e-06
2.48026e-09
-6.12369e-06
7.69758e-06
-2.28161e-09
-1.27015e-05
1.23018e-05
-1.2001e-10
-2.08304e-05
1.56406e-05
8.3405e-11
-2.99239e-05
1.77116e-05
-1.25401e-10
-3.94254e-05
1.86131e-05
-1.17051e-10
-4.88081e-05
1.84488e-05
-1.31621e-10
-5.75796e-05
1.73115e-05
-1.85818e-10
-6.53059e-05
1.53245e-05
-2.52184e-10
1.27093e-05
-1.54943e-10
-7.16673e-05
-2.49075e-06
4.75488e-06
3.62023e-09
-8.49324e-06
1.37033e-05
-3.20254e-09
-1.70462e-05
2.08547e-05
2.40104e-12
-2.73597e-05
2.59538e-05
2.74732e-10
-3.87325e-05
2.90845e-05
-9.0536e-11
-5.05113e-05
3.0392e-05
-1.31399e-10
-6.20635e-05
3.00012e-05
-1.7195e-10
-7.27747e-05
2.80231e-05
-2.77259e-10
-8.20795e-05
2.46298e-05
-4.76788e-10
2.01713e-05
-4.19862e-10
-8.95411e-05
-3.05307e-06
7.80353e-06
4.42667e-09
-1.02072e-05
2.08612e-05
-3.76387e-09
-2.02043e-05
3.08514e-05
4.16913e-10
-3.20952e-05
3.78438e-05
9.18253e-10
-4.50893e-05
4.2078e-05
5.55461e-10
-5.84658e-05
4.37679e-05
5.31932e-10
-7.15146e-05
4.30496e-05
4.75518e-10
-8.35142e-05
4.00224e-05
2.79291e-10
-9.37533e-05
3.48692e-05
-3.0084e-10
2.80437e-05
-5.88745e-10
-0.000101625
-3.3583e-06
1.1157e-05
4.79203e-09
-1.11591e-05
2.86662e-05
-4.17268e-09
-2.19744e-05
4.16662e-05
5.45765e-10
-3.47568e-05
5.06249e-05
1.16822e-09
-4.86619e-05
5.59824e-05
8.11963e-10
-6.29329e-05
5.80381e-05
8.09025e-10
-7.68117e-05
5.69276e-05
7.92023e-10
-8.94862e-05
5.26962e-05
6.3739e-10
-0.000100077
4.5461e-05
-5.18186e-10
3.567e-05
-1.63722e-09
-0.000107702
-3.39744e-06
1.4549e-05
5.53743e-09
-1.12989e-05
3.65719e-05
-4.2991e-09
-2.22436e-05
5.26103e-05
5.81901e-10
-3.51564e-05
6.35365e-05
1.27752e-09
-4.91802e-05
7.00052e-05
9.76983e-10
-6.3556e-05
7.24129e-05
1.0168e-09
-7.75183e-05
7.08887e-05
1.12795e-09
-9.02034e-05
6.538e-05
1.35275e-09
-0.000100567
5.58256e-05
-6.8039e-10
4.24015e-05
-4.15773e-09
-0.000107295
-3.17674e-06
1.77213e-05
4.42553e-09
-1.06328e-05
4.40321e-05
-4.10627e-09
-2.0997e-05
6.2974e-05
5.34239e-10
-3.32279e-05
7.57661e-05
1.24435e-09
-4.64846e-05
8.3261e-05
1.02049e-09
-6.00311e-05
8.59584e-05
1.04034e-09
-7.3137e-05
8.39933e-05
1.17965e-09
-8.49584e-05
7.71993e-05
2.09297e-09
-9.4365e-05
6.52343e-05
-2.00637e-09
4.75087e-05
-1.4475e-08
-9.94577e-05
-2.72763e-06
2.04452e-05
3.71639e-09
-9.24579e-06
5.0554e-05
-3.71229e-09
-1.83643e-05
7.20921e-05
3.7132e-10
-2.91103e-05
8.65111e-05
1.04425e-09
-4.06583e-05
9.4808e-05
9.60333e-10
-5.22786e-05
9.75776e-05
1.04216e-09
-6.32773e-05
9.49907e-05
1.40152e-09
-7.28872e-05
8.68042e-05
4.90288e-09
-8.00735e-05
7.24192e-05
1.45512e-09
4.98486e-05
-3.24926e-08
-8.23809e-05
-2.11434e-06
2.69973e-09
2.25568e-05
-7.32632e-06
-3.20252e-09
5.57692e-05
-1.46767e-05
6.25285e-11
7.94425e-05
-2.32658e-05
5.95852e-10
9.50996e-05
-3.22392e-05
6.34504e-10
0.000103781
-4.07717e-05
9.32464e-10
0.000106109
-4.80504e-05
1.98223e-09
0.000102267
-5.31902e-05
1.22118e-08
9.19319e-05
-5.50313e-05
2.85529e-08
7.42317e-05
-9.77818e-09
-5.19831e-05
4.68102e-05
1.53567e-07
-1.53665e-07
-5.42098e-07
6.93897e-07
-2.06803e-06
1.52333e-06
-4.17744e-06
2.10608e-06
-6.63439e-06
2.45319e-06
-9.2445e-06
2.60617e-06
-1.18477e-05
2.59928e-06
-1.43055e-05
2.45392e-06
-1.64965e-05
2.18763e-06
1.82921e-06
-1.83286e-05
-7.25351e-07
5.73095e-07
-3.29258e-06
3.2607e-06
-7.48991e-06
5.72215e-06
-1.28935e-05
7.51207e-06
-1.90556e-05
8.61807e-06
-2.55577e-05
9.11142e-06
-3.20207e-05
9.06546e-06
-3.81027e-05
8.53875e-06
-4.35087e-05
7.59624e-06
6.34609e-06
-4.80234e-05
-1.69095e-06
2.26652e-06
-6.12291e-06
7.69038e-06
-1.27007e-05
1.22998e-05
-2.08293e-05
1.56408e-05
-2.99233e-05
1.77119e-05
-3.94253e-05
1.86133e-05
-4.88084e-05
1.84485e-05
-5.75801e-05
1.73102e-05
-6.53062e-05
1.53221e-05
1.27071e-05
-7.16673e-05
-2.4839e-06
4.75405e-06
-8.49433e-06
1.36976e-05
-1.70473e-05
2.08528e-05
-2.73599e-05
2.59536e-05
-3.87325e-05
2.90845e-05
-5.05112e-05
3.03918e-05
-6.20635e-05
3.00006e-05
-7.27749e-05
2.80213e-05
-8.2079e-05
2.46257e-05
2.01673e-05
-8.95397e-05
-3.04451e-06
7.80298e-06
-1.02086e-05
2.08579e-05
-2.02059e-05
3.08505e-05
-3.20955e-05
3.78442e-05
-4.50893e-05
4.20788e-05
-5.84656e-05
4.37687e-05
-7.15146e-05
4.30501e-05
-8.35146e-05
4.00215e-05
-9.37528e-05
3.48637e-05
2.80364e-05
-0.000101623
-3.34871e-06
1.11565e-05
-1.11605e-05
2.86655e-05
-2.1976e-05
4.16666e-05
-3.47568e-05
5.06261e-05
-4.86613e-05
5.59842e-05
-6.29319e-05
5.80401e-05
-7.68109e-05
5.69299e-05
-8.94865e-05
5.26977e-05
-0.000100077
4.54538e-05
3.56553e-05
-0.000107698
-3.38742e-06
1.45494e-05
-1.13001e-05
3.65739e-05
-2.22449e-05
5.26119e-05
-3.51558e-05
6.35384e-05
-4.91786e-05
7.00079e-05
-6.35536e-05
7.24162e-05
-7.75159e-05
7.08932e-05
-9.02032e-05
6.53864e-05
-0.000100568
5.58182e-05
4.23691e-05
-0.000107286
-3.16774e-06
1.77216e-05
-1.06341e-05
4.40361e-05
-2.0998e-05
6.29764e-05
-3.32266e-05
7.57683e-05
-4.64818e-05
8.3264e-05
-6.0027e-05
8.59624e-05
-7.31323e-05
8.39998e-05
-8.4958e-05
7.72142e-05
-9.43775e-05
6.52356e-05
4.74259e-05
-9.94487e-05
-2.72017e-06
2.04455e-05
-9.24702e-06
5.05593e-05
-1.8365e-05
7.20947e-05
-2.91084e-05
8.65128e-05
-4.06535e-05
9.48101e-05
-5.227e-05
9.758e-05
-6.32628e-05
9.49939e-05
-7.28673e-05
8.68236e-05
-8.00973e-05
7.24671e-05
4.97309e-05
-8.24348e-05
-2.10893e-06
2.25571e-05
-7.32788e-06
5.5775e-05
-1.4678e-05
7.94449e-05
-2.32649e-05
9.51002e-05
-3.22344e-05
0.00010378
-4.07598e-05
0.000106106
-4.80215e-05
0.000102258
-5.31018e-05
9.1916e-05
-5.48902e-05
7.42841e-05
-5.22115e-05
4.70425e-05
-1.97602e-05
1.4294e-06
2.16821e-09
-2.08125e-05
1.0508e-06
1.51799e-09
-2.15483e-05
7.34806e-07
1.006e-09
-2.20448e-05
4.95802e-07
6.36057e-10
-2.23751e-05
3.29968e-07
3.91292e-10
-2.26006e-05
2.25196e-07
2.43935e-10
-2.27688e-05
1.68105e-07
1.67327e-10
-2.29164e-05
1.47452e-07
1.41488e-10
-2.30714e-05
1.54841e-07
1.52638e-10
-2.32555e-05
1.83883e-07
1.91899e-10
-2.34843e-05
2.28592e-07
2.53436e-10
-2.37661e-05
2.81393e-07
3.30873e-10
-2.40974e-05
3.30926e-07
4.14251e-10
-2.44578e-05
3.59925e-07
4.87448e-10
-2.48021e-05
3.4373e-07
5.23824e-10
-2.50531e-05
2.50512e-07
4.79958e-10
-2.50992e-05
4.58711e-08
3.01284e-10
-2.47963e-05
-3.02924e-07
-4.5346e-11
-2.39919e-05
-8.03698e-07
-6.55687e-10
-1.43105e-06
-1.5749e-09
-2.25593e-05
-5.15583e-05
4.96621e-06
-1.93614e-09
-5.41734e-05
3.66744e-06
-1.61686e-09
-5.60225e-05
2.58522e-06
-1.27957e-09
-5.729e-05
1.76429e-06
-9.78522e-10
-5.81494e-05
1.19006e-06
-7.3277e-10
-5.8745e-05
8.21397e-07
-5.51975e-10
-5.91894e-05
6.12977e-07
-4.35898e-10
-5.95676e-05
5.25985e-07
-3.76961e-10
-5.99426e-05
5.30242e-07
-3.64699e-10
-6.03599e-05
6.01588e-07
-3.87285e-10
-6.08478e-05
7.16902e-07
-4.29833e-10
-6.1414e-05
8.47996e-07
-4.72537e-10
-6.20377e-05
9.55149e-07
-4.88683e-10
-6.26585e-05
9.81203e-07
-4.4308e-10
-6.31625e-05
8.48039e-07
-2.92317e-10
-6.33707e-05
4.58611e-07
9.19323e-12
-6.30346e-05
-2.90681e-07
4.9148e-10
-6.18545e-05
-1.48416e-06
1.14293e-09
-5.95179e-05
-3.14223e-06
1.92356e-09
-5.17087e-06
2.65781e-09
-5.57807e-05
-7.65461e-05
9.84529e-06
-2.37602e-10
-8.00745e-05
7.19617e-06
-4.15341e-10
-8.25176e-05
5.02881e-06
-4.56305e-10
-8.41632e-05
3.41035e-06
-4.34495e-10
-8.52637e-05
2.29087e-06
-3.71726e-10
-8.60173e-05
1.57538e-06
-2.97208e-10
-8.65716e-05
1.16751e-06
-2.29768e-10
-8.70332e-05
9.87735e-07
-1.76266e-10
-8.74781e-05
9.75283e-07
-1.37558e-10
-8.79583e-05
1.08192e-06
-1.11474e-10
-8.85035e-05
1.26212e-06
-9.32843e-11
-8.91171e-05
1.4617e-06
-7.70754e-11
-8.97679e-05
1.606e-06
-5.6333e-11
-9.03758e-05
1.58912e-06
-2.28672e-11
-9.07949e-05
1.26713e-06
3.46071e-11
-9.07971e-05
4.60669e-07
1.25451e-10
-9.00638e-05
-1.02423e-06
2.44387e-10
-8.81992e-05
-3.34919e-06
3.83596e-10
-8.47788e-05
-6.56317e-06
5.26901e-10
-1.04971e-05
4.48053e-10
-7.9453e-05
-9.50112e-05
1.53172e-05
-3.78501e-10
-9.87614e-05
1.0947e-05
-6.11608e-10
-0.000101221
7.48897e-06
-6.08357e-10
-0.000102796
4.98554e-06
-5.41539e-10
-0.000103802
3.29758e-06
-4.3146e-10
-0.000104464
2.23809e-06
-3.19457e-10
-0.000104935
1.63834e-06
-2.26838e-10
-0.000105315
1.36847e-06
-1.56636e-10
-0.000105674
1.33405e-06
-1.06346e-10
-0.000106055
1.46317e-06
-7.24031e-11
-0.000106483
1.69029e-06
-5.06275e-11
-0.000106961
1.93909e-06
-3.70459e-11
-0.00010746
2.1049e-06
-2.81809e-11
-0.000107908
2.0379e-06
-1.84343e-11
-0.000108172
1.53026e-06
6.51509e-12
-0.000108025
3.13847e-07
6.225e-11
-0.000107133
-1.91634e-06
1.31041e-10
-0.00010504
-5.44227e-06
2.60871e-10
-0.000101204
-1.03999e-05
5.09253e-10
-1.65919e-05
4.49437e-10
-9.51094e-05
-0.000106914
2.06096e-05
-1.03162e-09
-0.000110155
1.41895e-05
-1.15737e-09
-0.000112035
9.36968e-06
-9.38578e-10
-0.000113095
6.04604e-06
-7.34577e-10
-0.000113691
3.8948e-06
-5.17807e-10
-0.000114039
2.58634e-06
-3.40371e-10
-0.000114261
1.86049e-06
-2.17693e-10
-0.000114427
1.53459e-06
-1.38498e-10
-0.000114578
1.48528e-06
-9.05942e-11
-0.00011474
1.62463e-06
-6.51322e-11
-0.000114926
1.87678e-06
-5.56584e-11
-0.000115143
2.15547e-06
-5.77066e-11
-0.000115379
2.34145e-06
-6.82512e-11
-0.0001156
2.2591e-06
-8.10572e-11
-0.000115724
1.65387e-06
-7.13356e-11
-0.000115585
1.75579e-07
-4.40545e-12
-0.000114893
-2.60857e-06
6.44608e-11
-0.000113171
-7.16483e-06
2.57789e-10
-0.000109736
-1.38356e-05
8.96801e-10
-2.25407e-05
1.28547e-09
-0.000103789
-0.000111952
2.48665e-05
-2.20343e-09
-0.000113895
1.61337e-05
-1.88181e-09
-0.000114613
1.00887e-05
-1.18019e-09
-0.000114777
6.21149e-06
-7.90801e-10
-0.00011473
3.84841e-06
-4.65928e-10
-0.000114621
2.47747e-06
-2.45716e-10
-0.000114503
1.74275e-06
-1.21823e-10
-0.000114389
1.42053e-06
-5.62037e-11
-0.000114277
1.37327e-06
-2.40339e-11
-0.000114164
1.51129e-06
-1.17733e-11
-0.00011405
1.76288e-06
-1.25617e-11
-0.000113944
2.04901e-06
-2.38884e-11
-0.00011386
2.25824e-06
-4.6018e-11
-0.00011382
2.21849e-06
-7.8007e-11
-0.000113829
1.66333e-06
-9.67551e-11
-0.000113845
1.918e-07
-5.74797e-11
-0.0001137
-2.75358e-06
-3.01748e-11
-0.000112979
-7.88622e-06
1.43525e-10
-0.000110871
-1.59452e-05
1.54312e-09
-2.73026e-05
3.26431e-09
-0.000106112
-0.000109453
2.7039e-05
-5.86275e-09
-0.000109244
1.59288e-05
-3.87345e-09
-0.000108312
9.15856e-06
-1.79151e-09
-0.000107361
5.2608e-06
-9.3426e-10
-0.000106595
3.08368e-06
-3.9754e-10
-0.000106022
1.90442e-06
-1.22909e-10
-0.000105584
1.30491e-06
-1.51278e-11
-0.000105219
1.05471e-06
2.02343e-11
-0.000104873
1.02763e-06
2.47241e-11
-0.000104512
1.15014e-06
1.48882e-11
-0.000104118
1.36931e-06
-3.58514e-12
-0.000103698
1.6292e-06
-3.01212e-11
-0.000103289
1.84845e-06
-6.60456e-11
-0.000102962
1.89256e-06
-1.14577e-10
-0.000102833
1.53366e-06
-1.515e-10
-0.000103028
3.8726e-07
-7.78854e-11
-0.000103611
-2.17081e-06
9.39412e-11
-0.000104395
-7.10252e-06
4.68191e-10
-0.000104582
-1.57618e-05
3.72899e-09
-2.96354e-05
8.969e-09
-0.000102258
-9.8051e-05
2.56513e-05
-9.95915e-09
-9.48874e-05
1.27693e-05
-4.04908e-09
-9.21318e-05
6.40377e-06
-8.22581e-10
-9.01749e-05
3.30423e-06
-3.12632e-10
-8.88766e-05
1.78532e-06
4.02497e-11
-8.80157e-05
1.04338e-06
1.64833e-10
-8.74071e-05
6.96149e-07
1.55962e-10
-8.69172e-05
5.64657e-07
1.28357e-10
-8.64541e-05
5.64467e-07
1.06489e-10
-8.59573e-05
6.53261e-07
9.10789e-11
-8.53929e-05
8.04835e-07
7.83809e-11
-8.47571e-05
9.93321e-07
6.24159e-11
-8.40878e-05
1.17909e-06
3.3856e-11
-8.34849e-05
1.28964e-06
-3.34827e-11
-8.31371e-05
1.18605e-06
-1.31922e-10
-8.33446e-05
5.94835e-07
-4.27442e-11
-8.44826e-05
-1.03298e-06
1.25316e-10
-8.68648e-05
-4.71981e-06
-4.6028e-10
-9.01587e-05
-1.24713e-05
3.29632e-09
-2.78988e-05
1.43285e-08
-9.19096e-05
-7.48885e-05
1.81174e-05
-1.24435e-08
-6.85866e-05
6.4619e-06
5.51434e-09
-6.47072e-05
2.51815e-06
6.17531e-09
-6.24721e-05
1.06655e-06
2.63845e-09
-6.11846e-05
4.9645e-07
1.36566e-09
-6.0408e-05
2.65936e-07
8.29497e-10
-5.98875e-05
1.75128e-07
5.22104e-10
-5.94729e-05
1.4961e-07
3.95998e-10
-5.90706e-05
1.6179e-07
3.80711e-10
-5.8619e-05
2.01231e-07
4.28358e-10
-5.80781e-05
2.63451e-07
5.13919e-10
-5.74303e-05
3.44849e-07
6.1571e-10
-5.66907e-05
4.38819e-07
6.95766e-10
-5.59314e-05
5.29718e-07
6.56309e-10
-5.5325e-05
5.79292e-07
3.72205e-10
-5.52288e-05
4.98739e-07
-9.09068e-11
-5.62245e-05
-3.56564e-08
-1.6611e-09
-5.93524e-05
-1.58423e-06
-7.66854e-09
-6.57025e-05
-6.11078e-06
-1.04098e-08
-1.93471e-05
1.54903e-08
-7.42697e-05
-3.40251e-05
-6.90482e-08
-2.75515e-05
-1.17513e-08
-2.50325e-05
-8.52556e-10
-2.3964e-05
-1.88846e-09
-2.34664e-05
-1.22746e-09
-2.31998e-05
-5.77005e-10
-2.30244e-05
-3.26851e-10
-2.28746e-05
-2.32075e-10
-2.27126e-05
-2.06048e-10
-2.25111e-05
-2.26883e-10
-2.22474e-05
-2.80812e-10
-2.19022e-05
-3.54366e-10
-2.14629e-05
-4.28397e-10
-2.09327e-05
-4.69284e-10
-2.03531e-05
-3.61072e-10
-1.98545e-05
2.10991e-10
-1.9891e-05
7.71773e-10
-2.14727e-05
-2.55184e-09
-2.75885e-05
5.07563e-09
8.73475e-08
-4.70229e-05
-1.97608e-05
1.43372e-06
6.81799e-13
-2.0813e-05
1.05372e-06
3.31523e-13
-2.15487e-05
7.36693e-07
8.2618e-14
-2.2045e-05
4.96961e-07
-4.41035e-14
-2.23753e-05
3.30663e-07
-9.70112e-14
-2.26007e-05
2.25629e-07
-1.1518e-13
-2.27689e-05
1.68417e-07
-6.4444e-14
-2.29165e-05
1.47743e-07
2.94739e-14
-2.30716e-05
1.55179e-07
-3.87495e-14
-2.32557e-05
1.84317e-07
-1.48276e-13
-2.34846e-05
2.29158e-07
-1.30907e-13
-2.37664e-05
2.82108e-07
-5.09856e-14
-2.40977e-05
3.31782e-07
-6.34206e-14
-2.44581e-05
3.60878e-07
-5.43596e-14
-2.48023e-05
3.44691e-07
2.81271e-14
-2.50531e-05
2.51338e-07
5.86917e-14
-2.5099e-05
4.61175e-08
4.89829e-14
-2.47959e-05
-3.03141e-07
5.10458e-15
-2.39915e-05
-8.05011e-07
-5.52958e-14
-1.43407e-06
-1.01743e-13
-2.2559e-05
-5.15559e-05
4.96649e-06
6.95423e-13
-5.41709e-05
3.66711e-06
3.31131e-13
-5.60202e-05
2.58478e-06
4.42008e-14
-5.72882e-05
1.76389e-06
-8.52784e-14
-5.8148e-05
1.18977e-06
-1.25861e-13
-5.87441e-05
8.21205e-07
-1.85586e-13
-5.9189e-05
6.12858e-07
-2.11576e-13
-5.95675e-05
5.25902e-07
-1.31117e-13
-5.99429e-05
5.30158e-07
-1.79872e-13
-6.03604e-05
6.01466e-07
-2.54943e-13
-6.08484e-05
7.16702e-07
-1.78951e-13
-6.14144e-05
8.47682e-07
-6.46007e-14
-6.20378e-05
9.54695e-07
-3.48656e-14
-6.2658e-05
9.80621e-07
6.78345e-15
-6.3161e-05
8.47406e-07
3.49099e-14
-6.33678e-05
4.58102e-07
1.52071e-14
-6.30303e-05
-2.90827e-07
-4.77824e-15
-6.1849e-05
-1.48339e-06
-4.45012e-14
-5.95118e-05
-3.14025e-06
-1.0341e-13
-5.16834e-06
-2.08059e-13
-5.57749e-05
-7.65455e-05
9.84441e-06
5.98526e-13
-8.00731e-05
7.19432e-06
2.8422e-13
-8.2516e-05
5.02717e-06
6.3018e-15
-8.41617e-05
3.40914e-06
-1.36382e-13
-8.52624e-05
2.29009e-06
-1.04449e-13
-8.60164e-05
1.57493e-06
-2.49616e-13
-8.6571e-05
1.16728e-06
-3.06151e-13
-8.70329e-05
9.87616e-07
-1.54362e-13
-8.74781e-05
9.75187e-07
-1.75925e-13
-8.79585e-05
1.08177e-06
-3.1679e-13
-8.85037e-05
1.26185e-06
-2.47638e-13
-8.91174e-05
1.46124e-06
-8.17813e-14
-8.9768e-05
1.60529e-06
-3.64387e-14
-9.03756e-05
1.58815e-06
-1.11684e-13
-9.07941e-05
1.266e-06
-1.72814e-13
-9.07955e-05
4.59647e-07
-2.17946e-13
-9.00614e-05
-1.02473e-06
-2.28006e-13
-8.81961e-05
-3.34833e-06
-2.03094e-13
-8.47757e-05
-6.56008e-06
-1.46208e-13
-1.0493e-05
-6.57474e-14
-7.94506e-05
-9.50111e-05
1.5314e-05
6.14213e-13
-9.87599e-05
1.09426e-05
2.94621e-13
-0.000101219
7.48566e-06
3.06258e-14
-0.000102794
4.98331e-06
-1.33933e-13
-0.0001038
3.29626e-06
5.90276e-14
-0.000104463
2.2374e-06
-4.43846e-14
-0.000104934
1.63804e-06
-2.15928e-13
-0.000105315
1.36836e-06
-9.30685e-14
-0.000105674
1.334e-06
-7.21407e-14
-0.000106055
1.46308e-06
-1.88083e-13
-0.000106484
1.69006e-06
-1.53247e-13
-0.000106961
1.93863e-06
-8.46803e-14
-0.00010746
2.10412e-06
-1.36498e-13
-0.000107909
2.03675e-06
-2.66071e-13
-0.000108171
1.52881e-06
-3.20417e-13
-0.000108024
3.12491e-07
-3.14864e-13
-0.000107131
-1.91734e-06
-2.58253e-13
-0.000105038
-5.44154e-06
-7.68546e-14
-0.000101202
-1.03955e-05
1.39733e-13
-1.65857e-05
3.11839e-13
-9.51088e-05
-0.000106913
2.0601e-05
6.1841e-13
-0.000110152
1.41807e-05
3.38145e-13
-0.000112032
9.36428e-06
7.63822e-14
-0.000113092
6.04285e-06
-2.25125e-13
-0.00011369
3.89313e-06
2.30912e-14
-0.000114038
2.5856e-06
-9.97681e-14
-0.000114261
1.86022e-06
-2.93402e-13
-0.000114427
1.53453e-06
-1.27397e-13
-0.000114578
1.48528e-06
-2.13425e-14
-0.00011474
1.62458e-06
-1.1148e-13
-0.000114926
1.87658e-06
-1.51584e-13
-0.000115143
2.15501e-06
-1.66397e-13
-0.000115379
2.34061e-06
-2.62042e-13
-0.0001156
2.25777e-06
-3.69926e-13
-0.000115724
1.65206e-06
-3.9231e-13
-0.000115585
1.73945e-07
-2.97439e-13
-0.000114892
-2.61038e-06
-8.49147e-14
-0.000113169
-7.16465e-06
1.86819e-13
-0.000109734
-1.38289e-05
4.26565e-13
-2.25296e-05
4.81753e-13
-0.000103789
-0.00011195
2.48463e-05
5.4498e-13
-0.000113889
1.61184e-05
3.21845e-13
-0.000114608
1.00818e-05
8.00077e-14
-0.000114774
6.20824e-06
-2.4515e-13
-0.000114728
3.84707e-06
2.22454e-14
-0.00011462
2.47708e-06
-5.89993e-14
-0.000114503
1.74274e-06
-2.94033e-13
-0.000114389
1.42063e-06
-2.17998e-13
-0.000114277
1.37337e-06
-1.38211e-13
-0.000114164
1.51131e-06
-1.64764e-13
-0.00011405
1.76275e-06
-2.18248e-13
-0.000113944
2.04862e-06
-2.89098e-13
-0.000113861
2.25746e-06
-4.13355e-13
-0.00011382
2.21713e-06
-4.87542e-13
-0.000113829
1.66128e-06
-4.26852e-13
-0.000113845
1.89795e-07
-2.05622e-13
-0.000113699
-2.75659e-06
5.2401e-14
-0.000112976
-7.88757e-06
2.71762e-13
-0.000110868
-1.59351e-05
3.70982e-13
-2.72797e-05
2.64086e-13
-0.000106115
-0.000109446
2.69913e-05
3.56684e-13
-0.000109234
1.5903e-05
2.5578e-13
-0.000108306
9.15163e-06
-5.95188e-14
-0.000107357
5.25889e-06
-2.05305e-13
-0.000106594
3.08341e-06
4.08162e-14
-0.000106022
1.90469e-06
8.18133e-14
-0.000105584
1.30523e-06
-9.85013e-14
-0.000105218
1.05495e-06
-1.43698e-13
-0.000104873
1.02777e-06
-1.65429e-13
-0.000104512
1.15017e-06
-2.42815e-13
-0.000104118
1.36918e-06
-3.14549e-13
-0.000103698
1.62883e-06
-4.00365e-13
-0.000103289
1.84771e-06
-4.55905e-13
-0.000102963
1.8912e-06
-3.90708e-13
-0.000102833
1.53146e-06
-1.45927e-13
-0.000103028
3.84613e-07
1.84693e-13
-0.00010361
-2.17492e-06
3.11418e-13
-0.000104391
-7.10568e-06
3.42615e-13
-0.000104578
-1.57445e-05
3.89668e-13
-2.95807e-05
1.41448e-13
-0.000102268
-9.80367e-05
2.55603e-05
1.62739e-13
-9.48771e-05
1.27393e-05
2.18941e-13
-9.21285e-05
6.40219e-06
-2.02104e-13
-9.01748e-05
3.30493e-06
-3.31294e-13
-8.88773e-05
1.78595e-06
-1.43146e-13
-8.80164e-05
1.04393e-06
2.3939e-14
-8.74075e-05
6.96499e-07
-5.9348e-15
-8.69173e-05
5.64848e-07
-6.3143e-14
-8.6454e-05
5.6456e-07
-1.75212e-13
-8.5957e-05
6.53281e-07
-3.19672e-13
-8.53925e-05
8.04775e-07
-4.1945e-13
-8.47568e-05
9.93145e-07
-4.7155e-13
-8.40877e-05
1.17871e-06
-4.14164e-13
-8.34854e-05
1.28887e-06
-1.79679e-13
-8.31387e-05
1.18457e-06
1.87977e-13
-8.33467e-05
5.92627e-07
3.47436e-13
-8.44864e-05
-1.03515e-06
2.8194e-13
-8.68677e-05
-4.72485e-06
2.08428e-13
-9.01565e-05
-1.24523e-05
3.03612e-13
-2.77974e-05
-2.00965e-14
-9.19255e-05
-7.48701e-05
1.8037e-05
1.83468e-13
-6.85943e-05
6.46911e-06
1.55309e-13
-6.47161e-05
2.53009e-06
-1.73484e-13
-6.24787e-05
1.07018e-06
-2.77111e-13
-6.11885e-05
4.97161e-07
-2.52244e-13
-6.04099e-05
2.66176e-07
-3.03163e-14
-5.98883e-05
1.75327e-07
2.29404e-14
-5.94729e-05
1.49858e-07
-4.58158e-14
-5.90701e-05
1.62144e-07
-2.20228e-13
-5.86181e-05
2.01745e-07
-3.74636e-13
-5.8077e-05
2.64189e-07
-4.62998e-13
-5.74291e-05
3.45888e-07
-4.55417e-13
-5.669e-05
4.40253e-07
-2.86598e-13
-5.59321e-05
5.31665e-07
5.26338e-14
-5.53289e-05
5.81706e-07
2.87084e-13
-5.52353e-05
4.98964e-07
2.54233e-13
-5.62397e-05
-3.24004e-08
-5.58163e-14
-5.9379e-05
-1.59326e-06
-2.26395e-13
-6.57186e-05
-6.1231e-06
3.59479e-14
-1.92831e-05
-6.2872e-13
-7.42174e-05
-3.40152e-05
-6.58711e-13
-2.75578e-05
-5.17751e-13
-2.50286e-05
-5.83688e-14
-2.39603e-05
-1.24072e-13
-2.34643e-05
-1.5096e-13
-2.31987e-05
-6.15705e-14
-2.30237e-05
-2.67901e-14
-2.28741e-05
-1.07087e-13
-2.27122e-05
-2.57484e-13
-2.25107e-05
-3.75454e-13
-2.22468e-05
-4.28994e-13
-2.19012e-05
-3.57014e-13
-2.14614e-05
-1.26739e-13
-2.09302e-05
1.06804e-13
-2.03488e-05
1.77183e-13
-1.98497e-05
6.35849e-15
-1.98813e-05
-3.38953e-13
-2.14771e-05
-3.94572e-13
-2.75951e-05
-7.94878e-13
-8.19803e-13
-4.67908e-05
-1.97608e-05
1.43372e-06
-2.1674e-09
-2.0813e-05
1.05372e-06
-1.5176e-09
-2.15487e-05
7.36693e-07
-1.00594e-09
-2.2045e-05
4.96961e-07
-6.36202e-10
-2.23753e-05
3.30663e-07
-3.91526e-10
-2.26007e-05
2.25629e-07
-2.44194e-10
-2.27689e-05
1.68417e-07
-1.67616e-10
-2.29165e-05
1.47742e-07
-1.4173e-10
-2.30716e-05
1.55179e-07
-1.52851e-10
-2.32557e-05
1.84317e-07
-1.92123e-10
-2.34846e-05
2.29157e-07
-2.53549e-10
-2.37664e-05
2.82108e-07
-3.30907e-10
-2.40977e-05
3.31782e-07
-4.14386e-10
-2.44581e-05
3.60878e-07
-4.87641e-10
-2.48023e-05
3.44691e-07
-5.2388e-10
-2.50531e-05
2.51338e-07
-4.79845e-10
-2.5099e-05
4.61174e-08
-3.01054e-10
-2.47959e-05
-3.03141e-07
4.56757e-11
-2.39915e-05
-8.05011e-07
6.56114e-10
-1.43407e-06
1.57538e-09
-2.2559e-05
-5.15559e-05
4.96649e-06
1.93701e-09
-5.41709e-05
3.66711e-06
1.61729e-09
-5.60202e-05
2.58478e-06
1.27968e-09
-5.72881e-05
1.76389e-06
9.78424e-10
-5.8148e-05
1.18977e-06
7.3261e-10
-5.87441e-05
8.21205e-07
5.51838e-10
-5.9189e-05
6.12857e-07
4.35722e-10
-5.95675e-05