/*--------------------------------*- C++ -*----------------------------------*\
| =========                 |                                                 |
| \\      /  F ield         | OpenFOAM: The Open Source CFD Toolbox           |
|  \\    /   O peration     | Version:  2.4.0                                 |
|   \\  /    A nd           | Web:      www.OpenFOAM.org                      |
|    \\/     M anipulation  |                                                 |
\*---------------------------------------------------------------------------*/
FoamFile
{
    version     2.0;
    format      ascii;
    class       volVectorField;
    location    "3.3";
    object      U;
}
// * * * * * * * * * * * * * * * * * * * * * * * * * * * * * * * * * * * * * //

dimensions      [0 1 -1 0 0 0 0];

internalField   nonuniform List<vector> 
4800
(
(0.000305789 -0.00030893 1.80509e-07)
(1.55291e-05 0.00015797 0.00021745)
(-0.00184629 0.000665099 0.000444711)
(-0.00483734 0.00100772 0.000612868)
(-0.00856167 0.00120207 0.000678022)
(-0.0126781 0.00128588 0.000619797)
(-0.0169035 0.00128669 0.00043192)
(-0.0209999 0.00121838 0.000114921)
(-0.0247576 0.00108833 -0.000325148)
(-0.0279995 0.000908599 -0.00087535)
(-0.000183195 -1.62298e-05 -0.000216364)
(-0.00248379 0.00239425 5.57592e-06)
(-0.00806377 0.00474387 0.000174107)
(-0.0159346 0.00643771 0.000274297)
(-0.0253521 0.00747034 0.000288047)
(-0.0356376 0.00793481 0.000199428)
(-0.0461512 0.0079177 1.75105e-06)
(-0.0563127 0.00747922 -0.00030735)
(-0.0656041 0.00667502 -0.000726539)
(-0.0735997 0.0055949 -0.00124925)
(-0.000778947 0.00197431 -0.000449081)
(-0.00521319 0.00809346 -0.000155946)
(-0.0142917 0.0135393 1.35015e-05)
(-0.0263332 0.0175218 9.20766e-05)
(-0.0403353 0.0200003 8.8375e-05)
(-0.0554272 0.0211053 -6.47186e-06)
(-0.0707405 0.0209797 -0.000196761)
(-0.0854519 0.0197466 -0.000486324)
(-0.0988036 0.0175538 -0.000878291)
(-0.11016 0.0146525 -0.00137231)
(-0.00125659 0.00538998 -0.000606674)
(-0.00749011 0.016599 -0.000227293)
(-0.0195245 0.025865 -3.38549e-05)
(-0.0349702 0.0325497 4.68402e-05)
(-0.0525851 0.0366869 4.54424e-05)
(-0.0713641 0.038464 -4.09119e-05)
(-0.0902833 0.0380666 -0.000214822)
(-0.108337 0.035665 -0.000482728)
(-0.124557 0.0315027 -0.000854033)
(-0.138086 0.0260351 -0.00133708)
(-0.00158397 0.00989848 -0.000614325)
(-0.00911752 0.027306 -0.000160066)
(-0.0233243 0.0409258 5.89342e-05)
(-0.041249 0.050558 0.00015217)
(-0.0614538 0.056438 0.000166348)
(-0.0828384 0.0588466 0.000102123)
(-0.104273 0.0579969 -4.39668e-05)
(-0.124609 0.0540705 -0.00028387)
(-0.142679 0.0473704 -0.000637124)
(-0.15733 0.0385578 -0.00112766)
(-0.00175502 0.0151079 -0.00042252)
(-0.0100075 0.0394763 8.75422e-05)
(-0.0254448 0.0578271 0.000327753)
(-0.0447759 0.0705711 0.000440836)
(-0.0664414 0.0782408 0.000483088)
(-0.0892887 0.0812428 0.000455974)
(-0.112131 0.0798002 0.000351915)
(-0.133727 0.074047 0.000149567)
(-0.152724 0.0642573 -0.000186363)
(-0.167551 0.051213 -0.000710381)
(-0.00176998 0.020594 -7.32444e-06)
(-0.0101248 0.0522543 0.000536468)
(-0.0257616 0.0755046 0.000790322)
(-0.045313 0.0914284 0.000928416)
(-0.0671834 0.100903 0.00101067)
(-0.0902141 0.104483 0.00103729)
(-0.113218 0.102382 0.000993593)
(-0.134936 0.0946114 0.000844958)
(-0.153916 0.081258 0.000534465)
(-0.168029 0.0629535 -5.37317e-05)
(-0.00163628 0.0259295 0.000631645)
(-0.00948583 0.064748 0.00118717)
(-0.0242779 0.092819 0.00144582)
(-0.042809 0.111856 0.0016125)
(-0.0635174 0.123078 0.00174592)
(-0.0852651 0.127202 0.00184445)
(-0.106908 0.124432 0.00188486)
(-0.127263 0.114594 0.00181727)
(-0.145014 0.097376 0.00156245)
(-0.157436 0.0726502 0.000887184)
(-0.00137377 0.0307145 0.00147214)
(-0.00817938 0.0761029 0.00202014)
(-0.0211726 0.108641 0.00227453)
(-0.0374971 0.130531 0.00247095)
(-0.0556522 0.143284 0.00266356)
(-0.0744929 0.147786 0.00285021)
(-0.0928821 0.144285 0.00299994)
(-0.10973 0.132462 0.00304693)
(-0.124241 0.111558 0.0029017)
(-0.133529 0.0798427 0.00212512)
(-0.00102201 0.0346241 0.00247168)
(-0.0063912 0.085601 0.00299839)
(-0.016859 0.121976 0.00323966)
(-0.0300232 0.146211 0.00346281)
(-0.0444193 0.159987 0.00371622)
(-0.0587808 0.164322 0.00400219)
(-0.0717601 0.159556 0.00429161)
(-0.0819688 0.145361 0.00451476)
(-0.089117 0.120846 0.00463982)
(-0.0921927 0.0832987 0.00404244)
(0.000310656 -0.000313556 5.95289e-08)
(2.24912e-05 0.000152041 1.36636e-06)
(-0.00184263 0.000651106 2.02811e-06)
(-0.00483477 0.000987994 2.59807e-06)
(-0.00856022 0.00117919 2.93709e-06)
(-0.0126775 0.00126146 3.07697e-06)
(-0.0169037 0.00126224 3.08725e-06)
(-0.021001 0.00119522 2.96156e-06)
(-0.0247598 0.00106757 2.68707e-06)
(-0.0280029 0.0008909 2.2454e-06)
(-0.000175877 -2.36959e-05 -1.10863e-06)
(-0.00248085 0.00239219 3.28945e-07)
(-0.00807137 0.00473264 -1.15436e-06)
(-0.0159394 0.00642136 -1.84128e-06)
(-0.0253545 0.00745218 -2.18678e-06)
(-0.0356383 0.00791579 -2.40092e-06)
(-0.0461503 0.00789882 -2.38995e-06)
(-0.0563108 0.00746151 -2.24193e-06)
(-0.0656022 0.00665937 -1.97038e-06)
(-0.0735986 0.00558137 -1.70108e-06)
(-0.000762966 0.00196868 -1.93185e-06)
(-0.00520198 0.00810001 1.77804e-06)
(-0.0142987 0.0135425 9.98223e-08)
(-0.0263355 0.0175251 -5.74369e-08)
(-0.0403354 0.0200055 1.04741e-07)
(-0.0554271 0.0211116 9.7397e-08)
(-0.0707397 0.0209863 1.07224e-07)
(-0.0854508 0.0197534 1.48239e-07)
(-0.0988035 0.0175608 1.9889e-07)
(-0.110162 0.0146582 1.22208e-07)
(-0.00123364 0.00538514 -2.81459e-06)
(-0.00747382 0.0166031 2.49761e-06)
(-0.0195337 0.0258641 5.83135e-09)
(-0.0349722 0.0325471 -2.06178e-07)
(-0.0525841 0.0366847 7.75121e-08)
(-0.0713634 0.0384622 1.08264e-07)
(-0.090282 0.0380652 1.38399e-07)
(-0.108335 0.0356647 2.19194e-07)
(-0.124557 0.0315046 3.73416e-07)
(-0.13809 0.0260372 3.28371e-07)
(-0.00155648 0.00989557 -3.44138e-06)
(-0.00909906 0.0273084 2.93464e-06)
(-0.023337 0.0409239 -3.16768e-07)
(-0.0412522 0.0505539 -7.0734e-07)
(-0.061453 0.0564335 -4.25651e-07)
(-0.0828374 0.058842 -4.0823e-07)
(-0.10427 0.0579925 -3.65795e-07)
(-0.124605 0.0540673 -2.14035e-07)
(-0.142677 0.0473717 2.36491e-07)
(-0.157338 0.0385613 4.59774e-07)
(-0.00172513 0.0151074 -3.7261e-06)
(-0.00998823 0.0394778 3.25217e-06)
(-0.0254599 0.0578261 -4.17624e-07)
(-0.0447802 0.0705686 -9.02505e-07)
(-0.0664409 0.0782377 -6.25856e-07)
(-0.0892879 0.0812393 -6.24278e-07)
(-0.112128 0.0797961 -6.12208e-07)
(-0.133719 0.0740435 -4.92638e-07)
(-0.152717 0.064262 4.0547e-07)
(-0.167566 0.051225 1.2752e-06)
(-0.00174007 0.0205953 -3.62954e-06)
(-0.0101061 0.0522546 3.34964e-06)
(-0.025778 0.0755045 -4.46762e-07)
(-0.0453182 0.0914277 -9.88361e-07)
(-0.0671837 0.100901 -7.54778e-07)
(-0.0902141 0.10448 -7.86277e-07)
(-0.113216 0.102378 -8.73555e-07)
(-0.134923 0.0946066 -1.04919e-06)
(-0.153898 0.0812688 5.31314e-07)
(-0.168058 0.0629919 3.23532e-06)
(-0.00160794 0.0259324 -3.44254e-06)
(-0.00946833 0.0647472 3.19849e-06)
(-0.024294 0.0928199 -4.10944e-07)
(-0.0428147 0.111857 -9.63557e-07)
(-0.0635184 0.123078 -7.89368e-07)
(-0.0852662 0.127201 -8.05121e-07)
(-0.106907 0.124428 -9.14199e-07)
(-0.12724 0.114578 -1.62549e-06)
(-0.144962 0.097372 1.56196e-06)
(-0.157483 0.0727115 1.12592e-05)
(-0.00134901 0.0307195 -2.89136e-06)
(-0.00816423 0.0761018 2.89074e-06)
(-0.0211871 0.108643 -2.85351e-07)
(-0.0375029 0.130535 -8.08775e-07)
(-0.0556544 0.143288 -7.43383e-07)
(-0.0744976 0.14779 -8.07306e-07)
(-0.0928933 0.144282 -1.08752e-06)
(-0.109712 0.132429 -3.81177e-06)
(-0.124135 0.111483 -1.13114e-06)
(-0.133577 0.0798124 2.52723e-05)
(-0.00100216 0.0346301 -2.10044e-06)
(-0.00637894 0.0855996 2.49313e-06)
(-0.0168704 0.12198 -4.61553e-08)
(-0.0300274 0.146219 -4.60854e-07)
(-0.0444208 0.159999 -4.90807e-07)
(-0.0587877 0.164345 -7.22902e-07)
(-0.0717935 0.1596 -1.54014e-06)
(-0.0820104 0.145427 -9.4975e-06)
(-0.0890275 0.120909 -2.2208e-05)
(-0.0922718 0.0834179 7.60504e-06)
(0.000310638 -0.000313573 -9.7275e-08)
(2.2462e-05 0.000152028 -1.38348e-06)
(-0.00184266 0.0006511 -2.02907e-06)
(-0.00483479 0.000987991 -2.59139e-06)
(-0.00856023 0.00117918 -2.92857e-06)
(-0.0126776 0.00126146 -3.06902e-06)
(-0.0169037 0.00126224 -3.0807e-06)
(-0.021001 0.00119522 -2.95634e-06)
(-0.0247598 0.00106757 -2.68356e-06)
(-0.0280029 0.0008909 -2.24297e-06)
(-0.000175891 -2.37249e-05 1.09136e-06)
(-0.00248088 0.00239216 -3.35993e-07)
(-0.00807139 0.00473263 1.15853e-06)
(-0.0159394 0.00642135 1.8501e-06)
(-0.0253545 0.00745217 2.19629e-06)
(-0.0356383 0.00791579 2.40987e-06)
(-0.0461503 0.00789882 2.39685e-06)
(-0.0563108 0.00746151 2.24721e-06)
(-0.0656022 0.00665937 1.97432e-06)
(-0.0735986 0.00558137 1.70382e-06)
(-0.000762972 0.00196866 1.93101e-06)
(-0.00520199 0.00809999 -1.77396e-06)
(-0.0142987 0.0135424 -9.14204e-08)
(-0.0263355 0.017525 6.73787e-08)
(-0.0403354 0.0200055 -9.49446e-08)
(-0.055427 0.0211116 -8.88352e-08)
(-0.0707397 0.0209863 -1.00522e-07)
(-0.0854508 0.0197534 -1.43081e-07)
(-0.0988035 0.0175608 -1.95162e-07)
(-0.110162 0.0146582 -1.19873e-07)
(-0.00123365 0.00538512 2.82132e-06)
(-0.00747382 0.0166031 -2.48871e-06)
(-0.0195337 0.0258641 4.49488e-09)
(-0.0349722 0.0325471 2.16438e-07)
(-0.0525841 0.0366847 -6.7783e-08)
(-0.0713633 0.0384622 -1.00171e-07)
(-0.090282 0.0380652 -1.32057e-07)
(-0.108335 0.0356647 -2.14343e-07)
(-0.124557 0.0315046 -3.69914e-07)
(-0.13809 0.0260372 -3.25889e-07)
(-0.00155648 0.00989555 3.45024e-06)
(-0.00909906 0.0273084 -2.92492e-06)
(-0.023337 0.0409239 3.26998e-07)
(-0.0412522 0.0505539 7.16791e-07)
(-0.061453 0.0564335 4.34414e-07)
(-0.0828374 0.058842 4.15669e-07)
(-0.10427 0.0579925 3.71446e-07)
(-0.124605 0.0540673 2.18517e-07)
(-0.142677 0.0473717 -2.32971e-07)
(-0.157338 0.0385613 -4.57159e-07)
(-0.00172513 0.0151074 3.73501e-06)
(-0.00998823 0.0394778 -3.24293e-06)
(-0.0254599 0.0578261 4.27034e-07)
(-0.0447802 0.0705686 9.1098e-07)
(-0.0664409 0.0782377 6.33722e-07)
(-0.0892879 0.0812393 6.31128e-07)
(-0.112128 0.0797961 6.17599e-07)
(-0.133719 0.0740435 4.97102e-07)
(-0.152717 0.064262 -4.01935e-07)
(-0.167566 0.051225 -1.27263e-06)
(-0.00174007 0.0205953 3.63751e-06)
(-0.0101061 0.0522546 -3.34146e-06)
(-0.025778 0.0755045 4.5486e-07)
(-0.0453182 0.0914277 9.95734e-07)
(-0.0671836 0.100901 7.61841e-07)
(-0.0902141 0.10448 7.92604e-07)
(-0.113216 0.102378 8.78831e-07)
(-0.134923 0.0946066 1.05345e-06)
(-0.153898 0.0812688 -5.28133e-07)
(-0.168058 0.0629919 -3.2331e-06)
(-0.00160794 0.0259324 3.44896e-06)
(-0.00946833 0.0647472 -3.19197e-06)
(-0.024294 0.0928199 4.17339e-07)
(-0.0428147 0.111857 9.69597e-07)
(-0.0635184 0.123078 7.95434e-07)
(-0.0852662 0.127201 8.10758e-07)
(-0.106907 0.124428 9.18882e-07)
(-0.12724 0.114578 1.62893e-06)
(-0.144962 0.097372 -1.55964e-06)
(-0.157483 0.0727115 -1.12578e-05)
(-0.00134901 0.0307195 2.89608e-06)
(-0.00816422 0.0761018 -2.88599e-06)
(-0.0211871 0.108643 2.90243e-07)
(-0.0375029 0.130535 8.13637e-07)
(-0.0556544 0.143288 7.48388e-07)
(-0.0744976 0.14779 8.11963e-07)
(-0.0928933 0.144282 1.09116e-06)
(-0.109712 0.132429 3.81403e-06)
(-0.124135 0.111483 1.13226e-06)
(-0.133577 0.0798124 -2.52717e-05)
(-0.00100216 0.0346301 2.10377e-06)
(-0.00637894 0.0855996 -2.48995e-06)
(-0.0168704 0.12198 4.96675e-08)
(-0.0300274 0.146219 4.6454e-07)
(-0.0444207 0.159999 4.94664e-07)
(-0.0587877 0.164345 7.26347e-07)
(-0.0717935 0.1596 1.5425e-06)
(-0.0820104 0.145427 9.49838e-06)
(-0.0890275 0.120909 2.22079e-05)
(-0.0922718 0.0834179 -7.60537e-06)
(0.000305683 -0.000309037 -1.40827e-07)
(1.53697e-05 0.000157913 -0.000217432)
(-0.00184637 0.000665078 -0.00044471)
(-0.0048374 0.00100771 -0.000612875)
(-0.00856171 0.00120207 -0.000678031)
(-0.0126781 0.00128588 -0.000619805)
(-0.0169035 0.00128669 -0.000431927)
(-0.0209999 0.00121838 -0.000114927)
(-0.0247576 0.00108833 0.000325144)
(-0.0279995 0.000908598 0.000875347)
(-0.000183252 -1.6388e-05 0.000216383)
(-0.00248389 0.00239416 -5.56846e-06)
(-0.00806384 0.00474383 -0.000174111)
(-0.0159346 0.00643769 -0.000274306)
(-0.0253521 0.00747033 -0.000288057)
(-0.0356376 0.0079348 -0.000199438)
(-0.0461512 0.00791769 -1.75834e-06)
(-0.0563127 0.00747921 0.000307345)
(-0.0656041 0.00667502 0.000726535)
(-0.0735996 0.0055949 0.00124925)
(-0.000778968 0.00197422 0.000449081)
(-0.00521322 0.0080934 0.000155941)
(-0.0142917 0.0135393 -1.35104e-05)
(-0.0263332 0.0175218 -9.20871e-05)
(-0.0403353 0.0200003 -8.83853e-05)
(-0.0554272 0.0211053 6.46281e-06)
(-0.0707405 0.0209797 0.000196754)
(-0.0854519 0.0197466 0.000486319)
(-0.0988035 0.0175538 0.000878287)
(-0.11016 0.0146525 0.0013723)
(-0.0012566 0.00538993 0.000606667)
(-0.00749013 0.016599 0.000227284)
(-0.0195245 0.025865 3.3844e-05)
(-0.0349702 0.0325497 -4.68511e-05)
(-0.052585 0.0366868 -4.54527e-05)
(-0.0713641 0.038464 4.09033e-05)
(-0.0902832 0.0380666 0.000214816)
(-0.108337 0.035665 0.000482723)
(-0.124557 0.0315027 0.000854029)
(-0.138086 0.0260351 0.00133708)
(-0.00158397 0.00989844 0.000614315)
(-0.00911752 0.0273059 0.000160056)
(-0.0233243 0.0409258 -5.89451e-05)
(-0.041249 0.050558 -0.00015218)
(-0.0614538 0.056438 -0.000166357)
(-0.0828384 0.0588466 -0.000102131)
(-0.104272 0.0579969 4.39608e-05)
(-0.124609 0.0540705 0.000283866)
(-0.142679 0.0473704 0.00063712)
(-0.15733 0.0385578 0.00112766)
(-0.00175502 0.0151078 0.000422511)
(-0.0100075 0.0394762 -8.7552e-05)
(-0.0254448 0.057827 -0.000327763)
(-0.0447759 0.070571 -0.000440845)
(-0.0664414 0.0782407 -0.000483097)
(-0.0892887 0.0812428 -0.000455981)
(-0.112131 0.0798002 -0.000351921)
(-0.133727 0.074047 -0.000149572)
(-0.152724 0.0642573 0.00018636)
(-0.167551 0.051213 0.000710379)
(-0.00176998 0.020594 7.31605e-06)
(-0.0101248 0.0522543 -0.000536476)
(-0.0257616 0.0755046 -0.00079033)
(-0.0453129 0.0914284 -0.000928423)
(-0.0671834 0.100903 -0.00101068)
(-0.090214 0.104483 -0.0010373)
(-0.113218 0.102382 -0.000993598)
(-0.134936 0.0946113 -0.000844962)
(-0.153916 0.081258 -0.000534468)
(-0.168029 0.0629535 5.37294e-05)
(-0.00163628 0.0259295 -0.000631651)
(-0.00948583 0.064748 -0.00118718)
(-0.0242779 0.092819 -0.00144583)
(-0.042809 0.111856 -0.00161251)
(-0.0635174 0.123078 -0.00174592)
(-0.0852651 0.127202 -0.00184445)
(-0.106907 0.124432 -0.00188487)
(-0.127263 0.114594 -0.00181728)
(-0.145014 0.097376 -0.00156245)
(-0.157435 0.0726502 -0.000887186)
(-0.00137377 0.0307145 -0.00147214)
(-0.00817938 0.0761029 -0.00202014)
(-0.0211726 0.108641 -0.00227454)
(-0.0374971 0.130531 -0.00247096)
(-0.0556522 0.143284 -0.00266356)
(-0.0744929 0.147786 -0.00285021)
(-0.0928821 0.144285 -0.00299994)
(-0.10973 0.132462 -0.00304693)
(-0.124241 0.111558 -0.0029017)
(-0.133529 0.0798427 -0.00212512)
(-0.00102201 0.0346241 -0.00247168)
(-0.0063912 0.085601 -0.00299839)
(-0.016859 0.121976 -0.00323967)
(-0.0300232 0.146211 -0.00346281)
(-0.0444193 0.159987 -0.00371622)
(-0.0587808 0.164322 -0.00400219)
(-0.0717601 0.159556 -0.00429161)
(-0.0819688 0.145361 -0.00451476)
(-0.089117 0.120846 -0.00463982)
(-0.0921927 0.0832987 -0.00404244)
(-0.0306131 0.00070467 -0.00151496)
(-0.0325843 0.000510714 -0.00221852)
(-0.0339892 0.000349643 -0.00296309)
(-0.0349478 0.00022931 -0.00373144)
(-0.0355851 0.000147491 -0.00451212)
(-0.0360103 9.74898e-05 -0.00529847)
(-0.0363103 7.21308e-05 -0.00608733)
(-0.0365516 6.56837e-05 -0.00687795)
(-0.0367851 7.42318e-05 -0.00767144)
(-0.0370502 9.51776e-05 -0.00847051)
(-0.0373769 0.000126301 -0.00927954)
(-0.0377853 0.000164566 -0.0101047)
(-0.0382808 0.000204749 -0.010954)
(-0.0388467 0.000238015 -0.011837)
(-0.0394325 0.000250709 -0.012764)
(-0.0399422 0.000224006 -0.0137442)
(-0.040224 0.000135773 -0.0147831)
(-0.0400689 -3.36348e-05 -0.0158781)
(-0.0392297 -0.000296086 -0.0170135)
(-0.037468 -0.000639716 -0.018157)
(-0.0800409 0.00439089 -0.00186174)
(-0.0849133 0.00324781 -0.00254416)
(-0.0884146 0.00228871 -0.00327803)
(-0.0908368 0.00155802 -0.00404801)
(-0.0924768 0.00104644 -0.00484233)
(-0.0935921 0.000719346 -0.00565274)
(-0.0943873 0.000537319 -0.00647407)
(-0.095018 0.000466434 -0.00730368)
(-0.0956006 0.000480609 -0.00814105)
(-0.0962211 0.000559384 -0.0089875)
(-0.0969388 0.000683339 -0.00984603)
(-0.0977848 0.000828293 -0.0107213)
(-0.0987522 0.000959014 -0.0116193)
(-0.0997809 0.0010233 -0.0125469)
(-0.100737 0.000948151 -0.0135115)
(-0.101388 0.00064114 -0.0145186)
(-0.10139 1.81193e-06 -0.0155707)
(-0.100296 -0.00105231 -0.0166631)
(-0.0975904 -0.00254759 -0.0177818)
(-0.0927929 -0.00440105 -0.0188996)
(-0.119141 0.0114552 -0.00195915)
(-0.125776 0.0084551 -0.00261862)
(-0.130436 0.0059617 -0.00333321)
(-0.133599 0.00407305 -0.00408824)
(-0.135708 0.00275194 -0.00487175)
(-0.137125 0.0019017 -0.0056749)
(-0.138124 0.00141714 -0.00649176)
(-0.138903 0.00120835 -0.00731884)
(-0.139604 0.0012051 -0.00815473)
(-0.140329 0.00135085 -0.00899977)
(-0.141143 0.00159145 -0.00985587)
(-0.142076 0.00186158 -0.0107263)
(-0.143108 0.00207057 -0.0116156)
(-0.144159 0.00208949 -0.0125291)
(-0.145053 0.0017438 -0.0134724)
(-0.145496 0.000818164 -0.0144505)
(-0.145052 -0.00091622 -0.0154663)
(-0.143136 -0.00364319 -0.016518)
(-0.139065 -0.00740601 -0.0175963)
(-0.132161 -0.0119929 -0.0186806)
(-0.148391 0.0200604 -0.0019265)
(-0.155608 0.0145732 -0.00259238)
(-0.1604 0.0101261 -0.00331418)
(-0.163484 0.00683382 -0.00407611)
(-0.165446 0.00457256 -0.00486543)
(-0.16671 0.0031338 -0.0056731)
(-0.167569 0.00231358 -0.00649316)
(-0.168219 0.00194688 -0.00732204)
(-0.16879 0.00190926 -0.00815804)
(-0.169369 0.00210291 -0.00900091)
(-0.170012 0.00243642 -0.00985165)
(-0.170741 0.00280201 -0.0107124)
(-0.171541 0.00305209 -0.0115861)
(-0.172339 0.00297777 -0.012477)
(-0.172978 0.00229459 -0.01339)
(-0.173181 0.000646066 -0.0143307)
(-0.172506 -0.0023578 -0.0153049)
(-0.170318 -0.00704932 -0.0163166)
(-0.165792 -0.0135435 -0.0173652)
(-0.158 -0.0215205 -0.0184409)
(-0.167763 0.0289669 -0.00175657)
(-0.174311 0.0204437 -0.00246424)
(-0.178154 0.0138159 -0.00322281)
(-0.180334 0.00909653 -0.00401475)
(-0.181555 0.00595989 -0.00482666)
(-0.18225 0.00401295 -0.00565037)
(-0.182672 0.00291812 -0.00648114)
(-0.182962 0.00242412 -0.00731631)
(-0.183204 0.00235306 -0.0081546)
(-0.183447 0.00257262 -0.00899558)
(-0.183722 0.00296456 -0.00983948)
(-0.184045 0.00339255 -0.0106871)
(-0.184416 0.00366951 -0.0115401)
(-0.184804 0.00352562 -0.0124009)
(-0.185128 0.00258151 -0.0132736)
(-0.185205 0.000338542 -0.0141649)
(-0.184691 -0.00378981 -0.0150845)
(-0.182991 -0.0103681 -0.0160448)
(-0.179174 -0.0197184 -0.017059)
(-0.171938 -0.0315452 -0.0181374)
(-0.17685 0.036951 -0.00144228)
(-0.181328 0.0248963 -0.00224176)
(-0.183107 0.0160999 -0.00307193)
(-0.183633 0.0101951 -0.00391737)
(-0.183646 0.00646245 -0.00476667)
(-0.183489 0.00423515 -0.00561532)
(-0.183299 0.00301669 -0.00646195)
(-0.183112 0.0024739 -0.00730626)
(-0.182933 0.00239039 -0.00814817)
(-0.182754 0.00261754 -0.0089875)
(-0.18257 0.00303109 -0.00982383)
(-0.182389 0.00349154 -0.0106566)
(-0.182231 0.00380455 -0.0114854)
(-0.182126 0.00367844 -0.0123108)
(-0.182108 0.00267941 -0.013135)
(-0.182168 0.0001915 -0.0139649)
(-0.182175 -0.00459243 -0.014814)
(-0.181723 -0.0125839 -0.0157043)
(-0.179896 -0.0245579 -0.0166675)
(-0.174896 -0.0405782 -0.0177536)
(-0.17471 0.0425186 -0.00100398)
(-0.175464 0.026601 -0.00196394)
(-0.174119 0.0160774 -0.00290054)
(-0.172478 0.00960533 -0.00381621)
(-0.171084 0.00580273 -0.00470921)
(-0.17003 0.00366219 -0.00558425)
(-0.169247 0.00254169 -0.00644646)
(-0.168626 0.00206031 -0.00729922)
(-0.168074 0.0019959 -0.00814423)
(-0.167518 0.00221102 -0.00898171)
(-0.166916 0.00260093 -0.00981053)
(-0.166257 0.00305233 -0.0106286)
(-0.165573 0.00340288 -0.011433)
(-0.164949 0.00339363 -0.0122213)
(-0.164539 0.0026064 -0.0129927)
(-0.164553 0.00038061 -0.0137514)
(-0.165189 -0.00427688 -0.0145133)
(-0.166464 -0.0127106 -0.0153085)
(-0.167813 -0.026499 -0.0161912)
(-0.16699 -0.0467861 -0.0172835)
(-0.159351 0.0435027 -0.000499175)
(-0.15444 0.0239599 -0.00170341)
(-0.149304 0.0129999 -0.00276852)
(-0.145558 0.00711142 -0.00375462)
(-0.14304 0.0040068 -0.0046827)
(-0.14139 0.00240347 -0.0055747)
(-0.140273 0.00161926 -0.00644523)
(-0.139435 0.00130536 -0.00730176)
(-0.1387 0.00128399 -0.00814744)
(-0.137949 0.00145911 -0.00898248)
(-0.137107 0.00176663 -0.00980477)
(-0.136141 0.00214105 -0.0106103)
(-0.135071 0.00248446 -0.0113935)
(-0.134 0.00262592 -0.0121479)
(-0.13315 0.00225615 -0.0128678)
(-0.132914 0.000812047 -0.0135523)
(-0.133845 -0.00271375 -0.0142162)
(-0.136629 -0.0100005 -0.0148927)
(-0.141752 -0.0237431 -0.0156518)
(-0.147277 -0.0475906 -0.0167281)
(-0.126351 0.0373869 -0.000218214)
(-0.114055 0.0160637 -0.0016935)
(-0.105864 0.00710085 -0.00280627)
(-0.101289 0.00330092 -0.0037998)
(-0.0986801 0.00164282 -0.00472049)
(-0.0971441 0.000910037 -0.00560297)
(-0.0961748 0.000596162 -0.00646668)
(-0.0954688 0.000491682 -0.00731919)
(-0.0948423 0.000509938 -0.00816254)
(-0.0941769 0.000613712 -0.00899557)
(-0.0933928 0.000783929 -0.00981451)
(-0.0924417 0.00100358 -0.0106131)
(-0.0913152 0.0012444 -0.0113825)
(-0.0900714 0.0014472 -0.0121115)
(-0.0888899 0.00148144 -0.0127865)
(-0.0881628 0.00105349 -0.0133967)
(-0.088574 -0.000515784 -0.0139499)
(-0.0914326 -0.00484303 -0.0144514)
(-0.0992158 -0.015488 -0.0149453)
(-0.113008 -0.0404569 -0.0158265)
(-0.0643158 0.0229126 -0.000867958)
(-0.0479822 0.00660544 -0.00233491)
(-0.0412896 0.00201375 -0.00308816)
(-0.0388647 0.000646718 -0.00383632)
(-0.0378126 0.000222526 -0.00460094)
(-0.0372757 9.26389e-05 -0.00537848)
(-0.0369561 5.78227e-05 -0.00616669)
(-0.0367144 5.71772e-05 -0.00696036)
(-0.0364765 7.37875e-05 -0.0077545)
(-0.0361941 0.000104318 -0.00854408)
(-0.0358282 0.00014955 -0.00932291)
(-0.0353445 0.000211391 -0.0100824)
(-0.0347153 0.000291278 -0.0108104)
(-0.0339273 0.000386886 -0.0114892)
(-0.0330031 0.000481787 -0.0120935)
(-0.0320533 0.000513756 -0.0125878)
(-0.0314204 0.000258675 -0.0129246)
(-0.0320647 -0.00113839 -0.0130677)
(-0.0376696 -0.00639941 -0.0128963)
(-0.0563303 -0.0256376 -0.0130417)
(-0.0306168 0.000690168 1.68946e-06)
(-0.0325874 0.000499467 1.18271e-06)
(-0.0339914 0.000341334 7.83692e-07)
(-0.0349493 0.000223377 4.95428e-07)
(-0.035586 0.000143329 3.0475e-07)
(-0.0360108 9.45345e-05 1.89952e-07)
(-0.0363105 6.99042e-05 1.3031e-07)
(-0.0365516 6.38005e-05 1.1027e-07)
(-0.0367849 7.23913e-05 1.1893e-07)
(-0.0370498 9.31537e-05 1.49391e-07)
(-0.0373765 0.000123944 1.97308e-07)
(-0.0377848 0.000161817 2.5769e-07)
(-0.0382802 0.000201678 3.22665e-07)
(-0.0388461 0.000234873 3.79684e-07)
(-0.0394321 0.000247989 4.08046e-07)
(-0.0399422 0.000222502 3.73896e-07)
(-0.0402248 0.00013655 2.34692e-07)
(-0.0400709 -2.93893e-05 -3.5341e-08)
(-0.0392335 -0.000287114 -5.1079e-07)
(-0.0374736 -0.000625274 -1.22686e-06)
(-0.0800401 0.00437889 -1.5054e-06)
(-0.0849118 0.00323798 -1.25734e-06)
(-0.0884127 0.0022812 -9.95204e-07)
(-0.0908349 0.00155253 -7.61141e-07)
(-0.0924752 0.00104255 -5.70014e-07)
(-0.0935909 0.000716609 -4.29431e-07)
(-0.0943865 0.000535337 -3.39171e-07)
(-0.0950175 0.000464874 -2.93296e-07)
(-0.0956005 0.000479204 -2.83799e-07)
(-0.0962211 0.000557927 -3.01425e-07)
(-0.0969389 0.000681676 -3.34458e-07)
(-0.0977847 0.000826333 -3.67569e-07)
(-0.0987517 0.000956749 -3.80072e-07)
(-0.0997797 0.00102085 -3.44597e-07)
(-0.100734 0.000945839 -2.27333e-07)
(-0.101384 0.000639533 7.17095e-09)
(-0.101386 1.72271e-06 3.82258e-07)
(-0.100291 -0.00104988 8.88914e-07)
(-0.0975861 -0.00254159 1.49602e-06)
(-0.0927904 -0.00439141 2.06704e-06)
(-0.119143 0.0114573 -1.84369e-07)
(-0.125777 0.00845551 -3.22849e-07)
(-0.130436 0.00596167 -3.54918e-07)
(-0.133598 0.00407295 -3.38043e-07)
(-0.135707 0.00275194 -2.89187e-07)
(-0.137124 0.00190187 -2.3132e-07)
(-0.138123 0.00141749 -1.78938e-07)
(-0.138902 0.00120887 -1.37227e-07)
(-0.139604 0.00120582 -1.07097e-07)
(-0.140329 0.00135175 -8.69048e-08)
(-0.141143 0.0015925 -7.27081e-08)
(-0.142075 0.00186271 -5.99721e-08)
(-0.143108 0.00207163 -4.38301e-08)
(-0.144158 0.00209027 -1.78749e-08)
(-0.145051 0.00174406 2.67631e-08)
(-0.145494 0.000817627 9.73948e-08)
(-0.145049 -0.000917814 1.89884e-07)
(-0.143134 -0.00364579 2.98151e-07)
(-0.139064 -0.0074095 4.0963e-07)
(-0.132164 -0.0119988 3.48357e-07)
(-0.148396 0.0200569 -2.93944e-07)
(-0.15561 0.0145693 -4.75481e-07)
(-0.160399 0.0101235 -4.73151e-07)
(-0.163483 0.00683242 -4.21304e-07)
(-0.165444 0.00457203 -3.35543e-07)
(-0.166709 0.00313381 -2.48508e-07)
(-0.167568 0.00231387 -1.76583e-07)
(-0.168218 0.00194731 -1.21882e-07)
(-0.168789 0.00190975 -8.2713e-08)
(-0.169369 0.0021034 -5.63996e-08)
(-0.170011 0.00243688 -3.94718e-08)
(-0.170741 0.00280237 -2.88774e-08)
(-0.171541 0.00305226 -2.20386e-08)
(-0.172338 0.00297764 -1.45451e-08)
(-0.172977 0.00229413 4.81096e-09)
(-0.173179 0.000645355 4.81648e-08)
(-0.172504 -0.0023586 1.01722e-07)
(-0.170316 -0.00704932 2.02807e-07)
(-0.165792 -0.0135411 3.96152e-07)
(-0.158006 -0.0215177 3.49766e-07)
(-0.167772 0.028958 -8.01895e-07)
(-0.174311 0.0204361 -8.99904e-07)
(-0.178151 0.0138123 -7.29948e-07)
(-0.180331 0.0090952 -5.71502e-07)
(-0.181552 0.00595986 -4.02711e-07)
(-0.182248 0.00401352 -2.64793e-07)
(-0.18267 0.00291886 -1.69533e-07)
(-0.182962 0.00242482 -1.07823e-07)
(-0.183204 0.00235366 -7.04849e-08)
(-0.183447 0.0025731 -5.07476e-08)
(-0.183722 0.00296491 -4.34111e-08)
(-0.184045 0.00339274 -4.5016e-08)
(-0.184416 0.00366949 -5.32841e-08)
(-0.184804 0.00352532 -6.33181e-08)
(-0.185127 0.00258098 -5.57714e-08)
(-0.185203 0.000338007 -3.6431e-09)
(-0.184688 -0.00378987 5.00904e-08)
(-0.182986 -0.010366 2.00687e-07)
(-0.179171 -0.0197098 6.97888e-07)
(-0.171948 -0.0315324 1.00019e-06)
(-0.176866 0.0369331 -1.71336e-06)
(-0.181324 0.0248841 -1.46334e-06)
(-0.1831 0.0160962 -9.1783e-07)
(-0.183628 0.0101949 -6.15213e-07)
(-0.183642 0.0064636 -3.62303e-07)
(-0.183487 0.00423662 -1.91104e-07)
(-0.183297 0.00301801 -9.49651e-08)
(-0.183112 0.00247494 -4.38852e-08)
(-0.182933 0.0023912 -1.88036e-08)
(-0.182753 0.00261816 -9.31194e-09)
(-0.18257 0.00303157 -9.95954e-09)
(-0.182389 0.00349188 -1.88111e-08)
(-0.182231 0.00380471 -3.61036e-08)
(-0.182126 0.00367836 -6.10408e-08)
(-0.182107 0.00267906 -7.55738e-08)
(-0.182166 0.000191209 -4.4843e-08)
(-0.18217 -0.00459187 -2.33578e-08)
(-0.181712 -0.0125801 1.11947e-07)
(-0.179885 -0.0245416 1.20059e-06)
(-0.174912 -0.0405506 2.53913e-06)
(-0.174742 0.0424938 -4.55968e-06)
(-0.17545 0.0265929 -3.01244e-06)
(-0.174104 0.0160811 -1.3934e-06)
(-0.17247 0.00960969 -7.26819e-07)
(-0.17108 0.00580628 -3.09135e-07)
(-0.170028 0.00366482 -9.54956e-08)
(-0.169246 0.0025435 -1.18182e-08)
(-0.168626 0.00206159 1.56476e-08)
(-0.168073 0.0019969 1.9104e-08)
(-0.167518 0.00221191 1.1381e-08)
(-0.166916 0.00260181 -3.04008e-09)
(-0.166258 0.00305322 -2.37309e-08)
(-0.165573 0.00340373 -5.17218e-08)
(-0.164949 0.0033942 -8.94277e-08)
(-0.164538 0.00260641 -1.1795e-07)
(-0.164551 0.000380055 -6.0427e-08)
(-0.165183 -0.0042784 7.33946e-08)
(-0.166444 -0.0127131 3.6452e-07)
(-0.167787 -0.0264875 2.90071e-06)
(-0.167023 -0.0467506 6.976e-06)
(-0.159411 0.0434615 -7.74591e-06)
(-0.154409 0.0239702 -3.14905e-06)
(-0.149286 0.0130217 -6.39961e-07)
(-0.145553 0.00712373 -2.43423e-07)
(-0.143039 0.00401308 3.11908e-08)
(-0.14139 0.00240689 1.28244e-07)
(-0.140273 0.00162122 1.2134e-07)
(-0.139435 0.00130671 9.98082e-08)
(-0.1387 0.00128523 8.26796e-08)
(-0.137949 0.00146052 7.05811e-08)
(-0.137107 0.00176835 6.06352e-08)
(-0.136141 0.00214315 4.81801e-08)
(-0.135072 0.00248682 2.60011e-08)
(-0.134001 0.00262813 -2.61859e-08)
(-0.133151 0.00225732 -1.02451e-07)
(-0.132915 0.000810633 -3.28872e-08)
(-0.133844 -0.00272225 9.7784e-08)
(-0.136608 -0.010023 -3.57741e-07)
(-0.141706 -0.0237564 2.56415e-06)
(-0.147336 -0.0475348 1.11444e-05)
(-0.126425 0.0371902 -9.67811e-06)
(-0.113987 0.0160041 4.28908e-06)
(-0.105853 0.0070898 4.8029e-06)
(-0.101299 0.00329373 2.05189e-06)
(-0.0986856 0.00163747 1.06198e-06)
(-0.0971467 0.000906702 6.4514e-07)
(-0.0961762 0.000593971 4.0612e-07)
(-0.0954693 0.000490044 3.07961e-07)
(-0.0948422 0.000508512 2.95929e-07)
(-0.0941765 0.000612269 3.32868e-07)
(-0.0933923 0.000782319 3.99348e-07)
(-0.0924413 0.00100175 4.7852e-07)
(-0.0913155 0.00124244 5.40922e-07)
(-0.090073 0.00144548 5.10505e-07)
(-0.0888935 0.0014807 2.89774e-07)
(-0.0881716 0.00105471 -7.04353e-08)
(-0.0885931 -0.000512484 -1.29193e-06)
(-0.091429 -0.00483577 -5.96448e-06)
(-0.0991259 -0.0154237 -8.09634e-06)
(-0.11306 -0.0402011 1.20475e-05)
(-0.0643586 0.0227676 -5.37854e-05)
(-0.0478234 0.00653657 -9.15394e-06)
(-0.0412447 0.00198599 -6.64116e-07)
(-0.0388604 0.000631038 -1.47108e-06)
(-0.0378097 0.00021339 -9.56225e-07)
(-0.0372736 8.74931e-05 -4.49479e-07)
(-0.0369552 5.46844e-05 -2.54604e-07)
(-0.036714 5.48873e-05 -1.80863e-07)
(-0.0364765 7.17047e-05 -1.60707e-07)
(-0.0361943 0.000102055 -1.7703e-07)
(-0.0358285 0.000146869 -2.19081e-07)
(-0.0353449 0.000208197 -2.76318e-07)
(-0.0347157 0.000287701 -3.33795e-07)
(-0.0339273 0.000383513 -3.6543e-07)
(-0.033002 0.000479963 -2.81084e-07)
(-0.0320523 0.000515713 1.64379e-07)
(-0.0314228 0.000268009 6.00925e-07)
(-0.0320229 -0.00111481 -1.98807e-06)
(-0.037454 -0.0063254 3.95302e-06)
(-0.0563171 -0.0254431 6.80384e-05)
(-0.0306168 0.000690167 -1.68775e-06)
(-0.0325874 0.000499467 -1.18185e-06)
(-0.0339914 0.000341334 -7.83504e-07)
(-0.0349493 0.000223377 -4.95595e-07)
(-0.035586 0.000143328 -3.05024e-07)
(-0.0360108 9.45343e-05 -1.90275e-07)
(-0.0363104 6.99041e-05 -1.30593e-07)
(-0.0365516 6.38004e-05 -1.10342e-07)
(-0.0367849 7.23912e-05 -1.1903e-07)
(-0.0370498 9.31536e-05 -1.49742e-07)
(-0.0373765 0.000123944 -1.97606e-07)
(-0.0377848 0.000161817 -2.57803e-07)
(-0.0382802 0.000201678 -3.22799e-07)
(-0.0388461 0.000234872 -3.79859e-07)
(-0.0394321 0.000247989 -4.08061e-07)
(-0.0399422 0.000222502 -3.7374e-07)
(-0.0402248 0.00013655 -2.34498e-07)
(-0.0400709 -2.93894e-05 3.55601e-08)
(-0.0392335 -0.000287114 5.11034e-07)
(-0.0374736 -0.000625274 1.22704e-06)
(-0.08004 0.00437889 1.50705e-06)
(-0.0849118 0.00323798 1.25812e-06)
(-0.0884127 0.0022812 9.95325e-07)
(-0.0908349 0.00155253 7.60928e-07)
(-0.0924752 0.00104255 5.69727e-07)
(-0.0935909 0.000716608 4.2909e-07)