/*--------------------------------*- C++ -*----------------------------------*\
| =========                 |                                                 |
| \\      /  F ield         | OpenFOAM: The Open Source CFD Toolbox           |
|  \\    /   O peration     | Version:  2.4.0                                 |
|   \\  /    A nd           | Web:      www.OpenFOAM.org                      |
|    \\/     M anipulation  |                                                 |
\*---------------------------------------------------------------------------*/
FoamFile
{
    version     2.0;
    format      ascii;
    class       surfaceScalarField;
    location    "4.2";
    object      phi;
}
// * * * * * * * * * * * * * * * * * * * * * * * * * * * * * * * * * * * * * //

dimensions      [0 3 -1 0 0 0 0];

internalField   nonuniform List<scalar> 
12720
(
1.54739e-07
-1.55821e-07
-1.01766e-10
-5.40584e-07
6.93616e-07
1.70744e-09
-2.06846e-06
1.5253e-06
2.57983e-09
-4.18174e-06
2.10996e-06
3.31885e-09
-6.64389e-06
2.45839e-06
3.76051e-09
-9.26e-06
2.61217e-06
3.94365e-09
-1.18696e-05
2.60563e-06
3.95637e-09
-1.43336e-05
2.46021e-06
3.80168e-09
-1.65306e-05
2.19354e-06
3.45324e-09
1.83444e-06
2.88747e-09
-1.83679e-05
-7.25613e-07
5.71267e-07
-1.47553e-09
-3.29675e-06
3.26437e-06
3.9178e-10
-7.50277e-06
5.73283e-06
-1.5141e-09
-1.29191e-05
7.52868e-06
-2.39543e-09
-1.90967e-05
8.63888e-06
-2.83697e-09
-2.56161e-05
9.13466e-06
-3.11454e-09
-3.20969e-05
9.08952e-06
-3.12352e-09
-3.8196e-05
8.56227e-06
-2.90354e-09
-4.36179e-05
7.61796e-06
-2.54634e-09
6.36509e-06
-2.19667e-09
-4.81464e-05
-1.69413e-06
2.26792e-06
-2.51689e-09
-6.13653e-06
7.70451e-06
2.25929e-09
-1.27314e-05
1.23276e-05
1.00518e-10
-2.08825e-05
1.56798e-05
-9.71703e-11
-3.00024e-05
1.77587e-05
1.16182e-10
-3.95321e-05
1.86642e-05
1.09214e-10
-4.8943e-05
1.85004e-05
1.21622e-10
-5.7741e-05
1.73601e-05
1.81385e-10
-6.54907e-05
1.53673e-05
2.50487e-10
1.2746e-05
1.54095e-10
-7.18717e-05
-2.49052e-06
4.7621e-06
-3.65498e-09
-8.51837e-06
1.37292e-05
3.18779e-09
-1.70972e-05
2.09065e-05
-2.08645e-11
-2.74416e-05
2.60245e-05
-2.89302e-10
-3.88498e-05
2.91668e-05
8.08022e-11
-5.06653e-05
3.04797e-05
1.242e-10
-6.22536e-05
3.00885e-05
1.66038e-10
-7.29982e-05
2.81044e-05
2.73514e-10
-8.23311e-05
2.46998e-05
4.75124e-10
2.02295e-05
4.19109e-10
-8.98151e-05
-3.05424e-06
7.82081e-06
-4.47074e-09
-1.0242e-05
2.09132e-05
3.74965e-09
-2.02728e-05
3.09377e-05
-4.38526e-10
-3.22023e-05
3.7955e-05
-9.3602e-10
-4.52394e-05
4.22044e-05
-5.6802e-10
-5.86595e-05
4.39004e-05
-5.41637e-10
-7.17504e-05
4.31798e-05
-4.83442e-10
-8.37878e-05
4.01421e-05
-2.8524e-10
-9.40573e-05
3.4969e-05
2.9803e-10
2.81224e-05
5.88038e-10
-0.000101951
-3.36075e-06
1.11864e-05
-4.88509e-09
-1.12007e-05
2.8749e-05
4.14836e-09
-2.20552e-05
4.17927e-05
-5.73447e-10
-3.48814e-05
5.07825e-05
-1.19012e-09
-4.88344e-05
5.61581e-05
-8.26852e-10
-6.3153e-05
5.82198e-05
-8.20418e-10
-7.70767e-05
5.71043e-05
-8.01478e-10
-8.9791e-05
5.2857e-05
-6.45123e-10
-0.000100412
4.55899e-05
5.15527e-10
3.57625e-05
1.63974e-09
-0.000108054
-3.40067e-06
1.45918e-05
-4.66988e-09
-1.13434e-05
3.66875e-05
4.24981e-09
-2.23296e-05
5.27795e-05
-6.14306e-10
-3.52884e-05
6.37426e-05
-1.3022e-09
-4.93612e-05
7.02319e-05
-9.93228e-10
-6.3785e-05
7.26446e-05
-1.02896e-09
-7.77914e-05
7.11118e-05
-1.13857e-09
-9.05157e-05
6.55826e-05
-1.36347e-09
-0.000100908
5.59817e-05
6.77332e-10
4.24923e-05
4.16808e-09
-0.000107642
-3.1804e-06
1.77767e-05
-4.5135e-09
-1.06763e-05
4.41793e-05
4.08786e-09
-2.10808e-05
6.31846e-05
-5.59511e-10
-3.33559e-05
7.6019e-05
-1.26523e-09
-4.66589e-05
8.3536e-05
-1.03478e-09
-6.02497e-05
8.62364e-05
-1.05111e-09
-7.33949e-05
8.42582e-05
-1.18956e-09
-8.52521e-05
7.7442e-05
-2.10695e-09
-9.46927e-05
6.54204e-05
2.00343e-09
4.75572e-05
1.45108e-08
-9.97721e-05
-2.73107e-06
2.05115e-05
-3.75202e-09
-9.2842e-06
5.07287e-05
3.70899e-09
-1.84385e-05
7.23392e-05
-3.8776e-10
-2.92233e-05
8.68049e-05
-1.05917e-09
-4.08103e-05
9.5124e-05
-9.70765e-10
-5.24651e-05
9.78922e-05
-1.04927e-09
-6.34891e-05
9.52837e-05
-1.40699e-09
-7.31153e-05
8.70731e-05
-4.91952e-09
-8.03562e-05
7.26627e-05
-1.46672e-09
4.98598e-05
3.25749e-08
-8.26914e-05
-2.11717e-06
-2.72053e-09
2.26314e-05
-7.35702e-06
3.20467e-09
5.59653e-05
-1.47365e-05
-7.22384e-11
7.97188e-05
-2.33567e-05
-6.05204e-10
9.54256e-05
-3.23587e-05
-6.40763e-10
0.000104127
-4.09115e-05
-9.35424e-10
0.000106446
-4.81916e-05
-1.98152e-09
0.000102566
-5.32782e-05
-1.22343e-08
9.21719e-05
-5.50591e-05
-2.86192e-08
7.44723e-05
9.83368e-09
-5.23616e-05
4.71525e-05
1.56459e-07
-1.56542e-07
-1.84763e-11
-5.41075e-07
6.99254e-07
-1.07376e-11
-2.06914e-06
1.53066e-06
-9.78951e-12
-4.18183e-06
2.11601e-06
-8.47849e-12
-6.64373e-06
2.46566e-06
-6.60835e-12
-9.25984e-06
2.62006e-06
-5.16732e-12
-1.18695e-05
2.61366e-06
-4.05569e-12
-1.43337e-05
2.468e-06
-3.19243e-12
-1.6531e-05
2.2007e-06
-2.51459e-12
1.84045e-06
-1.98107e-12
-1.83685e-05
-7.3019e-07
5.72183e-07
-1.03435e-11
-3.3023e-06
3.27177e-06
-9.40152e-12
-7.5077e-06
5.73456e-06
-1.00663e-11
-1.29225e-05
7.52843e-06
-9.01956e-12
-1.90984e-05
8.63871e-06
-7.27312e-12
-2.56162e-05
9.13479e-06
-5.77231e-12
-3.20957e-05
9.09008e-06
-4.55044e-12
-3.8194e-05
8.5634e-06
-3.58036e-12
-4.36156e-05
7.6197e-06
-2.81643e-12
6.3667e-06
-2.2171e-12
-4.8144e-05
-1.69951e-06
2.26918e-06
-9.54747e-12
-6.13724e-06
7.71177e-06
-9.97901e-12
-1.27322e-05
1.23296e-05
-9.53498e-12
-2.08834e-05
1.56796e-05
-8.23434e-12
-3.00029e-05
1.77583e-05
-6.78035e-12
-3.95321e-05
1.86641e-05
-5.4892e-12
-4.89427e-05
1.85007e-05
-4.39124e-12
-5.77404e-05
1.73614e-05
-3.48789e-12
-6.54903e-05
1.53698e-05
-2.75888e-12
1.27482e-05
-2.17798e-12
-7.18717e-05
-2.49735e-06
4.76288e-06
-8.19569e-12
-8.5172e-06
1.37348e-05
-8.75753e-12
-1.7096e-05
2.09083e-05
-8.00308e-12
-2.74413e-05
2.60247e-05
-7.02111e-12
-3.88497e-05
2.91668e-05
-5.93863e-12
-5.06653e-05
3.04798e-05
-4.92297e-12
-6.22535e-05
3.00891e-05
-4.01204e-12
-7.2998e-05
2.81061e-05
-3.22792e-12
-8.23315e-05
2.47039e-05
-2.57532e-12
2.02336e-05
-2.0462e-12
-8.98164e-05
-3.06277e-06
7.82119e-06
-6.19755e-12
-1.02406e-05
2.09164e-05
-6.9281e-12
-2.02711e-05
3.09385e-05
-6.42625e-12
-3.22019e-05
3.79546e-05
-5.79281e-12
-4.52393e-05
4.22036e-05
-5.03184e-12
-5.86596e-05
4.38996e-05
-4.26433e-12
-7.17503e-05
4.31793e-05
-3.53456e-12
-8.37873e-05
4.01429e-05
-2.87888e-12
-9.40576e-05
3.49745e-05
-2.32044e-12
2.81296e-05
-1.86425e-12
-0.000101953
-3.37015e-06
1.11865e-05
-4.7538e-12
-1.11991e-05
2.87495e-05
-5.35845e-12
-2.20535e-05
4.17923e-05
-5.04565e-12
-3.48813e-05
5.07812e-05
-4.66326e-12
-4.88349e-05
5.61563e-05
-4.14957e-12
-6.31538e-05
5.82177e-05
-3.5835e-12
-7.70773e-05
5.71019e-05
-3.00895e-12
-8.97905e-05
5.28555e-05
-2.47554e-12
-0.000100413
4.55971e-05
-2.02077e-12
3.57772e-05
-1.65668e-12
-0.000108059
-3.41006e-06
1.45918e-05
-4.3387e-12
-1.13419e-05
3.66856e-05
-4.30499e-12
-2.23282e-05
5.27779e-05
-4.02914e-12
-3.52889e-05
6.37407e-05
-3.7593e-12
-4.93628e-05
7.02292e-05
-3.38342e-12
-6.37873e-05
7.26412e-05
-2.95159e-12
-7.77937e-05
7.11072e-05
-2.49553e-12
-9.05158e-05
6.55762e-05
-2.06851e-12
-0.000100907
5.59891e-05
-1.71696e-12
4.25247e-05
-1.45834e-12
-0.00010765
-3.1892e-06
1.77765e-05
-3.16137e-12
-1.06749e-05
4.41753e-05
-3.34912e-12
-2.10797e-05
6.31822e-05
-3.20786e-12
-3.3357e-05
7.60167e-05
-3.01935e-12
-4.66617e-05
8.35329e-05
-2.7353e-12
-6.02537e-05
8.62322e-05
-2.39563e-12
-7.33994e-05
8.42517e-05
-2.03071e-12
-8.52523e-05
7.7427e-05
-1.69409e-12
-9.46801e-05
6.54189e-05
-1.43483e-12
4.76401e-05
-1.27897e-12
-9.9781e-05
-2.73849e-06
2.05113e-05
-2.37132e-12
-9.28287e-06
5.07234e-05
-2.58072e-12
-1.84377e-05
7.23366e-05
-2.53926e-12
-2.92251e-05
8.68032e-05
-2.41843e-12
-4.0815e-05
9.51218e-05
-2.20001e-12
-5.24736e-05
9.78897e-05
-1.93008e-12
-6.35036e-05
9.52803e-05
-1.64501e-12
-7.31352e-05
8.70537e-05
-1.39358e-12
-8.03323e-05
7.26146e-05
-1.21336e-12
4.99777e-05
-1.14476e-12
-8.26373e-05
-2.12258e-06
-1.84312e-12
2.26311e-05
-7.3554e-06
-2.02723e-12
5.59594e-05
-1.47351e-05
-2.02618e-12
7.97163e-05
-2.33575e-05
-1.9412e-12
9.54249e-05
-3.23635e-05
-1.76877e-12
0.000104127
-4.09234e-05
-1.55792e-12
0.000106449
-4.82204e-05
-1.35304e-12
0.000102575
-5.33668e-05
-1.19555e-12
9.21877e-05
-5.52005e-05
-1.10602e-12
7.44197e-05
-1.16709e-12
-5.21326e-05
4.69196e-05
1.56538e-07
-1.56463e-07
-9.25714e-11
-5.41014e-07
6.99305e-07
-1.76261e-09
-2.06911e-06
1.53069e-06
-2.60513e-09
-4.18181e-06
2.11603e-06
-3.33512e-09
-6.64371e-06
2.46567e-06
-3.77156e-09
-9.25983e-06
2.62007e-06
-3.9516e-09
-1.18695e-05
2.61366e-06
-3.96235e-09
-1.43337e-05
2.468e-06
-3.80629e-09
-1.6531e-05
2.2007e-06
-3.45683e-09
1.84045e-06
-2.89029e-09
-1.83685e-05
-7.30139e-07
5.72244e-07
1.42139e-09
-3.30224e-06
3.27182e-06
-4.23592e-10
-7.50766e-06
5.7346e-06
1.49194e-09
-1.29225e-05
7.52845e-06
2.37933e-09
-1.90984e-05
8.63872e-06
2.82534e-09
-2.56162e-05
9.1348e-06
3.10587e-09
-3.20957e-05
9.09008e-06
3.11692e-09
-3.8194e-05
8.5634e-06
2.89844e-09
-4.36156e-05
7.6197e-06
2.54236e-09
6.3667e-06
2.19356e-09
-4.8144e-05
-1.69948e-06
2.26922e-06
2.4923e-09
-6.1372e-06
7.71182e-06
-2.28112e-09
-1.27321e-05
1.23296e-05
-1.18046e-10
-2.08834e-05
1.56796e-05
8.3507e-11
-3.00029e-05
1.77583e-05
-1.26695e-10
-3.95321e-05
1.86641e-05
-1.17411e-10
-4.89426e-05
1.85007e-05
-1.28048e-10
-5.77404e-05
1.73614e-05
-1.86432e-10
-6.54903e-05
1.53698e-05
-2.54455e-10
1.27482e-05
-1.57215e-10
-7.18717e-05
-2.49733e-06
4.76291e-06
3.63945e-09
-8.51718e-06
1.37349e-05
-3.20323e-09
-1.70959e-05
2.09084e-05
7.69796e-12
-2.74413e-05
2.60247e-05
2.78343e-10
-3.88497e-05
2.91668e-05
-8.97238e-11
-5.06652e-05
3.04798e-05
-1.31457e-10
-6.22535e-05
3.00891e-05
-1.71892e-10
-7.29979e-05
2.81061e-05
-2.78195e-10
-8.23315e-05
2.47039e-05
-4.78846e-10
2.02336e-05
-4.22059e-10
-8.98164e-05
-3.06276e-06
7.8212e-06
4.46046e-09
-1.02405e-05
2.09164e-05
-3.76065e-09
-2.02711e-05
3.09385e-05
4.28636e-10
-3.22019e-05
3.79546e-05
9.27312e-10
-4.52393e-05
4.22036e-05
5.60605e-10
-5.86596e-05
4.38996e-05
5.35394e-10
-7.17503e-05
4.31793e-05
4.78282e-10
-8.37873e-05
4.01429e-05
2.81047e-10
-9.40576e-05
3.49745e-05
-3.01402e-10
2.81296e-05
-5.90738e-10
-0.000101953
-3.37014e-06
1.11865e-05
4.87809e-09
-1.11991e-05
2.87495e-05
-4.15633e-09
-2.20535e-05
4.17923e-05
5.65962e-10
-3.48813e-05
5.07813e-05
1.18325e-09
-4.88349e-05
5.61564e-05
8.20794e-10
-6.31538e-05
5.82177e-05
8.15185e-10
-7.70773e-05
5.71019e-05
7.97076e-10
-8.97905e-05
5.28555e-05
6.415e-10
-0.000100413
4.55971e-05
-5.18478e-10
3.57772e-05
-1.64213e-09
-0.000108059
-3.41005e-06
1.45919e-05
4.66048e-09
-1.13419e-05
3.66856e-05
-4.25568e-09
-2.23281e-05
5.2778e-05
6.0854e-10
-3.52889e-05
6.37407e-05
1.29675e-09
-4.93628e-05
7.02292e-05
9.88306e-10
-6.37873e-05
7.26413e-05
1.02463e-09
-7.77937e-05
7.11072e-05
1.13489e-09
-9.05157e-05
6.55762e-05
1.36039e-09
-0.000100907
5.59891e-05
-6.79887e-10
4.25247e-05
-4.17018e-09
-0.00010765
-3.18919e-06
1.77765e-05
4.50961e-09
-1.06749e-05
4.41753e-05
-4.09243e-09
-2.10797e-05
6.31822e-05
5.54989e-10
-3.3357e-05
7.60168e-05
1.26087e-09
-4.66617e-05
8.35329e-05
1.03078e-09
-6.02537e-05
8.62323e-05
1.04757e-09
-7.33994e-05
8.42517e-05
1.18651e-09
-8.52523e-05
7.7427e-05
2.10434e-09
-9.46801e-05
6.54189e-05
-2.00568e-09
4.76401e-05
-1.45127e-08
-9.9781e-05
-2.73849e-06
2.05113e-05
3.74884e-09
-9.28287e-06
5.07234e-05
-3.71262e-09
-1.84377e-05
7.23366e-05
3.84132e-10
-2.92251e-05
8.68032e-05
1.05564e-09
-4.0815e-05
9.51218e-05
9.67513e-10
-5.24736e-05
9.78898e-05
1.04638e-09
-6.35036e-05
9.52803e-05
1.40448e-09
-7.31352e-05
8.70537e-05
4.91729e-09
-8.03323e-05
7.26146e-05
1.46467e-09
4.99777e-05
-3.25768e-08
-8.26373e-05
-2.12258e-06
2.71793e-09
2.26311e-05
-7.3554e-06
-3.20762e-09
5.59594e-05
-1.47351e-05
6.928e-11
7.97163e-05
-2.33575e-05
6.02328e-10
9.54249e-05
-3.23635e-05
6.38107e-10
0.000104127
-4.09234e-05
9.33059e-10
0.000106449
-4.82204e-05
1.97944e-09
0.000102575
-5.33668e-05
1.22323e-08
9.21878e-05
-5.52005e-05
2.86173e-08
7.44197e-05
-9.83555e-09
-5.21326e-05
4.69196e-05
1.55233e-07
-1.55326e-07
-5.4035e-07
6.93822e-07
-2.06834e-06
1.52538e-06
-4.18166e-06
2.10999e-06
-6.64384e-06
2.45841e-06
-9.25997e-06
2.61218e-06
-1.18696e-05
2.60564e-06
-1.43336e-05
2.46021e-06
-1.65306e-05
2.19354e-06
1.83444e-06
-1.83679e-05
-7.25408e-07
5.71503e-07
-3.29656e-06
3.26456e-06
-7.50263e-06
5.73294e-06
-1.2919e-05
7.52874e-06
-1.90967e-05
8.63891e-06
-2.56161e-05
9.13468e-06
-3.20969e-05
9.08953e-06
-3.8196e-05
8.56227e-06
-4.36179e-05
7.61796e-06
6.36509e-06
-4.81463e-05
-1.69405e-06
2.26804e-06
-6.13642e-06
7.70465e-06
-1.27313e-05
1.23277e-05
-2.08824e-05
1.56799e-05
-3.00023e-05
1.77587e-05
-3.9532e-05
1.86643e-05
-4.8943e-05
1.85004e-05
-5.7741e-05
1.73601e-05
-6.54907e-05
1.53674e-05
1.2746e-05
-7.18717e-05
-2.49048e-06
4.76217e-06
-8.5183e-06
1.37293e-05
-1.70971e-05
2.09065e-05
-2.74415e-05
2.60246e-05
-3.88497e-05
2.91668e-05
-5.06653e-05
3.04797e-05
-6.22536e-05
3.00885e-05
-7.29981e-05
2.81044e-05
-8.23311e-05
2.46998e-05
2.02296e-05
-8.98151e-05
-3.05423e-06
7.82086e-06
-1.0242e-05
2.09132e-05
-2.02727e-05
3.09377e-05
-3.22023e-05
3.79551e-05
-4.52393e-05
4.22044e-05
-5.86595e-05
4.39004e-05
-7.17503e-05
4.31798e-05
-8.37878e-05
4.01421e-05
-9.40573e-05
3.4969e-05
2.81224e-05
-0.000101951
-3.36074e-06
1.11865e-05
-1.12007e-05
2.8749e-05
-2.20551e-05
4.17928e-05
-3.48814e-05
5.07825e-05
-4.88344e-05
5.61582e-05
-6.3153e-05
5.82198e-05
-7.70766e-05
5.71043e-05
-8.97909e-05
5.2857e-05
-0.000100412
4.55899e-05
3.57626e-05
-0.000108054
-3.40067e-06
1.45918e-05
-1.13434e-05
3.66875e-05
-2.23296e-05
5.27796e-05
-3.52884e-05
6.37426e-05
-4.93612e-05
7.0232e-05
-6.3785e-05
7.26446e-05
-7.77914e-05
7.11119e-05
-9.05156e-05
6.55827e-05
-0.000100908
5.59818e-05
4.24923e-05
-0.000107642
-3.1804e-06
1.77767e-05
-1.06763e-05
4.41793e-05
-2.10807e-05
6.31846e-05
-3.33559e-05
7.6019e-05
-4.66589e-05
8.35361e-05
-6.02496e-05
8.62364e-05
-7.33949e-05
8.42582e-05
-8.52521e-05
7.7442e-05
-9.46927e-05
6.54204e-05
4.75572e-05
-9.97721e-05
-2.73107e-06
2.05115e-05
-9.2842e-06
5.07287e-05
-1.84384e-05
7.23392e-05
-2.92233e-05
8.68049e-05
-4.08102e-05
9.5124e-05
-5.24651e-05
9.78923e-05
-6.34891e-05
9.52837e-05
-7.31153e-05
8.70731e-05
-8.03562e-05
7.26627e-05
4.98598e-05
-8.26914e-05
-2.11717e-06
2.26314e-05
-7.35701e-06
5.59654e-05
-1.47365e-05
7.97188e-05
-2.33566e-05
9.54256e-05
-3.23587e-05
0.000104127
-4.09115e-05
0.000106446
-4.81916e-05
0.000102566
-5.32782e-05
9.21719e-05
-5.50591e-05
7.44723e-05
-5.23616e-05
4.71525e-05
-1.98039e-05
1.43381e-06
2.17345e-09
-2.08598e-05
1.05436e-06
1.52224e-09
-2.15984e-05
7.37613e-07
1.00929e-09
-2.2097e-05
4.97996e-07
6.38552e-10
-2.24292e-05
3.31711e-07
3.93132e-10
-2.26561e-05
2.26655e-07
2.45329e-10
-2.28257e-05
1.69442e-07
1.68549e-10
-2.29746e-05
1.48823e-07
1.42629e-10
-2.31312e-05
1.5639e-07
1.53891e-10
-2.33171e-05
1.85734e-07
1.93637e-10
-2.35482e-05
2.3084e-07
2.55738e-10
-2.38326e-05
2.84083e-07
3.33723e-10
-2.41671e-05
3.34027e-07
4.17776e-10
-2.45308e-05
3.63304e-07
4.9163e-10
-2.48785e-05
3.47118e-07
5.28334e-10
-2.51325e-05
2.53479e-07
4.84336e-10
-2.51806e-05
4.78455e-08
3.05091e-10
-2.48779e-05
-3.0267e-07
-4.31737e-11
-2.40714e-05
-8.05862e-07
-6.56048e-10
-1.43616e-06
-1.57906e-09
-2.26336e-05
-5.16926e-05
4.98201e-06
-1.94314e-09
-5.43167e-05
3.6801e-06
-1.62279e-09
-5.6173e-05
2.59513e-06
-1.2846e-09
-5.7446e-05
1.77202e-06
-9.82766e-10
-5.83098e-05
1.19622e-06
-7.36488e-10
-5.89091e-05
8.26558e-07
-5.55392e-10
-5.93569e-05
6.17696e-07
-4.39112e-10
-5.97385e-05
5.30765e-07
-3.80243e-10
-6.01173e-05
5.35529e-07
-3.68375e-10
-6.05389e-05
6.07746e-07
-3.9131e-10
-6.10318e-05
7.24173e-07
-4.34172e-10
-6.16037e-05
8.56446e-07
-4.773e-10
-6.22337e-05
9.64591e-07
-4.93885e-10
-6.28611e-05
9.91112e-07
-4.48387e-10
-6.33711e-05
8.57468e-07
-2.97057e-10
-6.35838e-05
4.66147e-07
5.9321e-12
-6.32496e-05
-2.86892e-07
4.9055e-10
-6.20671e-05
-1.48626e-06
1.14572e-09
-5.97226e-05
-3.15228e-06
1.93063e-09
-5.19032e-06
2.66901e-09
-5.59712e-05
-7.67665e-05
9.87703e-06
-2.39811e-10
-8.03071e-05
7.22114e-06
-4.17683e-10
-8.27596e-05
5.04806e-06
-4.58576e-10
-8.44123e-05
3.4252e-06
-4.36544e-10
-8.55183e-05
2.30258e-06
-3.73626e-10
-8.62766e-05
1.58514e-06
-2.98935e-10
-8.6835e-05
1.17637e-06
-2.31119e-10
-8.73007e-05
9.96632e-07
-1.77345e-10
-8.77501e-05
9.85008e-07
-1.38574e-10
-8.82353e-05
1.09309e-06
-1.12266e-10
-8.87862e-05
1.27513e-06
-9.39428e-11
-8.94062e-05
1.47659e-06
-7.79067e-11
-9.00639e-05
1.62234e-06
-5.73729e-11
-9.06786e-05
1.60587e-06
-2.39387e-11
-9.11037e-05
1.28249e-06
3.36018e-11
-9.11097e-05
4.72011e-07
1.24665e-10
-9.03765e-05
-1.02032e-06
2.44081e-10
-8.85065e-05
-3.35662e-06
3.83994e-10
-8.50736e-05
-6.58571e-06
5.28187e-10
-1.05374e-05
4.49494e-10
-7.9727e-05
-9.53043e-05
1.53666e-05
-3.8164e-10
-9.90673e-05
1.09848e-05
-6.1501e-10
-0.000101536
7.51744e-06
-6.11609e-10
-0.000103117
5.00704e-06
-5.44308e-10
-0.000104129
3.31427e-06
-4.33802e-10
-0.000104795
2.25181e-06
-3.21491e-10
-0.000105269
1.65068e-06
-2.28213e-10
-0.000105653
1.38074e-06
-1.57422e-10
-0.000106015
1.34736e-06
-1.06988e-10
-0.0001064
1.47834e-06
-7.29314e-11
-0.000106833
1.70783e-06
-5.10616e-11
-0.000107315
1.959e-06
-3.75699e-11
-0.00010782
2.12655e-06
-2.88612e-11
-0.000108274
2.0598e-06
-1.92781e-11
-0.000108541
1.54985e-06
5.37113e-12
-0.000108396
3.27391e-07
6.07565e-11
-0.000107503
-1.91382e-06
1.2985e-10
-0.000105403
-5.45653e-06
2.60187e-10
-0.000101553
-1.04368e-05
5.09712e-10
-1.66557e-05
4.50212e-10
-9.54349e-05
-0.000107258
2.06753e-05
-1.03643e-09
-0.00011051
1.42378e-05
-1.16255e-09
-0.000112397
9.4048e-06
-9.43287e-10
-0.000113461
6.07178e-06
-7.38251e-10
-0.00011406
3.91432e-06
-5.20456e-10
-0.00011441
2.60209e-06
-3.42554e-10
-0.000114634
1.87443e-06
-2.19165e-10
-0.000114801
1.54832e-06
-1.39372e-10
-0.000114954
1.50008e-06
-9.13087e-11
-0.000115117
1.64146e-06
-6.57074e-11
-0.000115305
1.8962e-06
-5.61176e-11
-0.000115524
2.17752e-06
-5.82704e-11
-0.000115762
2.36541e-06
-6.90244e-11
-0.000115986
2.28327e-06
-8.20899e-11
-0.000116111
1.6753e-06
-7.29432e-11
-0.000115974
1.89819e-07
-7.06937e-12
-0.00011528
-2.60775e-06
6.24772e-11
-0.000113552
-7.18492e-06
2.56353e-10
-0.000110104
-1.38848e-05
8.97742e-10
-2.26261e-05
1.2888e-09
-0.000104135
-0.000112321
2.49439e-05
-2.20997e-09
-0.000114268
1.61875e-05
-1.88881e-09
-0.000114988
1.01258e-05
-1.1859e-09
-0.000115153
6.23758e-06
-7.94666e-10
-0.000115106
3.86754e-06
-4.68114e-10
-0.000114996
2.49251e-06
-2.47287e-10
-0.000114877
1.75582e-06
-1.22723e-10
-0.000114762
1.43326e-06
-5.65931e-11
-0.000114649
1.38695e-06
-2.42799e-11
-0.000114535
1.52686e-06
-1.19213e-11
-0.000114419
1.78094e-06
-1.2663e-11
-0.000114311
2.06965e-06
-2.40788e-11
-0.000114227
2.28086e-06
-4.63503e-11
-0.000114185
2.24154e-06
-7.85643e-11
-0.000114194
1.68396e-06
-9.77385e-11
-0.000114209
2.05551e-07
-5.90816e-11
-0.000114063
-2.75346e-06
-3.21597e-11
-0.00011334
-7.90856e-06
1.41272e-10
-0.000111225
-1.60009e-05
1.54565e-09
-2.7403e-05
3.27488e-09
-0.000106452
-0.000109813
2.71204e-05
-5.87524e-09
-0.000109602
1.59803e-05
-3.88538e-09
-0.000108666
9.19153e-06
-1.79947e-09
-0.00010771
5.28266e-06
-9.38509e-10
-0.000106941
3.09901e-06
-3.99361e-10
-0.000106364
1.91608e-06
-1.23908e-10
-0.000105923
1.31482e-06
-1.55355e-11
-0.000105554
1.06427e-06
2.0106e-11
-0.000105205
1.03788e-06
2.45498e-11
-0.00010484
1.16191e-06
1.46673e-11
-0.000104442
1.3831e-06
-3.85373e-12
-0.000104018
1.64518e-06
-3.04595e-11
-0.000103603
1.86628e-06
-6.6479e-11
-0.000103273
1.91116e-06
-1.15203e-10
-0.00010314
1.55088e-06
-1.52134e-10
-0.000103333
3.99383e-07
-7.77589e-11
-0.000103917
-2.16984e-06
9.30274e-11
-0.000104704
-7.12186e-06
4.67205e-10
-0.000104894
-1.58148e-05
3.73896e-09
-2.97394e-05
9.00045e-09
-0.000102567
-9.83669e-05
2.57251e-05
-9.97726e-09
-9.51917e-05
1.28092e-05
-4.06154e-09
-9.24258e-05
6.42642e-06
-8.28128e-10
-9.04608e-05
3.31801e-06
-3.14358e-10
-8.91562e-05
1.79442e-06
4.02567e-11
-8.82904e-05
1.05003e-06
1.65158e-10
-8.76774e-05
7.01665e-07
1.56447e-10
-8.71832e-05
5.69932e-07
1.28826e-10
-8.67155e-05
5.70159e-07
1.0686e-10
-8.62136e-05
6.59878e-07
9.14426e-11
-8.56433e-05
8.1274e-07
7.8768e-11
-8.50009e-05
1.0027e-06
6.28206e-11
-8.43245e-05
1.18985e-06
3.4188e-11
-8.37146e-05
1.30131e-06
-3.34619e-11
-8.33611e-05
1.19751e-06
-1.32252e-10
-8.35656e-05
6.03886e-07
-4.27645e-11
-8.47051e-05
-1.03047e-06
1.2473e-10
-8.70951e-05
-4.7314e-06
-4.63831e-10
-9.04025e-05
-1.25107e-05
3.30328e-09
-2.79908e-05
1.43752e-08
-9.21654e-05
-7.5121e-05
1.81672e-05
-1.24626e-08
-6.87988e-05
6.4815e-06
5.52282e-09
-6.49056e-05
2.52706e-06
6.18956e-09
-6.26615e-05
1.07123e-06
2.64768e-09
-6.13677e-05
4.99274e-07
1.37164e-09
-6.05864e-05
2.67896e-07
8.33608e-10
-6.0062e-05
1.76721e-07
5.2539e-10
-5.96436e-05
1.5114e-07
3.99049e-10
-5.92373e-05
1.63476e-07
3.83994e-10
-5.87811e-05
2.0325e-07
4.32217e-10
-5.82349e-05
2.65948e-07
5.18541e-10
-5.75807e-05
3.47926e-07
6.21133e-10
-5.68341e-05
4.4252e-07
7.01767e-10
-5.60674e-05
5.33986e-07
6.6224e-10
-5.54542e-05
5.83891e-07
3.77089e-10
-5.53533e-05
5.03067e-07
-8.79458e-11
-5.6349e-05
-3.30733e-08
-1.66441e-09
-5.94856e-05
-1.5871e-06
-7.69389e-09
-6.58574e-05
-6.12844e-06
-1.04536e-08
-1.94059e-05
1.55241e-08
-7.44578e-05
-3.41253e-05
-6.91886e-08
-2.7632e-05
-1.17982e-08
-2.5104e-05
-8.6236e-10
-2.40309e-05
-1.89545e-09
-2.35304e-05
-1.23254e-09
-2.32619e-05
-5.80378e-10
-2.30849e-05
-3.29373e-10
-2.29335e-05
-2.34233e-10
-2.27698e-05
-2.08123e-10
-2.25663e-05
-2.29137e-10
-2.23001e-05
-2.83479e-10
-2.19518e-05
-3.57653e-10
-2.15089e-05
-4.32494e-10
-2.09744e-05
-4.74268e-10
-2.03901e-05
-3.66507e-10
-1.98873e-05
2.07273e-10
-1.99211e-05
7.71646e-10
-2.15057e-05
-2.56329e-09
-2.76392e-05
5.07639e-09
8.75981e-08
-4.71327e-05
-1.98045e-05
1.43814e-06
-1.56558e-12
-2.08603e-05
1.05729e-06
-1.24371e-12
-2.15988e-05
7.39508e-07
-9.92814e-13
-2.20973e-05
4.99159e-07
-7.95297e-13
-2.24293e-05
3.32409e-07
-6.37468e-13
-2.26562e-05
2.2709e-07
-5.082e-13
-2.28257e-05
1.69757e-07
-3.99494e-13
-2.29747e-05
1.49117e-07
-3.07607e-13
-2.31313e-05
1.56731e-07
-2.2715e-13
-2.33173e-05
1.86173e-07
-1.55229e-13
-2.35484e-05
2.31411e-07
-9.68694e-14
-2.38329e-05
2.84803e-07
-5.61941e-14
-2.41674e-05
3.3489e-07
-3.36565e-14
-2.45311e-05
3.64265e-07
-2.7174e-14
-2.48787e-05
3.48087e-07
-3.28645e-14
-2.51325e-05
2.54312e-07
-4.56568e-14
-2.51803e-05
4.80976e-08
-6.12187e-14
-2.48775e-05
-3.02884e-07
-7.48679e-14
-2.4071e-05
-8.07176e-07
-8.4386e-14
-1.43919e-06
-9.00803e-14
-2.26333e-05
-5.16901e-05
4.98229e-06
-1.75185e-12
-5.43142e-05
3.67976e-06
-1.39233e-12
-5.61707e-05
2.59469e-06
-1.11255e-12
-5.74441e-05
1.77162e-06
-8.93056e-13
-5.83084e-05
1.19592e-06
-7.18661e-13
-5.89082e-05
8.26364e-07
-5.77117e-13
-5.93564e-05
6.17574e-07
-4.55881e-13
-5.97384e-05
5.3068e-07
-3.5259e-13
-6.01175e-05
5.35442e-07
-2.65925e-13
-6.05393e-05
6.0762e-07
-1.91774e-13
-6.10323e-05
7.23969e-07
-1.32652e-13
-6.16041e-05
8.56127e-07
-9.35088e-14
-6.22338e-05
9.64131e-07
-7.40293e-14
-6.28605e-05
9.90521e-07
-6.99267e-14
-6.33696e-05
8.56827e-07
-7.51792e-14
-6.35809e-05
4.65631e-07
-8.34504e-14
-6.32452e-05
-2.87043e-07
-8.94393e-14
-6.20615e-05
-1.48549e-06
-9.40001e-14
-5.97165e-05
-3.15028e-06
-9.44368e-14
-5.18777e-06
-9.33305e-14
-5.59652e-05
-7.67658e-05
9.87614e-06
-1.72323e-12
-8.03057e-05
7.21928e-06
-1.37069e-12
-8.27579e-05
5.04642e-06
-1.09565e-12
-8.44107e-05
3.42397e-06
-8.79605e-13
-8.55169e-05
2.30179e-06
-7.06576e-13
-8.62755e-05
1.58468e-06
-5.69886e-13
-8.68343e-05
1.17614e-06
-4.50991e-13
-8.73003e-05
9.96509e-07
-3.4786e-13
-8.77499e-05
9.84908e-07
-2.62844e-13
-8.82354e-05
1.09294e-06
-1.9187e-13
-8.87863e-05
1.27485e-06
-1.35166e-13
-8.94064e-05
1.47611e-06
-9.90441e-14
-9.00639e-05
1.62161e-06
-8.51022e-14
-9.06783e-05
1.60488e-06
-8.78565e-14
-9.11028e-05
1.28134e-06
-9.81147e-14
-9.1108e-05
4.70975e-07
-1.07134e-13
-9.0374e-05
-1.02083e-06
-1.09866e-13
-8.85033e-05
-3.35576e-06
-1.08658e-13
-8.50705e-05
-6.5826e-06
-1.04359e-13
-1.05333e-05
-9.77399e-14
-7.97245e-05
-9.5304e-05
1.53633e-05
-1.62905e-12
-9.90657e-05
1.09804e-05
-1.30458e-12
-0.000101534
7.5141e-06
-1.05019e-12
-0.000103115
5.00479e-06
-8.50729e-13
-0.000104127
3.31293e-06
-6.82151e-13
-0.000104794
2.25112e-06
-5.5313e-13
-0.000105268
1.65037e-06
-4.41225e-13
-0.000105652
1.38062e-06
-3.40231e-13
-0.000106015
1.3473e-06
-2.57402e-13
-0.0001064
1.47824e-06
-1.91698e-13
-0.000106833
1.70759e-06
-1.41048e-13
-0.000107316
1.95853e-06
-1.1047e-13
-0.00010782
2.12576e-06
-1.01941e-13
-0.000108274
2.05864e-06
-1.08434e-13
-0.000108541
1.54839e-06
-1.16924e-13
-0.000108396
3.26014e-07
-1.15798e-13
-0.000107501
-1.91483e-06
-1.09014e-13
-0.000105401
-5.4558e-06
-9.47345e-14
-0.000101551
-1.04323e-05
-8.45315e-14
-1.66495e-05
-8.12279e-14
-9.54343e-05
-0.000107257
2.06666e-05
-1.50418e-12
-0.000110507
1.4229e-05
-1.22011e-12
-0.000112393
9.39936e-06
-9.92798e-13
-0.000113458
6.06858e-06
-8.23634e-13
-0.000114058
3.91263e-06
-6.67166e-13
-0.000114409
2.60133e-06
-5.44515e-13
-0.000114633
1.87416e-06
-4.42765e-13
-0.000114801
1.54826e-06
-3.45676e-13
-0.000114953
1.50008e-06
-2.64438e-13
-0.000115117
1.6414e-06
-2.044e-13
-0.000115305
1.89599e-06
-1.6301e-13
-0.000115524
2.17705e-06
-1.40934e-13
-0.000115763
2.36456e-06
-1.36776e-13
-0.000115986
2.28193e-06
-1.40042e-13
-0.000116111
1.67346e-06
-1.34458e-13
-0.000115973
1.88149e-07
-1.17898e-13
-0.000115278
-2.60957e-06
-8.84305e-14
-0.000113549
-7.18475e-06
-5.11413e-14
-0.000110103
-1.38781e-05
-1.97916e-14
-2.26149e-05
-1.21666e-14
-0.000104136
-0.000112318
2.49236e-05
-1.37396e-12
-0.000114263
1.61721e-05
-1.13573e-12
-0.000114983
1.01189e-05
-9.20478e-13
-0.00011515
6.23431e-06
-7.68295e-13
-0.000115104
3.86618e-06
-6.35186e-13
-0.000114995
2.49211e-06
-5.18823e-13
-0.000114877
1.75581e-06
-4.36834e-13
-0.000114762
1.43337e-06
-3.56062e-13
-0.000114649
1.38705e-06
-2.82858e-13
-0.000114534
1.52688e-06
-2.29259e-13
-0.000114419
1.7808e-06
-1.96441e-13
-0.000114311
2.06925e-06
-1.81613e-13
-0.000114227
2.28007e-06
-1.77751e-13
-0.000114185
2.24017e-06
-1.69733e-13
-0.000114194
1.6819e-06
-1.4519e-13
-0.000114209
2.03506e-07
-1.02499e-13
-0.000114062
-2.75649e-06
-3.94386e-14
-0.000113337
-7.90991e-06
3.21999e-14
-0.000111223
-1.59907e-05
7.50939e-14
-2.73799e-05
7.50496e-14
-0.000106455
-0.000109805
2.70725e-05
-1.27818e-12
-0.000109591
1.59544e-05
-1.10111e-12
-0.000108659
9.18456e-06
-9.095e-13
-0.000107706
5.28073e-06
-7.47091e-13
-0.000106939
3.09873e-06
-6.30777e-13
-0.000106364
1.91635e-06
-4.99532e-13
-0.000105923
1.31514e-06
-4.18934e-13
-0.000105554
1.06451e-06
-3.56679e-13
-0.000105205
1.03803e-06
-3.01851e-13
-0.00010484
1.16193e-06
-2.61169e-13
-0.000104442
1.38297e-06
-2.37524e-13
-0.000104018
1.64481e-06
-2.2649e-13
-0.000103603
1.86553e-06
-2.16726e-13
-0.000103273
1.90979e-06
-1.92401e-13
-0.00010314
1.54866e-06
-1.41572e-13
-0.000103333
3.96709e-07
-6.03036e-14
-0.000103916
-2.17397e-06
4.5943e-14
-0.0001047
-7.12505e-06
1.29833e-13
-0.00010489
-1.57974e-05
1.69188e-13
-2.96844e-05
1.34218e-13
-0.000102576
-9.83524e-05
2.5634e-05
-1.21312e-12
-9.51813e-05
1.27791e-05
-1.04837e-12
-9.24224e-05
6.42481e-06
-8.65105e-13
-9.04606e-05
3.3187e-06
-6.57594e-13
-8.91569e-05
1.79504e-06
-5.91395e-13
-8.8291e-05
1.05058e-06
-4.87774e-13
-8.76777e-05
7.02014e-07
-4.11409e-13
-8.71832e-05
5.70122e-07
-3.59928e-13
-8.67153e-05
5.70251e-07
-3.21984e-13
-8.62132e-05
6.59895e-07
-2.96157e-13
-8.56428e-05
8.12676e-07
-2.81464e-13
-8.50004e-05
1.00252e-06
-2.70424e-13
-8.43243e-05
1.18947e-06
-2.48983e-13
-8.37151e-05
1.30054e-06
-2.01929e-13
-8.33626e-05
1.19603e-06
-1.18561e-13
-8.35676e-05
6.01666e-07
-3.00477e-15
-8.47088e-05
-1.03266e-06
1.12489e-13
-8.70979e-05
-4.73646e-06
1.8413e-13
-9.04003e-05
-1.24917e-05
2.12656e-13
-2.78891e-05
1.71914e-13
-9.21813e-05
-7.51024e-05
1.80866e-05
-1.23566e-12
-6.88064e-05
6.48872e-06
-1.1086e-12
-6.49145e-05
2.53903e-06
-9.61216e-13
-6.2668e-05
1.07488e-06
-6.53223e-13
-6.13716e-05
4.99991e-07
-5.30459e-13
-6.05883e-05
2.68139e-07
-4.48202e-13
-6.00627e-05
1.76923e-07
-3.92583e-13
-5.96436e-05
1.51391e-07
-3.57611e-13
-5.92368e-05
1.63834e-07
-3.35775e-13
-5.87802e-05
2.03769e-07
-3.22546e-13
-5.82337e-05
2.66692e-07
-3.12605e-13
-5.75795e-05
3.48973e-07
-2.95451e-13
-5.68333e-05
4.43963e-07
-2.56768e-13
-5.60681e-05
5.35945e-07
-1.83702e-13
-5.5458e-05
5.8632e-07
-7.36985e-14
-5.53597e-05
5.03311e-07
5.7129e-14
-5.63642e-05
-2.98119e-08
1.43351e-13
-5.95122e-05
-1.59614e-06
1.74177e-13
-6.58735e-05
-6.1408e-06
1.95559e-13
-1.93418e-05
1.32881e-13
-7.44053e-05
-3.41152e-05
-1.1748e-12
-2.76383e-05
-9.57598e-13
-2.51001e-05
-9.14181e-13
-2.40271e-05
-6.48397e-13
-2.35283e-05
-4.72357e-13
-2.32608e-05
-3.80707e-13
-2.30842e-05
-3.37437e-13
-2.2933e-05
-3.17414e-13
-2.27694e-05
-3.0725e-13
-2.25659e-05
-2.99483e-13
-2.22995e-05
-2.86535e-13
-2.19508e-05
-2.57945e-13
-2.15073e-05
-2.02948e-13
-2.09718e-05
-1.1393e-13
-2.03859e-05
-3.3777e-16
-1.98824e-05
1.02532e-13
-1.99114e-05
1.2032e-13
-2.15101e-05
1.41807e-13
-2.76458e-05
1.71219e-13
8.11325e-14
-4.69e-05
-1.98045e-05
1.43814e-06
-2.17566e-09
-2.08603e-05
1.05729e-06
-1.52399e-09
-2.15988e-05
7.39508e-07
-1.01069e-09
-2.20973e-05
4.99159e-07
-6.39699e-10
-2.24293e-05
3.32409e-07
-3.94081e-10
-2.26562e-05
2.2709e-07
-2.46123e-10
-2.28257e-05
1.69757e-07
-1.69215e-10
-2.29747e-05
1.49117e-07
-1.43178e-10
-2.31313e-05
1.56731e-07
-1.54328e-10
-2.33173e-05
1.86173e-07
-1.93963e-10
-2.35484e-05
2.31411e-07
-2.55961e-10
-2.38329e-05
2.84803e-07
-3.3386e-10
-2.41674e-05
3.3489e-07
-4.17849e-10
-2.45311e-05
3.64265e-07
-4.91662e-10
-2.48787e-05
3.48087e-07
-5.2834e-10
-2.51325e-05
2.54312e-07
-4.84327e-10
-2.51803e-05
4.80976e-08
-3.05071e-10
-2.48775e-05
-3.02884e-07
4.32051e-11
-2.4071e-05
-8.07176e-07
6.56092e-10
-1.43919e-06
1.57911e-09
-2.26333e-05
-5.16901e-05
4.98229e-06
1.9407e-09
-5.43142e-05
3.67976e-06
1.62086e-09
-5.61707e-05
2.59469e-06
1.28305e-09
-5.74441e-05