/*--------------------------------*- C++ -*----------------------------------*\
| =========                 |                                                 |
| \\      /  F ield         | OpenFOAM: The Open Source CFD Toolbox           |
|  \\    /   O peration     | Version:  2.4.0                                 |
|   \\  /    A nd           | Web:      www.OpenFOAM.org                      |
|    \\/     M anipulation  |                                                 |
\*---------------------------------------------------------------------------*/
FoamFile
{
    version     2.0;
    format      ascii;
    class       volVectorField;
    location    "4.2";
    object      U;
}
// * * * * * * * * * * * * * * * * * * * * * * * * * * * * * * * * * * * * * //

dimensions      [0 1 -1 0 0 0 0];

internalField   nonuniform List<vector> 
4800
(
(0.00030672 -0.000311023 -7.08508e-07)
(1.80084e-05 0.000156726 0.000216917)
(-0.00184477 0.000665222 0.000445192)
(-0.00484059 0.00100896 0.000614553)
(-0.00857237 0.00120407 0.000680969)
(-0.0126979 0.00128833 0.000623993)
(-0.0169333 0.00128939 0.000437312)
(-0.02104 0.00122113 0.000121419)
(-0.0248076 0.00109097 -0.000317665)
(-0.0280585 0.000910997 -0.000867022)
(-0.000182593 -2.04208e-05 -0.000217907)
(-0.0024856 0.00239463 4.51419e-06)
(-0.0080757 0.00475079 0.000173899)
(-0.015964 0.00645021 0.000275109)
(-0.0254046 0.00748681 0.000289986)
(-0.0357169 0.00795365 0.00020256)
(-0.0462589 0.00793755 6.10493e-06)
(-0.0564488 0.00749888 -0.000301786)
(-0.0657669 0.00669344 -0.000719826)
(-0.0737863 0.00561123 -0.0012415)
(-0.000779934 0.0019727 -0.000451708)
(-0.00522363 0.00810503 -0.000157799)
(-0.0143247 0.0135666 1.25174e-05)
(-0.0263985 0.0175624 9.2042e-05)
(-0.04044 0.0200503 8.941e-05)
(-0.0555755 0.0211608 -4.25651e-06)
(-0.070934 0.0210368 -0.000193278)
(-0.0856893 0.0198021 -0.000481533)
(-0.0990813 0.0176049 -0.00087222)
(-0.110473 0.0146969 -0.00136506)
(-0.00125958 0.00539636 -0.000610516)
(-0.00751045 0.016633 -0.000230019)
(-0.0195805 0.0259269 -3.5603e-05)
(-0.0350735 0.0326342 4.60676e-05)
(-0.0527432 0.0367867 4.57799e-05)
(-0.0715811 0.038572 -3.93107e-05)
(-0.0905594 0.0381758 -0.000211818)
(-0.108669 0.0357693 -0.00047824)
(-0.12494 0.0315969 -0.000848084)
(-0.13851 0.0261154 -0.00132981)
(-0.0015888 0.00991825 -0.000619198)
(-0.00914683 0.0273733 -0.000163488)
(-0.023401 0.0410359 5.6628e-05)
(-0.041386 0.0507007 0.000150926)
(-0.0616586 0.0566018 0.000166339)
(-0.083114 0.0590201 0.000103562)
(-0.104618 0.0581694 -4.08855e-05)
(-0.125018 0.0542324 -0.000279041)
(-0.143144 0.0475137 -0.000630593)
(-0.157839 0.0386769 -0.00111967)
(-0.00176123 0.0151455 -0.000427938)
(-0.0100434 0.0395859 8.38406e-05)
(-0.0255364 0.0579961 0.000325305)
(-0.044937 0.0707832 0.000439589)
(-0.0666791 0.078479 0.000483285)
(-0.0896048 0.0814909 0.000457904)
(-0.112522 0.080043 0.000355835)
(-0.134186 0.074271 0.000155595)
(-0.153239 0.0644513 -0.000178336)
(-0.168108 0.0513691 -0.000700788)
(-0.00177692 0.0206517 -1.26018e-05)
(-0.0101638 0.0524116 0.000533071)
(-0.0258601 0.0757393 0.000788293)
(-0.0454851 0.0917166 0.000927764)
(-0.0674355 0.101221 0.00101174)
(-0.0905466 0.104809 0.00104047)
(-0.113626 0.102697 0.000999207)
(-0.13541 0.0948971 0.000853131)
(-0.154442 0.0814995 0.000545)
(-0.16859 0.0631403 -4.15888e-05)
(-0.00164276 0.0260078 0.000627298)
(-0.00952348 0.064954 0.00118473)
(-0.0243741 0.0931206 0.00144483)
(-0.0429771 0.112221 0.00161307)
(-0.0637628 0.123476 0.00174853)
(-0.0855868 0.127606 0.00184961)
(-0.107299 0.124816 0.00189297)
(-0.127712 0.114935 0.00182847)
(-0.145507 0.0976573 0.00157646)
(-0.157953 0.0728571 0.000902817)
(-0.00137913 0.0308121 0.00146944)
(-0.00821206 0.0763546 0.00201925)
(-0.0212576 0.109005 0.00227511)
(-0.0376466 0.130968 0.00247327)
(-0.0558703 0.143755 0.00266822)
(-0.0747768 0.148258 0.00285785)
(-0.0932229 0.144727 0.00301105)
(-0.110114 0.132848 0.00306167)
(-0.124654 0.111867 0.00291985)
(-0.13395 0.0800566 0.00214499)
(-0.00102578 0.0347373 0.00247118)
(-0.00641619 0.085891 0.00299951)
(-0.0169261 0.122394 0.0032422)
(-0.0301427 0.146708 0.00346718)
(-0.0445935 0.160519 0.00372316)
(-0.0590048 0.164848 0.00401244)
(-0.0720221 0.160039 0.00430573)
(-0.0822513 0.145773 0.00453296)
(-0.0894019 0.121163 0.00466219)
(-0.0924647 0.0835034 0.00406759)
(0.000312065 -0.000315191 -9.41586e-08)
(2.56428e-05 0.000150983 1.32008e-06)
(-0.00184084 0.000651268 2.00107e-06)
(-0.00483789 0.000989215 2.57871e-06)
(-0.00857084 0.00118113 2.92435e-06)
(-0.0126973 0.00126385 3.06812e-06)
(-0.0169335 0.00126484 3.07885e-06)
(-0.0210411 0.0011979 2.95899e-06)
(-0.0248098 0.00107016 2.68806e-06)
(-0.0280619 0.000893245 2.24775e-06)
(-0.000175057 -2.72607e-05 -1.159e-06)
(-0.00248232 0.00239287 2.95933e-07)
(-0.00808311 0.00473964 -1.18584e-06)
(-0.0159687 0.00643386 -1.86984e-06)
(-0.0254069 0.00746861 -2.21182e-06)
(-0.0357176 0.00793459 -2.42657e-06)
(-0.0462579 0.00791862 -2.43267e-06)
(-0.0564467 0.00748113 -2.26087e-06)
(-0.0657649 0.00667774 -1.9825e-06)
(-0.0737851 0.00559765 -1.71011e-06)
(-0.000763846 0.00196728 -1.96888e-06)
(-0.00521225 0.00811174 1.74898e-06)
(-0.0143316 0.0135698 7.09278e-08)
(-0.0264007 0.0175657 -8.16186e-08)
(-0.0404401 0.0200555 8.54622e-08)
(-0.0555753 0.021167 8.10014e-08)
(-0.0709331 0.0210435 9.1452e-08)
(-0.0856881 0.0198089 1.38585e-07)
(-0.0990811 0.0176118 1.92854e-07)
(-0.110475 0.0147026 1.18298e-07)
(-0.00123653 0.00539151 -2.85342e-06)
(-0.00749402 0.0166371 2.47273e-06)
(-0.0195896 0.025926 -2.21412e-08)
(-0.0350754 0.0326315 -2.30109e-07)
(-0.0527422 0.0367845 5.85687e-08)
(-0.0715802 0.0385702 9.3066e-08)
(-0.090558 0.0381744 1.26268e-07)
(-0.108667 0.035769 2.10425e-07)
(-0.124939 0.0315987 3.67702e-07)
(-0.138514 0.0261175 3.24514e-07)
(-0.00156115 0.00991513 -3.48706e-06)
(-0.00912817 0.0273757 2.91129e-06)
(-0.0234136 0.0410339 -3.45746e-07)
(-0.0413891 0.0506965 -7.32189e-07)
(-0.0616576 0.0565972 -4.45406e-07)
(-0.0831129 0.0590154 -4.24329e-07)
(-0.104615 0.0581649 -3.78539e-07)
(-0.125014 0.0542292 -2.23909e-07)
(-0.143141 0.0475149 2.30145e-07)
(-0.157847 0.0386804 4.56034e-07)
(-0.001731 0.0151444 -3.80862e-06)
(-0.0100236 0.0395873 3.22264e-06)
(-0.0255514 0.0579951 -4.49634e-07)
(-0.0449412 0.0707807 -9.28987e-07)
(-0.0666785 0.0784759 -6.46075e-07)
(-0.0896039 0.0814873 -6.40666e-07)
(-0.11252 0.0800388 -6.25521e-07)
(-0.134178 0.0742674 -5.03529e-07)
(-0.153232 0.0644558 3.99524e-07)
(-0.168123 0.0513811 1.27417e-06)
(-0.00174627 0.020653 -3.85394e-06)
(-0.0101442 0.0524118 3.30235e-06)
(-0.0258762 0.0757391 -4.80675e-07)
(-0.0454901 0.0917158 -1.01551e-06)
(-0.0674355 0.10122 -7.7493e-07)
(-0.0905465 0.104807 -8.02412e-07)
(-0.113624 0.102693 -8.87341e-07)
(-0.135397 0.0948923 -1.06195e-06)
(-0.154424 0.0815102 5.25586e-07)
(-0.16862 0.0631789 3.24079e-06)
(-0.00161406 0.0260113 -3.51804e-06)
(-0.00950552 0.0649535 3.17704e-06)
(-0.02439 0.0931215 -4.3748e-07)
(-0.0429826 0.112222 -9.86231e-07)
(-0.0637636 0.123477 -8.06787e-07)
(-0.0855877 0.127605 -8.19247e-07)
(-0.107298 0.124811 -9.26669e-07)
(-0.127689 0.11492 -1.63995e-06)
(-0.145455 0.0976533 1.5572e-06)
(-0.158 0.0729185 1.12852e-05)
(-0.0013542 0.0308173 -2.92435e-06)
(-0.00819671 0.0763535 2.8829e-06)
(-0.0212721 0.109008 -3.03419e-07)
(-0.0376523 0.130972 -8.25533e-07)
(-0.0558723 0.143759 -7.56619e-07)
(-0.0747813 0.148262 -8.17488e-07)
(-0.0932339 0.144724 -1.09552e-06)
(-0.110096 0.132815 -3.8273e-06)
(-0.124547 0.111791 -1.14167e-06)
(-0.133998 0.0800264 2.53352e-05)
(-0.00100584 0.0347434 -2.1205e-06)
(-0.00640383 0.0858897 2.49105e-06)
(-0.0169375 0.122397 -5.76467e-08)
(-0.0301468 0.146716 -4.72112e-07)
(-0.0445948 0.160532 -4.99644e-07)
(-0.0590116 0.164871 -7.28677e-07)
(-0.0720554 0.160083 -1.54217e-06)
(-0.0822928 0.145838 -9.51645e-06)
(-0.089312 0.121226 -2.22603e-05)
(-0.0925438 0.083623 7.64755e-06)
(0.00031215 -0.000315106 -8.69868e-08)
(2.57753e-05 0.00015104 -1.3829e-06)
(-0.00184076 0.000651295 -2.03774e-06)
(-0.00483785 0.000989227 -2.60439e-06)
(-0.00857081 0.00118114 -2.94274e-06)
(-0.0126973 0.00126385 -3.08186e-06)
(-0.0169335 0.00126484 -3.08941e-06)
(-0.0210411 0.0011979 -2.96722e-06)
(-0.0248098 0.00107016 -2.69452e-06)
(-0.0280619 0.000893245 -2.25282e-06)
(-0.000175 -2.71276e-05 1.09755e-06)
(-0.00248222 0.00239298 -3.38245e-07)
(-0.00808302 0.0047397 1.15219e-06)
(-0.0159686 0.00643389 1.84386e-06)
(-0.0254069 0.00746862 2.19219e-06)
(-0.0357175 0.0079346 2.41152e-06)
(-0.0462579 0.00791862 2.42101e-06)
(-0.0564467 0.00748113 2.25178e-06)
(-0.0657649 0.00667774 1.97538e-06)
(-0.0737851 0.00559765 1.70452e-06)
(-0.000763818 0.00196735 1.93302e-06)
(-0.00521219 0.00811183 -1.78246e-06)
(-0.0143315 0.0135699 -9.90664e-08)
(-0.0264006 0.0175657 5.89082e-08)
(-0.04044 0.0200555 -1.03442e-07)
(-0.0555753 0.021167 -9.52626e-08)
(-0.0709331 0.0210435 -1.02736e-07)
(-0.0856881 0.0198089 -1.47495e-07)
(-0.0990811 0.0176118 -1.99879e-07)
(-0.110475 0.0147026 -1.23832e-07)
(-0.00123652 0.00539156 2.82855e-06)
(-0.00749399 0.0166372 -2.49806e-06)
(-0.0195896 0.0259261 7.40818e-11)
(-0.0350753 0.0326316 2.11393e-07)
(-0.0527421 0.0367845 -7.40626e-08)
(-0.0715802 0.0385702 -1.05778e-07)
(-0.090558 0.0381744 -1.36567e-07)
(-0.108667 0.035769 -2.18682e-07)
(-0.124939 0.0315987 -3.74275e-07)
(-0.138514 0.0261175 -3.29728e-07)
(-0.00156115 0.00991516 3.46987e-06)
(-0.00912815 0.0273757 -2.93005e-06)
(-0.0234136 0.0410339 3.28714e-07)
(-0.0413891 0.0506966 7.1707e-07)
(-0.0616576 0.0565973 4.32414e-07)
(-0.0831129 0.0590154 4.13362e-07)
(-0.104615 0.0581649 3.69469e-07)
(-0.125014 0.0542292 2.16536e-07)
(-0.143141 0.047515 -2.3608e-07)
(-0.157847 0.0386804 -4.60791e-07)
(-0.001731 0.0151445 3.79638e-06)
(-0.0100236 0.0395873 -3.23657e-06)
(-0.0255513 0.0579951 4.36574e-07)
(-0.0449411 0.0707807 9.16971e-07)
(-0.0666784 0.0784759 6.35427e-07)
(-0.0896039 0.0814873 6.3147e-07)
(-0.11252 0.0800389 6.17799e-07)
(-0.134178 0.0742674 4.97178e-07)
(-0.153232 0.0644558 -4.04702e-07)
(-0.168123 0.0513811 -1.2784e-06)
(-0.00174627 0.020653 3.84455e-06)
(-0.0101441 0.0524119 -3.31304e-06)
(-0.0258762 0.0757391 4.70427e-07)
(-0.0454901 0.0917158 1.0059e-06)
(-0.0674355 0.10122 7.66263e-07)
(-0.0905465 0.104807 7.94826e-07)
(-0.113624 0.102693 8.8091e-07)
(-0.135397 0.0948923 1.0566e-06)
(-0.154424 0.0815102 -5.30028e-07)
(-0.16862 0.0631789 -3.24452e-06)
(-0.00161406 0.0260113 3.51048e-06)
(-0.00950552 0.0649535 -3.18541e-06)
(-0.02439 0.0931215 4.29354e-07)
(-0.0429826 0.112222 9.78513e-07)
(-0.0637636 0.123477 7.99759e-07)
(-0.0855877 0.127605 8.13058e-07)
(-0.107298 0.124811 9.2139e-07)
(-0.127689 0.11492 1.6355e-06)
(-0.145455 0.0976533 -1.561e-06)
(-0.158 0.0729185 -1.12886e-05)
(-0.0013542 0.0308173 2.91843e-06)
(-0.00819671 0.0763535 -2.88946e-06)
(-0.0212721 0.109008 2.9694e-07)
(-0.0376523 0.130972 8.19316e-07)
(-0.0558722 0.143759 7.5093e-07)
(-0.0747813 0.148262 8.12463e-07)
(-0.0932339 0.144724 1.09119e-06)
(-0.110096 0.132815 3.82355e-06)
(-0.124547 0.111791 1.1383e-06)
(-0.133998 0.0800264 -2.53383e-05)
(-0.00100584 0.0347434 2.11578e-06)
(-0.00640383 0.0858897 -2.49628e-06)
(-0.0169375 0.122397 5.24232e-08)
(-0.0301468 0.146716 4.6708e-07)
(-0.0445948 0.160532 4.95033e-07)
(-0.0590116 0.164871 7.24588e-07)
(-0.0720554 0.160083 1.53857e-06)
(-0.0822928 0.145838 9.51313e-06)
(-0.089312 0.121226 2.2257e-05)
(-0.0925438 0.083623 -7.65074e-06)
(0.000307192 -0.00031055 8.98943e-07)
(1.86819e-05 0.000156951 -0.000216851)
(-0.00184448 0.000665309 -0.000445154)
(-0.00484045 0.001009 -0.000614526)
(-0.00857228 0.00120408 -0.000680949)
(-0.0126979 0.00128834 -0.000623979)
(-0.0169333 0.00128939 -0.0004373)
(-0.02104 0.00122114 -0.00012141)
(-0.0248075 0.00109097 0.000317672)
(-0.0280585 0.000910996 0.000867027)
(-0.000182369 -1.97462e-05 0.000217971)
(-0.00248522 0.00239502 -4.46946e-06)
(-0.00807543 0.00475097 -0.000173863)
(-0.0159638 0.00645029 -0.000275081)
(-0.0254045 0.00748685 -0.000289965)
(-0.0357168 0.00795367 -0.000202544)
(-0.0462588 0.00793756 -6.09261e-06)
(-0.0564487 0.00749889 0.000301795)
(-0.0657669 0.00669344 0.000719833)
(-0.0737862 0.00561123 0.0012415)
(-0.000779848 0.00197299 0.000451746)
(-0.00522345 0.00810529 0.000157834)
(-0.0143245 0.0135668 -1.24876e-05)
(-0.0263983 0.0175625 -9.2018e-05)
(-0.0404399 0.0200504 -8.9391e-05)
(-0.0555754 0.0211608 4.27158e-06)
(-0.0709339 0.0210369 0.00019329)
(-0.0856892 0.0198021 0.000481542)
(-0.0990812 0.0176049 0.000872227)
(-0.110473 0.014697 0.00136506)
(-0.00125955 0.0053965 0.000610543)
(-0.00751036 0.0166332 0.000230045)
(-0.0195804 0.0259271 3.56264e-05)
(-0.0350734 0.0326343 -4.60478e-05)
(-0.0527431 0.0367868 -4.57636e-05)
(-0.071581 0.038572 3.93242e-05)
(-0.0905594 0.0381758 0.000211828)
(-0.108669 0.0357694 0.000478249)
(-0.12494 0.0315969 0.000848091)
(-0.13851 0.0261154 0.00132981)
(-0.00158879 0.00991834 0.000619216)
(-0.00914679 0.0273734 0.000163508)
(-0.0234009 0.041036 -5.66099e-05)
(-0.0413859 0.0507008 -0.00015091)
(-0.0616585 0.0566019 -0.000166326)
(-0.0831139 0.0590201 -0.000103551)
(-0.104618 0.0581694 4.08951e-05)
(-0.125018 0.0542324 0.000279048)
(-0.143144 0.0475137 0.000630599)
(-0.157839 0.0386769 0.00111967)
(-0.00176123 0.0151455 0.000427951)
(-0.0100434 0.039586 -8.38259e-05)
(-0.0255364 0.0579962 -0.000325291)
(-0.044937 0.0707833 -0.000439577)
(-0.066679 0.0784791 -0.000483273)
(-0.0896048 0.081491 -0.000457895)
(-0.112522 0.080043 -0.000355826)
(-0.134186 0.074271 -0.000155589)
(-0.153239 0.0644513 0.000178342)
(-0.168108 0.0513692 0.000700793)
(-0.00177692 0.0206518 1.26117e-05)
(-0.0101638 0.0524117 -0.000533059)
(-0.0258601 0.0757393 -0.000788282)
(-0.045485 0.0917166 -0.000927754)
(-0.0674355 0.101221 -0.00101173)
(-0.0905466 0.104809 -0.00104046)
(-0.113626 0.102697 -0.0009992)
(-0.13541 0.0948971 -0.000853125)
(-0.154442 0.0814995 -0.000544995)
(-0.16859 0.0631403 4.15928e-05)
(-0.00164276 0.0260078 -0.00062729)
(-0.00952347 0.0649541 -0.00118472)
(-0.0243741 0.0931206 -0.00144482)
(-0.0429771 0.112221 -0.00161306)
(-0.0637627 0.123476 -0.00174852)
(-0.0855868 0.127606 -0.0018496)
(-0.107299 0.124816 -0.00189296)
(-0.127712 0.114935 -0.00182846)
(-0.145507 0.0976574 -0.00157646)
(-0.157953 0.0728571 -0.000902814)
(-0.00137913 0.0308122 -0.00146943)
(-0.00821206 0.0763546 -0.00201925)
(-0.0212576 0.109005 -0.00227511)
(-0.0376466 0.130968 -0.00247326)
(-0.0558702 0.143755 -0.00266822)
(-0.0747768 0.148258 -0.00285785)
(-0.0932228 0.144727 -0.00301105)
(-0.110114 0.132848 -0.00306167)
(-0.124654 0.111867 -0.00291985)
(-0.13395 0.0800566 -0.00214498)
(-0.00102578 0.0347373 -0.00247118)
(-0.00641619 0.0858911 -0.00299951)
(-0.0169261 0.122394 -0.00324219)
(-0.0301427 0.146708 -0.00346718)
(-0.0445935 0.160519 -0.00372316)
(-0.0590048 0.164848 -0.00401243)
(-0.0720221 0.160039 -0.00430572)
(-0.0822513 0.145773 -0.00453295)
(-0.0894019 0.121163 -0.00466219)
(-0.0924647 0.0835034 -0.00406758)
(-0.0306799 0.00070672 -0.00150593)
(-0.0326574 0.000512386 -0.00220891)
(-0.0340673 0.000350963 -0.00295301)
(-0.0350299 0.000230337 -0.00372095)
(-0.0356703 0.000148298 -0.00450129)
(-0.036098 9.81562e-05 -0.00528734)
(-0.0364002 7.27392e-05 -0.00607593)
(-0.0366436 6.63176e-05 -0.00686631)
(-0.0368794 7.49735e-05 -0.0076596)
(-0.0371471 9.61041e-05 -0.00845851)
(-0.0374771 0.000127479 -0.00926747)
(-0.0378895 0.000166041 -0.0100927)
(-0.0383897 0.000206531 -0.0109422)
(-0.0389608 0.000240061 -0.0118257)
(-0.0395522 0.000252897 -0.0127534)
(-0.0400671 0.00022612 -0.0137349)
(-0.0403531 0.000137483 -0.0147753)
(-0.0402 -3.27264e-05 -0.0158723)
(-0.0393595 -0.000296432 -0.0170099)
(-0.0375921 -0.00064169 -0.0181559)
(-0.0802477 0.00440464 -0.00185307)
(-0.0851363 0.00325894 -0.00253472)
(-0.0886503 0.00229749 -0.00326793)
(-0.0910825 0.0015649 -0.00403738)
(-0.0927303 0.00105192 -0.00483125)
(-0.0938519 0.000723938 -0.00564129)
(-0.0946526 0.000541519 -0.00646231)
(-0.0952886 0.000470712 -0.00729167)
(-0.0958769 0.000485393 -0.00812885)
(-0.0965037 0.000565039 -0.00897517)
(-0.0972289 0.00069013 -0.00983367)
(-0.0980835 0.000836331 -0.010709)
(-0.0990606 0.000968183 -0.0116073)
(-0.1001 0.00103317 -0.0125354)
(-0.101066 0.0009579 -0.0135007)
(-0.101726 0.000649479 -0.0145089)
(-0.101734 7.00305e-06 -0.0155624)
(-0.10064 -0.00105229 -0.0166565)
(-0.0979267 -0.00255478 -0.0177773)
(-0.0931115 -0.00441694 -0.0188973)
(-0.119482 0.011492 -0.00195087)
(-0.12614 0.00848448 -0.00260946)
(-0.130817 0.00598463 -0.00332333)
(-0.133992 0.00409089 -0.00407778)
(-0.136111 0.00276612 -0.00486082)
(-0.137537 0.00191357 -0.00566359)
(-0.138542 0.00142797 -0.00648015)
(-0.139327 0.00121927 -0.00730699)
(-0.140036 0.00121711 -0.00814269)
(-0.140768 0.00136474 -0.00898762)
(-0.141591 0.00160773 -0.00984369)
(-0.142533 0.00188036 -0.0107142)
(-0.143576 0.00209136 -0.0116037)
(-0.144638 0.00211107 -0.0125176)
(-0.145543 0.00176401 -0.0134615)
(-0.145994 0.00083381 -0.0144405)
(-0.145554 -0.000909282 -0.0154574)
(-0.143635 -0.00364967 -0.0165106)
(-0.139549 -0.00743045 -0.0175908)
(-0.132619 -0.0120385 -0.018677)
(-0.148848 0.0201254 -0.00191811)
(-0.156089 0.0146239 -0.00258309)
(-0.160898 0.0101648 -0.00330418)
(-0.163995 0.00686349 -0.00406557)
(-0.165965 0.00459586 -0.00485446)
(-0.167236 0.00315314 -0.00566179)
(-0.168101 0.00233107 -0.00648159)
(-0.168757 0.00196438 -0.00731027)
(-0.169333 0.00192831 -0.0081461)
(-0.169918 0.0021247 -0.00898887)
(-0.170567 0.00246167 -0.00983956)
(-0.171304 0.00283075 -0.0107003)
(-0.172112 0.00308344 -0.0115742)
(-0.172919 0.00300962 -0.0124653)
(-0.173566 0.00232338 -0.0133787)
(-0.173775 0.000666587 -0.01432)
(-0.173101 -0.00235231 -0.015295)
(-0.170908 -0.00706656 -0.0163078)
(-0.166365 -0.0135909 -0.017358)
(-0.158543 -0.0216035 -0.0184355)
(-0.168304 0.0290602 -0.00174747)
(-0.174873 0.0205141 -0.00245433)
(-0.178729 0.0138682 -0.00321232)
(-0.180917 0.00913556 -0.00400384)
(-0.182143 0.00598991 -0.00481546)
(-0.182842 0.00403747 -0.00563895)
(-0.183266 0.00294004 -0.00646954)
(-0.183559 0.00244584 -0.00730457)
(-0.183804 0.00237654 -0.00814273)
(-0.184049 0.00259933 -0.00898361)
(-0.184326 0.00299536 -0.00982743)
(-0.184653 0.00342744 -0.010675)
(-0.185027 0.00370735 -0.0115279)
(-0.18542 0.0035637 -0.0123887)
(-0.185747 0.00261523 -0.0132616)
(-0.185826 0.000361079 -0.0141531)
(-0.185312 -0.00378749 -0.015073)
(-0.183607 -0.0103968 -0.0160341)
(-0.179776 -0.0197889 -0.0170493)
(-0.172514 -0.0316664 -0.0181294)
(-0.177433 0.0370678 -0.00143176)
(-0.181923 0.0249803 -0.00223071)
(-0.183707 0.0161597 -0.0030606)
(-0.184235 0.0102382 -0.00390589)
(-0.184247 0.00649464 -0.00475511)
(-0.18409 0.00426085 -0.00560369)
(-0.183898 0.00303928 -0.00645027)
(-0.18371 0.00249605 -0.00729452)
(-0.183529 0.00241422 -0.00813636)
(-0.183348 0.00264464 -0.00897559)
(-0.183162 0.00306239 -0.0098118)
(-0.182979 0.0035271 -0.0106444)
(-0.182818 0.00384325 -0.0114731)
(-0.182712 0.00371752 -0.0122982)
(-0.182692 0.00271396 -0.0131222)
(-0.182751 0.000213957 -0.0139518)
(-0.182757 -0.00459255 -0.0148007)
(-0.182303 -0.0126201 -0.015691)
(-0.180471 -0.0246452 -0.0166548)
(-0.175455 -0.0407306 -0.0177422)
(-0.175286 0.0426491 -0.000991424)
(-0.176039 0.0266883 -0.00195141)
(-0.174688 0.0161358 -0.0028882)
(-0.17304 0.00964533 -0.00380409)
(-0.171639 0.00583145 -0.00469726)
(-0.17058 0.00368443 -0.00557243)
(-0.169791 0.00256081 -0.00643471)
(-0.169166 0.00207885 -0.00728749)
(-0.168608 0.0020158 -0.00813248)
(-0.168047 0.00223373 -0.00896987)
(-0.167438 0.00262739 -0.00979854)
(-0.166772 0.00308273 -0.0106163)
(-0.16608 0.00343644 -0.0114204)
(-0.165449 0.00342812 -0.0122082)
(-0.165032 0.00263758 -0.012979)
(-0.165042 0.000401505 -0.0137369)
(-0.165678 -0.00427688 -0.014498)
(-0.166956 -0.0127466 -0.0152926)
(-0.168311 -0.0265905 -0.0161749)
(-0.167491 -0.0469552 -0.017268)
(-0.159865 0.043631 -0.000484225)
(-0.154936 0.0240359 -0.00168939)
(-0.149782 0.0130461 -0.00275531)
(-0.146021 0.00714085 -0.00374202)
(-0.143492 0.00402682 -0.00467051)
(-0.141833 0.00241838 -0.00556279)
(-0.140709 0.00163175 -0.00643349)
(-0.139864 0.00131732 -0.00729009)
(-0.139122 0.00129685 -0.00813578)
(-0.138364 0.00147395 -0.00897074)
(-0.137513 0.00178418 -0.00979286)
(-0.136536 0.00216164 -0.0105981)
(-0.135455 0.00250777 -0.0113808)
(-0.134373 0.00265071 -0.0121345)
(-0.133513 0.00227974 -0.0128535)
(-0.133269 0.000829488 -0.0135367)
(-0.134198 -0.00271106 -0.0141992)
(-0.136989 -0.0100268 -0.0148742)
(-0.14213 -0.0238209 -0.015632)
(-0.147681 -0.0477531 -0.0167082)
(-0.126742 0.0374918 -0.000201392)
(-0.114409 0.0161129 -0.00167883)
(-0.106191 0.00712584 -0.00279287)
(-0.101598 0.00331498 -0.0037872)
(-0.0989773 0.00165161 -0.00470839)
(-0.0974329 0.000916233 -0.00559117)
(-0.0964569 0.000601202 -0.00645507)
(-0.095745 0.000496475 -0.00730768)
(-0.0951125 0.00051515 -0.00815106)
(-0.0944403 0.000619868 -0.00898403)
(-0.0936482 0.000791438 -0.00980279)
(-0.0926877 0.0010127 -0.010601)
(-0.0915505 0.0012552 -0.0113699)
(-0.0902948 0.00145939 -0.012098)
(-0.0891015 0.00149414 -0.0127719)
(-0.0883644 0.00106468 -0.0133805)
(-0.0887706 -0.000510499 -0.0139316)
(-0.0916345 -0.00485319 -0.0144306)
(-0.0994425 -0.0155345 -0.0149218)
(-0.113285 -0.0405848 -0.0158013)
(-0.0644994 0.0229713 -0.000852583)
(-0.0481231 0.00662445 -0.0023227)
(-0.0414093 0.00202073 -0.0030767)
(-0.0389745 0.000649721 -0.00382521)
(-0.0379169 0.000224068 -0.00459004)
(-0.0373764 9.36031e-05 -0.00536773)
(-0.037054 5.85686e-05 -0.00615604)
(-0.0368099 5.78923e-05 -0.00694979)
(-0.0365696 7.46025e-05 -0.00774396)
(-0.0362843 0.000105344 -0.00853352)
(-0.0359147 0.000150889 -0.00931223)
(-0.0354266 0.000213138 -0.0100715)
(-0.034792 0.000293514 -0.010799)
(-0.0339975 0.000389665 -0.0114769)
(-0.033066 0.00048509 -0.01208)
(-0.0321087 0.000517338 -0.0125724)
(-0.0314693 0.000261537 -0.0129066)
(-0.0321116 -0.00113973 -0.0130459)
(-0.0377307 -0.00641702 -0.0128694)
(-0.0564502 -0.025714 -0.0130095)
(-0.0306836 0.000692171 1.69186e-06)
(-0.0326605 0.0005011 1.18484e-06)
(-0.0340696 0.000342622 7.85455e-07)
(-0.0350314 0.000224378 4.96815e-07)
(-0.0356712 0.000144114 3.0576e-07)
(-0.0360984 9.51828e-05 1.90723e-07)
(-0.0364003 7.04963e-05 1.30996e-07)
(-0.0366435 6.44181e-05 1.10873e-07)
(-0.0368792 7.3115e-05 1.19704e-07)
(-0.0371468 9.40597e-05 1.50716e-07)
(-0.0374767 0.000125098 1.9913e-07)
(-0.0378889 0.000163264 2.59904e-07)
(-0.0383891 0.000203428 3.25392e-07)
(-0.0389602 0.000236884 3.82926e-07)
(-0.0395518 0.000250144 4.11513e-07)
(-0.0400671 0.000224588 3.77233e-07)
(-0.0403539 0.000138243 2.37601e-07)
(-0.0402021 -2.84798e-05 -3.36888e-08)
(-0.0393633 -0.000287435 -5.11095e-07)
(-0.0375977 -0.000627196 -1.23008e-06)
(-0.0802467 0.0043926 -1.51258e-06)
(-0.0851347 0.00324907 -1.26317e-06)
(-0.0886484 0.00228995 -9.9993e-07)
(-0.0910805 0.00155938 -7.65016e-07)
(-0.0927286 0.00104801 -5.73341e-07)
(-0.0938506 0.000721183 -4.32388e-07)
(-0.0946517 0.000539523 -3.4186e-07)
(-0.0952881 0.000469139 -2.95996e-07)
(-0.0958766 0.000483974 -2.86703e-07)
(-0.0965037 0.000563566 -3.04488e-07)
(-0.0972289 0.000688449 -3.37782e-07)
(-0.0980833 0.000834349 -3.71298e-07)
(-0.09906 0.000965893 -3.84184e-07)
(-0.100099 0.0010307 -3.48795e-07)
(-0.101064 0.000955558 -2.31099e-07)
(-0.101722 0.000647844 4.55008e-09)
(-0.10173 6.89302e-06 3.81467e-07)
(-0.100635 -0.00104988 8.91039e-07)
(-0.0979222 -0.00254877 1.50153e-06)
(-0.0931089 -0.00440726 2.07582e-06)
(-0.119485 0.0114941 -1.87749e-07)
(-0.12614 0.00848487 -3.25844e-07)
(-0.130816 0.00598459 -3.57454e-07)
(-0.133991 0.00409078 -3.40164e-07)
(-0.13611 0.00276612 -2.91103e-07)
(-0.137535 0.00191374 -2.32916e-07)
(-0.138541 0.00142832 -1.80085e-07)
(-0.139327 0.0012198 -1.38184e-07)
(-0.140035 0.00121783 -1.07966e-07)
(-0.140768 0.00136565 -8.74531e-08)
(-0.14159 0.00160878 -7.316e-08)
(-0.142532 0.00188149 -6.06611e-08)
(-0.143576 0.00209243 -4.46811e-08)
(-0.144637 0.00211186 -1.86805e-08)
(-0.145541 0.00176426 2.6063e-08)
(-0.145992 0.000833267 9.68789e-08)
(-0.145551 -0.000910885 1.89753e-07)
(-0.143632 -0.00365229 2.98575e-07)
(-0.139548 -0.00743395 4.1073e-07)
(-0.132622 -0.0120443 3.49527e-07)
(-0.148853 0.0201219 -2.97992e-07)
(-0.15609 0.01462 -4.79272e-07)
(-0.160897 0.0101622 -4.76447e-07)
(-0.163993 0.00686208 -4.23961e-07)
(-0.165963 0.00459531 -3.37888e-07)
(-0.167235 0.00315314 -2.50446e-07)
(-0.1681 0.00233137 -1.77818e-07)
(-0.168756 0.00196481 -1.22684e-07)
(-0.169332 0.0019288 -8.33971e-08)
(-0.169917 0.0021252 -5.68616e-08)
(-0.170567 0.00246213 -3.98151e-08)
(-0.171304 0.00283111 -2.92991e-08)
(-0.172112 0.0030836 -2.252e-08)
(-0.172918 0.00300948 -1.50727e-08)
(-0.173565 0.00232291 4.08958e-09)
(-0.173773 0.000665866 4.71624e-08)
(-0.173099 -0.00235311 1.00907e-07)
(-0.170905 -0.00706655 2.02292e-07)
(-0.166365 -0.0135886 3.96379e-07)
(-0.158549 -0.0216007 3.50106e-07)
(-0.168312 0.0290513 -8.07183e-07)
(-0.174872 0.0205065 -9.05071e-07)
(-0.178726 0.0138645 -7.34375e-07)
(-0.180914 0.00913421 -5.7479e-07)
(-0.18214 0.00598987 -4.05274e-07)
(-0.182839 0.00403804 -2.66821e-07)
(-0.183265 0.00294077 -1.70783e-07)
(-0.183558 0.00244654 -1.0865e-07)
(-0.183803 0.00237714 -7.1207e-08)
(-0.184048 0.00259981 -5.12516e-08)
(-0.184326 0.0029957 -4.37637e-08)
(-0.184653 0.00342762 -4.54229e-08)
(-0.185027 0.00370731 -5.37858e-08)
(-0.185419 0.0035634 -6.39536e-08)
(-0.185745 0.00261469 -5.68412e-08)
(-0.185824 0.000360543 -5.59272e-09)
(-0.185308 -0.00378754 4.85265e-08)
(-0.183601 -0.0103946 1.9935e-07)
(-0.179773 -0.0197803 6.9823e-07)
(-0.172523 -0.0316534 1.00239e-06)
(-0.177449 0.0370498 -1.71984e-06)
(-0.181919 0.0249681 -1.46988e-06)
(-0.1837 0.016156 -9.23017e-07)
(-0.18423 0.010238 -6.1863e-07)
(-0.184243 0.00649579 -3.64541e-07)
(-0.184087 0.00426232 -1.92705e-07)
(-0.183896 0.0030406 -9.57685e-08)
(-0.183709 0.00249709 -4.42762e-08)
(-0.183528 0.00241502 -1.90891e-08)
(-0.183347 0.00264525 -9.43754e-09)
(-0.183162 0.00306286 -9.99121e-09)
(-0.182979 0.00352744 -1.88609e-08)
(-0.182818 0.00384341 -3.61831e-08)
(-0.182712 0.00371743 -6.12373e-08)
(-0.182691 0.00271361 -7.6135e-08)
(-0.182749 0.000213675 -4.60301e-08)
(-0.182752 -0.00459198 -2.5039e-08)
(-0.182292 -0.0126162 1.09902e-07)
(-0.18046 -0.0246288 1.20223e-06)
(-0.175472 -0.0407029 2.54718e-06)
(-0.175318 0.0426242 -4.57055e-06)
(-0.176025 0.0266802 -3.02275e-06)
(-0.174673 0.0161395 -1.40022e-06)
(-0.173032 0.00964969 -7.30488e-07)
(-0.171635 0.00583502 -3.11059e-07)
(-0.170578 0.00368706 -9.67203e-08)
(-0.16979 0.00256263 -1.23803e-08)
(-0.169165 0.00208013 1.53802e-08)
(-0.168608 0.0020168 1.88743e-08)
(-0.168046 0.00223463 1.12169e-08)
(-0.167438 0.00262827 -3.17205e-09)
(-0.166773 0.00308363 -2.38589e-08)
(-0.16608 0.00343728 -5.1869e-08)
(-0.165449 0.00342869 -8.97486e-08)
(-0.165031 0.0026376 -1.18432e-07)
(-0.16504 0.000400956 -6.05208e-08)
(-0.165671 -0.0042784 7.23861e-08)
(-0.166935 -0.0127491 3.63477e-07)
(-0.168285 -0.026579 2.90821e-06)
(-0.167523 -0.0469195 7.00046e-06)
(-0.159925 0.0435897 -7.76096e-06)
(-0.154904 0.0240462 -3.15972e-06)
(-0.149763 0.0130679 -6.44707e-07)
(-0.146016 0.0071532 -2.44973e-07)
(-0.14349 0.00403313 3.08878e-08)
(-0.141833 0.0024218 1.28113e-07)
(-0.140709 0.00163372 1.21392e-07)
(-0.139864 0.00131869 9.99407e-08)
(-0.139122 0.0012981 8.28803e-08)
(-0.138364 0.00147536 7.09052e-08)
(-0.137513 0.00178591 6.1056e-08)
(-0.136536 0.00216374 4.86587e-08)
(-0.135456 0.00251014 2.64036e-08)
(-0.134373 0.00265293 -2.61761e-08)
(-0.133513 0.00228092 -1.02947e-07)
(-0.133269 0.000828075 -3.32626e-08)
(-0.134197 -0.00271957 9.70908e-08)
(-0.136968 -0.0100494 -3.60619e-07)
(-0.142084 -0.0238342 2.56939e-06)
(-0.14774 -0.0476971 1.11808e-05)
(-0.126815 0.0372947 -9.694e-06)
(-0.11434 0.0160532 4.29474e-06)
(-0.106179 0.00711475 4.81342e-06)
(-0.101607 0.00330776 2.05885e-06)
(-0.0989827 0.00164624 1.06646e-06)
(-0.0974354 0.000912878 6.48049e-07)
(-0.0964583 0.000598995 4.08361e-07)
(-0.0957454 0.000494823 3.10116e-07)
(-0.0951123 0.00051371 2.98419e-07)
(-0.0944398 0.000618409 3.35932e-07)
(-0.0936476 0.00078981 4.03078e-07)
(-0.0926873 0.00101085 4.82883e-07)
(-0.0915507 0.00125322 5.45627e-07)
(-0.0902964 0.00145763 5.14942e-07)
(-0.089105 0.00149337 2.93243e-07)
(-0.0883732 0.00106589 -6.83612e-08)
(-0.0887897 -0.000507198 -1.29444e-06)
(-0.0916309 -0.0048459 -5.984e-06)
(-0.0993522 -0.0154699 -8.13045e-06)
(-0.113337 -0.0403282 1.20744e-05)
(-0.0645423 0.0228261 -5.38951e-05)
(-0.047964 0.00655538 -9.19087e-06)
(-0.0413642 0.00199286 -6.72424e-07)
(-0.0389701 0.000633982 -1.47693e-06)
(-0.0379139 0.000214892 -9.60425e-07)
(-0.0373743 8.8429e-05 -4.52354e-07)
(-0.0370531 5.54085e-05 -2.56805e-07)
(-0.0368096 5.55829e-05 -1.82684e-07)
(-0.0365695 7.24998e-05 -1.62341e-07)
(-0.0362844 0.000103059 -1.78707e-07)
(-0.035915 0.000148182 -2.2103e-07)
(-0.035427 0.000209913 -2.78789e-07)
(-0.0347923 0.000289901 -3.37044e-07)
(-0.0339974 0.000386253 -3.69514e-07)
(-0.0330649 0.000483232 -2.85488e-07)
(-0.0321077 0.000519275 1.61523e-07)
(-0.0314718 0.000270886 6.01168e-07)
(-0.0320696 -0.00111608 -1.99656e-06)
(-0.0375144 -0.00634276 3.95438e-06)
(-0.0564368 -0.0255188 6.82344e-05)
(-0.0306836 0.00069217 -1.69586e-06)
(-0.0326605 0.0005011 -1.18801e-06)
(-0.0340696 0.000342622 -7.88002e-07)
(-0.0350314 0.000224378 -4.98875e-07)
(-0.0356712 0.000144114 -3.07438e-07)
(-0.0360984 9.51827e-05 -1.92092e-07)
(-0.0364003 7.04963e-05 -1.32105e-07)
(-0.0366435 6.44181e-05 -1.11755e-07)
(-0.0368792 7.3115e-05 -1.20382e-07)
(-0.0371468 9.40597e-05 -1.51204e-07)
(-0.0374767 0.000125098 -1.99456e-07)
(-0.0378889 0.000163264 -2.60108e-07)
(-0.0383891 0.000203428 -3.25516e-07)
(-0.0389602 0.000236884 -3.83007e-07)
(-0.0395518 0.000250144 -4.1158e-07)
(-0.0400671 0.000224588 -3.77305e-07)
(-0.0403539 0.000138243 -2.37683e-07)
(-0.0402021 -2.84798e-05 3.35957e-08)
(-0.0393633 -0.000287435 5.10994e-07)
(-0.0375977 -0.000627196 1.22997e-06)
(-0.0802467 0.0043926 1.50818e-06)
(-0.0851347 0.00324907 1.25967e-06)
(-0.0886484 0.00228995 9.97133e-07)
(-0.0910805 0.00155938 7.62764e-07)
(-0.0927286 0.00104801 5.71519e-07)