/*--------------------------------*- C++ -*----------------------------------*\
| =========                 |                                                 |
| \\      /  F ield         | OpenFOAM: The Open Source CFD Toolbox           |
|  \\    /   O peration     | Version:  2.4.0                                 |
|   \\  /    A nd           | Web:      www.OpenFOAM.org                      |
|    \\/     M anipulation  |                                                 |
\*---------------------------------------------------------------------------*/
FoamFile
{
    version     2.0;
    format      ascii;
    class       volVectorField;
    location    "0.44";
    object      U;
}
// * * * * * * * * * * * * * * * * * * * * * * * * * * * * * * * * * * * * * //

dimensions      [0 1 -1 0 0 0 0];

internalField   nonuniform List<vector> 
1600
(
(7.49477e-05 -7.44559e-05 0)
(0.000159171 -4.8888e-05 0)
(8.45007e-05 1.23101e-05 0)
(-0.000169166 6.63763e-05 0)
(-0.000570279 0.000106178 0)
(-0.00107747 0.00013199 0)
(-0.001661 0.000148842 0)
(-0.0023016 0.000161721 0)
(-0.00298972 0.000173939 0)
(-0.00372161 0.000187002 0)
(-0.00449507 0.000200898 0)
(-0.00530563 0.00021446 0)
(-0.00614382 0.000225716 0)
(-0.00699329 0.000232184 0)
(-0.00782987 0.000231128 0)
(-0.00862152 0.000219803 0)
(-0.00932916 0.000195737 0)
(-0.00990849 0.000157114 0)
(-0.010313 0.000103308 0)
(-0.0104984 3.50511e-05 0)
(-0.0104249 -4.67433e-05 0)
(-0.010064 -0.000137107 0)
(-0.00940452 -0.00022984 0)
(-0.00845535 -0.000317506 0)
(-0.00724816 -0.000391895 0)
(-0.00583761 -0.000445049 0)
(-0.00429878 -0.000470442 0)
(-0.0027214 -0.000464093 0)
(-0.00120148 -0.000425533 0)
(0.00016694 -0.000358333 0)
(0.00130159 -0.000268141 0)
(0.00214196 -0.00016343 0)
(0.00265354 -5.41144e-05 0)
(0.00282946 5.07414e-05 0)
(0.00269022 0.000142658 0)
(0.00228289 0.000214025 0)
(0.00168184 0.000254918 0)
(0.000988817 0.000249637 0)
(0.000345084 0.000174382 0)
(2.82297e-05 2.88437e-05 0)
(5.4342e-05 -0.000163978 0)
(-3.63367e-05 3.49335e-05 0)
(-0.000527589 0.000354279 0)
(-0.00140339 0.000649396 0)
(-0.00261027 0.000883663 0)
(-0.00407816 0.00105613 0)
(-0.00574584 0.00118332 0)
(-0.00756956 0.00128383 0)
(-0.00952168 0.00137104 0)
(-0.0115841 0.00145108 0)
(-0.0137402 0.00152301 0)
(-0.0159676 0.00158009 0)
(-0.0182322 0.0016114 0)
(-0.0204844 0.00160353 0)
(-0.0226578 0.00154221 0)
(-0.0246698 0.00141406 0)
(-0.0264243 0.00120828 0)
(-0.0278171 0.000918588 0)
(-0.0287435 0.00054496 0)
(-0.0291091 9.48631e-05 0)
(-0.0288336 -0.000416188 0)
(-0.0278629 -0.000961439 0)
(-0.0261847 -0.00150732 0)
(-0.0238297 -0.00201462 0)
(-0.0208757 -0.00244182 0)
(-0.0174472 -0.00274971 0)
(-0.0137099 -0.00290648 0)
(-0.00985946 -0.00289246 0)
(-0.00610677 -0.00270385 0)
(-0.00265951 -0.00235463 0)
(0.000295612 -0.0018737 0)
(0.00261155 -0.00130231 0)
(0.00419557 -0.000690351 0)
(0.00501557 -8.93696e-05 0)
(0.00510321 0.000450686 0)
(0.00455394 0.000881362 0)
(0.00352443 0.00115057 0)
(0.00222534 0.00119478 0)
(0.00094186 0.000936402 0)
(0.00017303 0.000343684 0)
(-1.65366e-05 -8.60841e-05 0)
(-0.000419726 0.000539533 0)
(-0.00148531 0.00134372 0)
(-0.00309373 0.00208364 0)
(-0.00515926 0.00268556 0)
(-0.00759399 0.0031483 0)
(-0.010319 0.00350326 0)
(-0.0132758 0.00378729 0)
(-0.016424 0.00402751 0)
(-0.0197327 0.0042355 0)
(-0.0231701 0.00440683 0)
(-0.0266944 0.0045235 0)
(-0.0302468 0.00455774 0)
(-0.0337468 0.00447635 0)
(-0.0370915 0.00424512 0)
(-0.0401573 0.00383341 0)
(-0.0428049 0.00321858 0)
(-0.044888 0.00239036 0)
(-0.0462633 0.00135454 0)
(-0.0468036 0.000136162 0)
(-0.0464053 -0.00121759 0)
(-0.0450023 -0.00264196 0)
(-0.0425842 -0.00405395 0)
(-0.0391958 -0.00535911 0)
(-0.0349429 -0.00645954 0)
(-0.0299913 -0.00726363 0)
(-0.0245608 -0.00769664 0)
(-0.0189124 -0.00771091 0)
(-0.0133314 -0.00729385 0)
(-0.00810458 -0.00647216 0)
(-0.00349688 -0.00531064 0)
(0.000272806 -0.00390517 0)
(0.00305298 -0.00237359 0)
(0.00477444 -0.000844361 0)
(0.00545673 0.000553475 0)
(0.00520996 0.00169285 0)
(0.00423077 0.00244612 0)
(0.00278822 0.00267559 0)
(0.00125008 0.00223176 0)
(0.000255787 0.000994847 0)
(-9.86035e-05 0.000229681 0)
(-0.000872083 0.00156117 0)
(-0.00260439 0.00303097 0)
(-0.00502473 0.00434424 0)
(-0.00800004 0.00541331 0)
(-0.011423 0.00624755 0)
(-0.0152019 0.00689913 0)
(-0.01927 0.00742544 0)
(-0.0235798 0.0078671 0)
(-0.0280917 0.00823893 0)
(-0.0327616 0.00852924 0)
(-0.037531 0.00870396 0)
(-0.042319 0.00871327 0)
(-0.0470181 0.00849934 0)
(-0.0514946 0.00800436 0)
(-0.0555915 0.00717851 0)
(-0.0591356 0.00598767 0)
(-0.0619477 0.00442032 0)
(-0.0638548 0.00249337 0)
(-0.0647032 0.000256797 0)
(-0.0643712 -0.00220456 0)
(-0.0627793 -0.00477932 0)
(-0.059908 -0.007325 0)
(-0.0558028 -0.00968235 0)
(-0.0505779 -0.0116871 0)
(-0.0444178 -0.0131846 0)
(-0.0375724 -0.0140463 0)
(-0.0303457 -0.0141861 0)
(-0.0230788 -0.0135735 0)
(-0.0161257 -0.0122426 0)
(-0.009825 -0.0102928 0)
(-0.00446952 -0.00788101 0)
(-0.000277825 -0.00520664 0)
(0.00262811 -0.00249328 0)
(0.00423604 2.88493e-05 0)
(0.00464865 0.00213118 0)
(0.00407755 0.00358951 0)
(0.00282563 0.00417303 0)
(0.0013161 0.00363787 0)
(0.00027995 0.00173783 0)
(-0.000184788 0.000806179 0)
(-0.0013546 0.00315621 0)
(-0.00380112 0.00547967 0)
(-0.00708007 0.00748239 0)
(-0.0109997 0.00909694 0)
(-0.0154298 0.0103628 0)
(-0.0202677 0.0113628 0)
(-0.0254426 0.0121786 0)
(-0.0309054 0.0128637 0)
(-0.0366125 0.0134332 0)
(-0.0425123 0.0138637 0)
(-0.0485335 0.0141003 0)
(-0.0545772 0.0140664 0)
(-0.0605142 0.0136759 0)
(-0.0661847 0.0128447 0)
(-0.0714042 0.0115028 0)
(-0.0759709 0.00960504 0)
(-0.0796767 0.00714035 0)
(-0.0823203 0.00413921 0)
(-0.0837201 0.000678898 0)
(-0.0837307 -0.00311585 0)
(-0.0822479 -0.00708191 0)
(-0.0792278 -0.011013 0)
(-0.0746983 -0.0146798 0)
(-0.0687621 -0.0178437 0)
(-0.061602 -0.0202767 0)
(-0.0534803 -0.0217831 0)
(-0.0447309 -0.0222231 0)
(-0.0357438 -0.0215335 0)
(-0.0269407 -0.0197431 0)
(-0.0187425 -0.0169787 0)
(-0.0115312 -0.013458 0)
(-0.00561129 -0.00947114 0)
(-0.00117734 -0.00535374 0)
(0.00170617 -0.00145873 0)
(0.00311608 0.00186294 0)
(0.00326474 0.00426812 0)
(0.00247777 0.00541384 0)
(0.00122002 0.00494285 0)
(0.000271327 0.00246651 0)
(-0.000271012 0.00164739 0)
(-0.00184658 0.00534953 0)
(-0.00502817 0.00872552 0)
(-0.0091872 0.0115341 0)
(-0.0140679 0.0137665 0)
(-0.019516 0.0155166 0)
(-0.0254192 0.0169118 0)
(-0.0317069 0.0180633 0)
(-0.038333 0.0190377 0)
(-0.0452554 0.0198474 0)
(-0.0524195 0.020453 0)
(-0.0597463 0.0207734 0)
(-0.067124 0.0207008 0)
(-0.0744057 0.0201167 0)
(-0.0814104 0.0189081 0)
(-0.0879292 0.016983 0)
(-0.0937337 0.0142837 0)
(-0.098587 0.0107986 0)
(-0.102256 0.006571 0)
(-0.104523 0.00170433 0)
(-0.10521 -0.00363755 0)
(-0.104174 -0.00924037 0)
(-0.101326 -0.0148316 0)
(-0.0966601 -0.0201074 0)
(-0.0902465 -0.0247471 0)
(-0.0822474 -0.0284356 0)
(-0.0729209 -0.0308928 0)
(-0.0626191 -0.0319034 0)
(-0.0517768 -0.0313486 0)
(-0.0408882 -0.0292312 0)
(-0.0304711 -0.0256904 0)
(-0.0210202 -0.0210002 0)
(-0.012955 -0.0155482 0)
(-0.00657294 -0.00980024 0)
(-0.00201518 -0.00425796 0)
(0.000749709 0.000577215 0)
(0.00192155 0.00421758 0)
(0.00184457 0.00618613 0)
(0.00101949 0.00599653 0)
(0.000247116 0.00311473 0)
(-0.00035659 0.00275622 0)
(-0.00233794 0.00814853 0)
(-0.00625596 0.0127782 0)
(-0.0112959 0.0165086 0)
(-0.0171377 0.019429 0)
(-0.0236037 0.0217151 0)
(-0.0305753 0.023554 0)
(-0.0379857 0.0250934 0)
(-0.0457964 0.0264141 0)
(-0.0539716 0.0275229 0)
(-0.0624591 0.0283594 0)
(-0.0711762 0.0288116 0)
(-0.0800027 0.0287353 0)
(-0.0887776 0.0279753 0)
(-0.0973016 0.0263857 0)
(-0.105343 0.023849 0)
(-0.112645 0.0202916 0)
(-0.118941 0.0156976 0)
(-0.123957 0.0101185 0)
(-0.127435 0.0036795 0)
(-0.129152 -0.00342025 0)
(-0.128911 -0.0109171 0)
(-0.126567 -0.0184729 0)
(-0.122061 -0.0257065 0)
(-0.115413 -0.0322066 0)
(-0.106746 -0.0375575 0)
(-0.0962934 -0.0413727 0)
(-0.0844095 -0.0433347 0)
(-0.0715633 -0.0432372 0)
(-0.0583213 -0.0410255 0)
(-0.0453107 -0.036826 0)
(-0.0331649 -0.030955 0)
(-0.0224559 -0.0239004 0)
(-0.013625 -0.0162778 0)
(-0.00692843 -0.00876924 0)
(-0.00240736 -0.00206552 0)
(0.000110536 0.00316728 0)
(0.000983768 0.00629103 0)
(0.000749198 0.00667456 0)
(0.000217139 0.00363935 0)
(-0.000440981 0.0041305 0)
(-0.00282056 0.0115475 0)
(-0.00746023 0.0176297 0)
(-0.0133638 0.0223968 0)
(-0.02015 0.0260767 0)
(-0.0276213 0.0289544 0)
(-0.035656 0.0312935 0)
(-0.0441955 0.0332853 0)
(-0.0532131 0.0350259 0)
(-0.0626834 0.0365137 0)
(-0.07256 0.0376627 0)
(-0.0827607 0.0383242 0)
(-0.0931591 0.0383121 0)
(-0.103582 0.0374291 0)
(-0.113814 0.0354914 0)
(-0.123598 0.0323504 0)
(-0.132648 0.0279109 0)
(-0.140661 0.0221469 0)
(-0.147322 0.0151112 0)
(-0.152325 0.00694249 0)
(-0.155395 -0.00212966 0)
(-0.156277 -0.0117784 0)
(-0.15476 -0.0216229 0)
(-0.150725 -0.0312003 0)
(-0.144126 -0.0400018 0)
(-0.135025 -0.0474982 0)
(-0.123609 -0.0531764 0)
(-0.110204 -0.0565862 0)
(-0.0952914 -0.057395 0)
(-0.0794932 -0.0554471 0)
(-0.0635463 -0.0508142 0)
(-0.0482436 -0.0438256 0)
(-0.0343498 -0.0350618 0)
(-0.022504 -0.0253051 0)
(-0.0131323 -0.0154573 0)
(-0.00639243 -0.0064487 0)
(-0.00216516 0.00082675 0)
(-8.48706e-05 0.00553224 0)
(0.000425465 0.00686852 0)
(0.000186626 0.00401241 0)
(-0.000522774 0.00576346 0)
(-0.00328461 0.0155285 0)
(-0.00861528 0.0232556 0)
(-0.0153473 0.0291731 0)
(-0.0230438 0.033687 0)
(-0.0314919 0.0372195 0)
(-0.040571 0.0401262 0)
(-0.050234 0.0426499 0)
(-0.0604693 0.0449027 0)
(-0.0712644 0.0468716 0)
(-0.0825812 0.0484396 0)
(-0.094339 0.0494151 0)
(-0.106406 0.0495636 0)
(-0.118598 0.0486394 0)
(-0.130678 0.0464139 0)
(-0.142365 0.0427009 0)
(-0.15334 0.0373776 0)
(-0.163262 0.0304012 0)
(-0.171777 0.021821 0)
(-0.17853 0.0117852 0)
(-0.183182 0.000549578 0)
(-0.185443 -0.0115137 0)
(-0.185053 -0.0239711 0)
(-0.181812 -0.036284 0)
(-0.175603 -0.047848 0)
(-0.166408 -0.0580165 0)
(-0.154337 -0.0661358 0)
(-0.139653 -0.0715958 0)
(-0.122803 -0.0738954 0)
(-0.104424 -0.0727218 0)
(-0.0853406 -0.0680308 0)
(-0.066505 -0.0601108 0)
(-0.0489093 -0.0496037 0)
(-0.0334527 -0.0374642 0)
(-0.0208071 -0.0248557 0)
(-0.0113151 -0.0130146 0)
(-0.00495615 -0.00313312 0)
(-0.00137617 0.00369654 0)
(4.88143e-05 0.0064723 0)
(0.000157963 0.00421227 0)
(-0.000599632 0.0076424 0)
(-0.00371751 0.0200602 0)
(-0.00969107 0.0296146 0)
(-0.0171968 0.0367935 0)
(-0.0257498 0.0422197 0)
(-0.0351266 0.0464779 0)
(-0.0452109 0.0500315 0)
(-0.0559697 0.0531808 0)
(-0.0674076 0.0560545 0)
(-0.079526 0.0586242 0)
(-0.0922944 0.0607362 0)
(-0.105633 0.0621484 0)
(-0.119402 0.0625706 0)
(-0.133401 0.061701 0)
(-0.147372 0.0592593 0)
(-0.161004 0.0550155 0)
(-0.173945 0.0488135 0)
(-0.185817 0.0405905 0)
(-0.196231 0.030391 0)
(-0.204798 0.0183741 0)
(-0.211144 0.00481705 0)
(-0.214945 -0.00988781 0)
(-0.215903 -0.0252341 0)
(-0.213762 -0.0406253 0)
(-0.208332 -0.0553748 0)
(-0.199503 -0.0687276 0)
(-0.187276 -0.0798897 0)
(-0.171801 -0.0880748 0)
(-0.153428 -0.0925758 0)
(-0.132742 -0.0928599 0)
(-0.110592 -0.0886847 0)
(-0.0880585 -0.0802098 0)
(-0.06637 -0.0680701 0)
(-0.0467448 -0.053368 0)
(-0.0301949 -0.0375621 0)
(-0.0173499 -0.0222753 0)
(-0.00836508 -0.00909787 0)
(-0.00293514 0.000535536 0)
(-0.000391981 0.0053646 0)
(0.00013027 0.0042145 0)
(-0.000668427 0.0097469 0)
(-0.00410391 0.0250955 0)
(-0.0106526 0.0366458 0)
(-0.0188558 0.0451935 0)
(-0.0281886 0.0516128 0)
(-0.0384211 0.0566744 0)
(-0.0494438 0.0609627 0)
(-0.0612377 0.0648412 0)
(-0.0738228 0.0684538 0)
(-0.087212 0.0717524 0)
(-0.101379 0.0745388 0)
(-0.116241 0.076513 0)
(-0.131645 0.0773202 0)
(-0.147371 0.0765948 0)
(-0.163131 0.0739983 0)
(-0.178583 0.0692523 0)
(-0.193343 0.0621664 0)
(-0.207006 0.0526594 0)
(-0.219162 0.0407747 0)
(-0.229411 0.0266858 0)
(-0.237376 0.010693 0)
(-0.24272 -0.00678291 0)
(-0.245138 -0.0251892 0)
(-0.24435 -0.043888 0)
(-0.240102 -0.0621347 0)
(-0.23219 -0.0790921 0)
(-0.220483 -0.0938464 0)
(-0.20497 -0.105441 0)
(-0.185829 -0.112939 0)
(-0.1635 -0.115531 0)
(-0.138755 -0.11268 0)
(-0.112718 -0.104293 0)
(-0.0868139 -0.0908744 0)
(-0.0626111 -0.0735962 0)
(-0.0415618 -0.0542111 0)
(-0.0247194 -0.0348129 0)
(-0.0125392 -0.0175233 0)
(-0.00483717 -0.00425091 0)
(-0.000922275 0.00339198 0)
(9.99491e-05 0.00398504 0)
(-0.00072545 0.0120472 0)
(-0.00442632 0.0305691 0)
(-0.0114606 0.0442668 0)
(-0.0202608 0.0542849 0)
(-0.0302709 0.0617785 0)
(-0.0412572 0.0677244 0)
(-0.0531166 0.0728387 0)
(-0.0658421 0.0775511 0)
(-0.0794653 0.0820192 0)
(-0.0940053 0.0861686 0)
(-0.109435 0.0897489 0)
(-0.125658 0.0923926 0)
(-0.142505 0.093672 0)
(-0.159726 0.0931506 0)
(-0.177001 0.0904272 0)
(-0.193957 0.0851753 0)
(-0.210183 0.0771749 0)
(-0.225259 0.0663365 0)
(-0.238776 0.0527141 0)
(-0.250356 0.0365062 0)
(-0.259654 0.0180451 0)
(-0.266358 -0.00221708 0)
(-0.270195 -0.0237137 0)
(-0.270896 -0.0457773 0)
(-0.268175 -0.0676481 0)
(-0.261746 -0.0884523 0)
(-0.251341 -0.107202 0)
(-0.236754 -0.122803 0)
(-0.217924 -0.134098 0)
(-0.19504 -0.139964 0)
(-0.16866 -0.139478 0)
(-0.139811 -0.132143 0)
(-0.110004 -0.118153 0)
(-0.081122 -0.0985853 0)
(-0.0551286 -0.0754132 0)
(-0.0336613 -0.0512595 0)
(-0.0176571 -0.028941 0)
(-0.00718312 -0.0110309 0)
(-0.00157847 0.000357846 0)
(6.20946e-05 0.00347427 0)
(-0.000766708 0.0145034 0)
(-0.00466615 0.0363963 0)
(-0.0120735 0.0523715 0)
(-0.0213448 0.0639534 0)
(-0.0319015 0.0726 0)
(-0.0435067 0.0795088 0)
(-0.0560614 0.0855356 0)
(-0.0695654 0.0911777 0)
(-0.0840551 0.0966024 0)
(-0.0995481 0.101702 0)
(-0.116007 0.106165 0)
(-0.133317 0.109547 0)
(-0.151279 0.11134 0)
(-0.16961 0.111031 0)
(-0.187956 0.108156 0)
(-0.205913 0.102347 0)
(-0.223056 0.0933679 0)
(-0.238969 0.0811379 0)
(-0.25327 0.0657425 0)
(-0.265631 0.0474229 0)
(-0.275777 0.0265537 0)
(-0.283475 0.00361599 0)
(-0.28851 -0.0208226 0)
(-0.290664 -0.0460968 0)
(-0.28967 -0.0714795 0)
(-0.285191 -0.0961198 0)
(-0.276844 -0.119024 0)
(-0.264224 -0.139027 0)
(-0.246988 -0.154801 0)
(-0.224982 -0.164915 0)
(-0.198411 -0.167999 0)
(-0.168015 -0.163008 0)
(-0.1352 -0.149591 0)
(-0.102028 -0.128469 0)
(-0.0709631 -0.101644 0)
(-0.0443703 -0.0722433 0)
(-0.0239032 -0.043944 0)
(-0.0100883 -0.020245 0)
(-0.00240513 -0.00398715 0)
(9.68972e-06 0.00261045 0)
(-0.000788308 0.0170648 0)
(-0.00480521 0.0424722 0)
(-0.0124506 0.0608297 0)
(-0.0220413 0.0740575 0)
(-0.032985 0.083929 0)
(-0.0450403 0.091871 0)
(-0.0581071 0.0988829 0)
(-0.0721843 0.105529 0)
(-0.0873041 0.111982 0)
(-0.103473 0.118093 0)
(-0.120635 0.12348 0)
(-0.138647 0.127614 0)
(-0.157275 0.129899 0)
(-0.176199 0.129746 0)
(-0.195033 0.126633 0)
(-0.21335 0.120164 0)
(-0.230726 0.110106 0)
(-0.246766 0.0964134 0)
(-0.261145 0.0792289 0)
(-0.273612 0.0588577 0)
(-0.283993 0.0357295 0)
(-0.292162 0.010355 0)
(-0.298 -0.0167007 0)
(-0.301384 -0.0448174 0)
(-0.302108 -0.0733414 0)
(-0.299836 -0.101511 0)
(-0.294116 -0.12841 0)
(-0.28438 -0.1529 0)
(-0.27001 -0.173572 0)
(-0.250467 -0.188756 0)
(-0.225483 -0.196636 0)
(-0.195321 -0.195513 0)
(-0.161031 -0.184259 0)
(-0.124599 -0.16289 0)
(-0.0888459 -0.133085 0)
(-0.0569153 -0.0982896 0)
(-0.0314272 -0.0631456 0)
(-0.0136667 -0.0323975 0)
(-0.00345093 -0.00995007 0)
(-6.60034e-05 0.00129582 0)
(-0.000786906 0.019671 0)
(-0.00482753 0.0486731 0)
(-0.0125555 0.0694877 0)
(-0.0222902 0.0844291 0)
(-0.0334341 0.0955861 0)
(-0.0457384 0.104617 0)
(-0.0590945 0.112664 0)
(-0.0734909 0.120357 0)
(-0.0889456 0.127867 0)
(-0.105445 0.134999 0)
(-0.122905 0.141292 0)
(-0.141149 0.146124 0)
(-0.159907 0.148813 0)
(-0.178824 0.148693 0)
(-0.197486 0.145198 0)
(-0.215462 0.137921 0)
(-0.232339 0.126659 0)
(-0.247771 0.111431 0)
(-0.261503 0.0924625 0)
(-0.273382 0.0701452 0)
(-0.283351 0.0449788 0)
(-0.291408 0.0175098 0)
(-0.297552 -0.0117085 0)
(-0.301782 -0.042126 0)
(-0.303989 -0.0731942 0)
(-0.303895 -0.104301 0)
(-0.30105 -0.134693 0)
(-0.294793 -0.163367 0)
(-0.284295 -0.188966 0)
(-0.268652 -0.209707 0)
(-0.247083 -0.223414 0)
(-0.219227 -0.227722 0)
(-0.185518 -0.220549 0)
(-0.147536 -0.200836 0)
(-0.108143 -0.169429 0)
(-0.0711415 -0.129673 0)
(-0.0402932 -0.0871009 0)
(-0.0180111 -0.0480277 0)
(-0.00476286 -0.0178879 0)
(-0.000174409 -0.000591228 0)
(-0.000760187 0.0222537 0)
(-0.00472129 0.0548594 0)
(-0.01236 0.0781716 0)
(-0.0220438 0.0948762 0)
(-0.0331782 0.107364 0)
(-0.045503 0.117517 0)
(-0.0588928 0.12662 0)
(-0.0733156 0.135362 0)
(-0.0887652 0.14391 0)
(-0.1052 0.152014 0)
(-0.122503 0.15913 0)
(-0.140464 0.164545 0)
(-0.15878 0.167486 0)
(-0.177069 0.167224 0)
(-0.194906 0.163164 0)
(-0.211868 0.15491 0)
(-0.227579 0.142317 0)
(-0.24175 0.125493 0)
(-0.254212 0.104771 0)
(-0.264915 0.0806499 0)
(-0.273915 0.0537095 0)
(-0.28133 0.0245406 0)
(-0.287284 -0.00631749 0)
(-0.291899 -0.0384038 0)
(-0.295179 -0.0712786 0)
(-0.296957 -0.104523 0)
(-0.296853 -0.137612 0)
(-0.294215 -0.169787 0)
(-0.288108 -0.199885 0)
(-0.277361 -0.226186 0)
(-0.260727 -0.246328 0)
(-0.237174 -0.257391 0)
(-0.206335 -0.25629 0)
(-0.169036 -0.240588 0)
(-0.127749 -0.209721 0)
(-0.0865825 -0.166245 0)
(-0.0504222 -0.116192 0)
(-0.0231676 -0.0676582 0)
(-0.0063762 -0.028191 0)
(-0.00032271 -0.00319699 0)
(-0.000707289 0.0247394 0)
(-0.00448068 0.0608801 0)
(-0.0118483 0.0866924 0)
(-0.0212731 0.105188 0)
(-0.0321722 0.119033 0)
(-0.0442701 0.130318 0)
(-0.0574161 0.140462 0)
(-0.0715483 0.150211 0)
(-0.0866281 0.159725 0)
(-0.102581 0.168696 0)
(-0.119258 0.176499 0)
(-0.136421 0.182327 0)
(-0.153741 0.185329 0)
(-0.170829 0.184724 0)
(-0.187267 0.179906 0)
(-0.20266 0.170516 0)
(-0.216683 0.156487 0)
(-0.22912 0.138041 0)
(-0.239888 0.115634 0)
(-0.249028 0.0898789 0)
(-0.256692 0.0614436 0)
(-0.263099 0.0309663 0)
(-0.268485 -0.00102061 0)
(-0.273059 -0.0341394 0)
(-0.276931 -0.0680568 0)
(-0.280083 -0.102557 0)
(-0.282261 -0.137382 0)
(-0.282914 -0.172086 0)
(-0.281135 -0.205834 0)
(-0.275639 -0.237162 0)
(-0.264847 -0.263757 0)
(-0.247132 -0.282376 0)
(-0.221264 -0.289056 0)
(-0.187068 -0.279861 0)
(-0.146161 -0.252302 0)
(-0.102421 -0.207268 0)
(-0.0615424 -0.150487 0)
(-0.0291137 -0.0917197 0)
(-0.00831371 -0.041254 0)
(-0.000519557 -0.00668599 0)
(-0.000629111 0.0270535 0)
(-0.00410732 0.0665801 0)
(-0.0110201 0.0948532 0)
(-0.0199725 0.115145 0)
(-0.0304035 0.130351 0)
(-0.0420187 0.142752 0)
(-0.0546353 0.153887 0)
(-0.0681533 0.164558 0)
(-0.0824972 0.174917 0)
(-0.0975588 0.184604 0)
(-0.113163 0.192913 0)
(-0.129051 0.198955 0)
(-0.144892 0.201812 0)
(-0.160306 0.200669 0)
(-0.174903 0.194927 0)
(-0.18834 0.184286 0)
(-0.200355 0.168774 0)
(-0.21081 0.148736 0)
(-0.219699 0.124757 0)
(-0.227139 0.0975637 0)
(-0.233343 0.0679077 0)
(-0.238595 0.0364697 0)
(-0.24321 0.00378506 0)
(-0.247443 -0.0297961 0)
(-0.251486 -0.0640777 0)
(-0.255464 -0.0990139 0)
(-0.259277 -0.134601 0)
(-0.26255 -0.170739 0)
(-0.264523 -0.207006 0)
(-0.263966 -0.242361 0)
(-0.25917 -0.2748 0)
(-0.248088 -0.30107 0)
(-0.228719 -0.316631 0)
(-0.199793 -0.31616 0)
(-0.16172 -0.294948 0)
(-0.117545 -0.251357 0)
(-0.0731637 -0.189604 0)
(-0.0357373 -0.12046 0)
(-0.0105758 -0.0574361 0)
(-0.000771236 -0.0112275 0)
(-0.000528445 0.0291248 0)
(-0.00361113 0.0718074 0)
(-0.00989265 0.102458 0)
(-0.0181642 0.124522 0)
(-0.0278971 0.141073 0)
(-0.0387775 0.154545 0)
(-0.0505853 0.166591 0)
(-0.063178 0.178062 0)
(-0.0764405 0.189108 0)
(-0.090235 0.199324 0)
(-0.104369 0.207937 0)
(-0.118582 0.213988 0)
(-0.132558 0.21651 0)
(-0.145949 0.21467 0)
(-0.158421 0.207898 0)
(-0.169693 0.195962 0)
(-0.179581 0.178998 0)
(-0.188021 0.157471 0)
(-0.19507 0.132089 0)
(-0.200895 0.103682 0)
(-0.205743 0.0730734 0)
(-0.209915 0.0409804 0)
(-0.213734 0.0079455 0)
(-0.217489 -0.0256869 0)
(-0.221434 -0.059825 0)
(-0.225775 -0.094547 0)
(-0.230567 -0.130062 0)
(-0.235643 -0.16659 0)
(-0.240476 -0.204153 0)
(-0.244041 -0.242247 0)
(-0.244706 -0.279401 0)
(-0.240245 -0.312696 0)
(-0.228098 -0.337425 0)
(-0.205987 -0.347226 0)
(-0.172959 -0.335204 0)
(-0.130718 -0.296564 0)
(-0.0846021 -0.232628 0)
(-0.0428267 -0.153854 0)
(-0.013137 -0.077016 0)
(-0.00108137 -0.0169862 0)
(-0.000409894 0.0308905 0)
(-0.00301046 0.0764224 0)
(-0.00850153 0.109321 0)
(-0.0158987 0.133108 0)
(-0.0247177 0.150962 0)
(-0.0346267 0.16544 0)
(-0.0453668 0.178287 0)
(-0.0567509 0.190408 0)
(-0.068626 0.201956 0)
(-0.0808307 0.212498 0)
(-0.0931677 0.221208 0)
(-0.105393 0.227081 0)
(-0.117226 0.229115 0)
(-0.128377 0.226482 0)
(-0.138579 0.21865 0)
(-0.147634 0.205467 0)
(-0.155435 0.18717 0)
(-0.161983 0.164336 0)
(-0.167384 0.137777 0)
(-0.17183 0.108407 0)
(-0.175567 0.0771045 0)
(-0.178877 0.0446172 0)
(-0.182052 0.0114948 0)
(-0.185373 -0.0219377 0)
(-0.189111 -0.0556152 0)
(-0.193515 -0.0896927 0)
(-0.198761 -0.124525 0)
(-0.204878 -0.160592 0)
(-0.211608 -0.198325 0)
(-0.218229 -0.237797 0)
(-0.223359 -0.278229 0)
(-0.224841 -0.317339 0)
(-0.219834 -0.350703 0)
(-0.205284 -0.371435 0)
(-0.178925 -0.370805 0)
(-0.140831 -0.34064 0)
(-0.0950719 -0.278132 0)
(-0.0500777 -0.19153 0)
(-0.0159457 -0.100149 0)
(-0.00145064 -0.0241082 0)
(-0.000279573 0.0323005 0)
(-0.00233136 0.080306 0)
(-0.00689994 0.115279 0)
(-0.0132547 0.140706 0)
(-0.0209684 0.159804 0)
(-0.0296959 0.175201 0)
(-0.0391414 0.18872 0)
(-0.0490744 0.201321 0)
(-0.0593077 0.213174 0)
(-0.0696646 0.223835 0)
(-0.0799561 0.23245 0)
(-0.0899715 0.237988 0)
(-0.099486 0.239436 0)
(-0.108283 0.235983 0)
(-0.116182 0.227149 0)
(-0.12307 0.212854 0)
(-0.128917 0.193427 0)
(-0.133779 0.169539 0)
(-0.137794 0.14208 0)
(-0.141152 0.112019 0)
(-0.144077 0.0802729 0)
(-0.146805 0.0476047 0)
(-0.149575 0.0145696 0)
(-0.152623 -0.0185114 0)
(-0.156195 -0.0515684 0)
(-0.160549 -0.0847772 0)
(-0.165933 -0.118564 0)
(-0.172528 -0.153577 0)
(-0.180329 -0.190581 0)
(-0.18895 -0.230193 0)
(-0.197376 -0.27239 0)
(-0.203722 -0.315756 0)
(-0.205153 -0.356561 0)
(-0.198145 -0.387977 0)
(-0.179341 -0.400033 0)
(-0.147139 -0.381397 0)
(-0.103833 -0.324332 0)
(-0.0571256 -0.232756 0)
(-0.0189275 -0.126837 0)
(-0.00187669 -0.0327077 0)
(-0.00014462 0.0333215 0)
(-0.00160623 0.0833686 0)
(-0.00515664 0.120197 0)
(-0.0103364 0.147155 0)
(-0.0167875 0.167411 0)
(-0.024159 0.183625 0)
(-0.0321235 0.197677 0)
(-0.0404114 0.210578 0)
(-0.0488064 0.222537 0)
(-0.0571248 0.233118 0)
(-0.0651978 0.241469 0)
(-0.0728617 0.246554 0)
(-0.0799623 0.247373 0)
(-0.0863693 0.243144 0)
(-0.0919964 0.233438 0)
(-0.0968165 0.218243 0)
(-0.10087 0.197961 0)
(-0.10426 0.173326 0)
(-0.107137 0.14528 0)
(-0.109677 0.11482 0)
(-0.112063 0.0828768 0)
(-0.114475 0.0502168 0)
(-0.117084 0.0173976 0)
(-0.120065 -0.0152508 0)
(-0.123615 -0.0476343 0)
(-0.127964 -0.0799054 0)
(-0.133383 -0.112492 0)
(-0.14015 -0.14612 0)
(-0.148455 -0.181779 0)
(-0.158226 -0.22054 0)
(-0.168854 -0.263117 0)
(-0.178867 -0.309075 0)
(-0.185677 -0.355709 0)
(-0.185618 -0.396807 0)
(-0.174556 -0.421877 0)
(-0.149375 -0.417017 0)
(-0.110343 -0.369326 0)
(-0.0636057 -0.276488 0)
(-0.0219952 -0.156918 0)
(-0.00235527 -0.0428583 0)
(-1.26933e-05 0.0339398 0)
(-0.000872008 0.0855563 0)
(-0.00335286 0.123982 0)
(-0.00726945 0.152327 0)
(-0.0123429 0.173638 0)
(-0.0182266 0.190553 0)
(-0.0245695 0.204989 0)
(-0.0310698 0.218012 0)
(-0.0374885 0.229881 0)
(-0.0436421 0.2402 0)
(-0.0493904 0.248142 0)
(-0.0546266 0.252697 0)
(-0.0592756 0.252892 0)
(-0.0633004 0.247986 0)
(-0.0667097 0.237598 0)
(-0.0695616 0.22177 0)
(-0.0719601 0.20095 0)
(-0.0740431 0.175911 0)
(-0.0759647 0.147611 0)
(-0.0778775 0.117055 0)
(-0.0799191 0.085164 0)
(-0.0822088 0.0526974 0)
(-0.0848533 0.0202113 0)
(-0.0879625 -0.0119496 0)
(-0.0916704 -0.0436553 0)
(-0.0961614 -0.0750064 0)
(-0.101688 -0.106381 0)
(-0.108561 -0.138503 0)
(-0.117095 -0.172473 0)
(-0.127464 -0.209693 0)
(-0.13944 -0.25152 0)
(-0.152025 -0.298511 0)
(-0.163057 -0.349195 0)
(-0.169017 -0.398448 0)
(-0.165352 -0.436008 0)
(-0.147717 -0.446224 0)
(-0.114346 -0.411342 0)
(-0.0692289 -0.321471 0)
(-0.0250662 -0.190092 0)
(-0.00288248 -0.0545927 0)
(0.000108157 0.0341631 0)
(-0.000168305 0.0868563 0)
(-0.0015786 0.126589 0)
(-0.00419589 0.156145 0)
(-0.00782631 0.178384 0)
(-0.0121378 0.195871 0)
(-0.0167663 0.210539 0)
(-0.0213876 0.223509 0)
(-0.0257468 0.235105 0)
(-0.0296662 0.244995 0)
(-0.0330392 0.252409 0)
(-0.0358202 0.256385 0)
(-0.0380164 0.255997 0)
(-0.0396845 0.250549 0)
(-0.0409259 0.239702 0)
(-0.0418787 0.223534 0)
(-0.0427037 0.202517 0)
(-0.0435669 0.177427 0)
(-0.044622 0.149218 0)
(-0.045996 0.118871 0)
(-0.047784 0.0872887 0)
(-0.0500523 0.0552106 0)
(-0.0528504 0.0231891 0)
(-0.0562303 -0.00841595 0)
(-0.0602666 -0.0394353 0)
(-0.065086 -0.0699054 0)
(-0.0708952 -0.100124 0)
(-0.0779905 -0.130753 0)
(-0.0867326 -0.162909 0)
(-0.0974519 -0.198186 0)
(-0.110229 -0.238443 0)
(-0.124528 -0.285152 0)
(-0.138713 -0.338148 0)
(-0.149646 -0.393754 0)
(-0.152697 -0.442619 0)
(-0.14265 -0.468296 0)
(-0.115873 -0.448918 0)
(-0.0738424 -0.366375 0)
(-0.0280927 -0.225963 0)
(-0.00345809 -0.0679164 0)
(0.000210209 0.0340197 0)
(0.000465154 0.0873011 0)
(7.13918e-05 0.128025 0)
(-0.00126972 0.158586 0)
(-0.0034472 0.181601 0)
(-0.00615237 0.199513 0)
(-0.00902067 0.21426 0)
(-0.0117195 0.227006 0)
(-0.0139843 0.238157 0)
(-0.0156474 0.247468 0)
(-0.0166381 0.254252 0)
(-0.0169716 0.257621 0)
(-0.016735 0.256708 0)
(-0.0160736 0.250868 0)
(-0.0151766 0.239795 0)
(-0.0142555 0.223585 0)
(-0.013523 0.202707 0)
(-0.0131707 0.177918 0)
(-0.0133521 0.150137 0)
(-0.0141741 0.120309 0)
(-0.015698 0.0892988 0)
(-0.0179491 0.0578243 0)
(-0.0209331 0.0264294 0)
(-0.0246576 -0.00451267 0)
(-0.0291468 -0.0347944 0)
(-0.0344692 -0.064392 0)
(-0.0407729 -0.0935106 0)
(-0.0483053 -0.122718 0)
(-0.0574092 -0.153076 0)
(-0.0684801 -0.186247 0)
(-0.0818071 -0.224426 0)
(-0.0972464 -0.269846 0)
(-0.113714 -0.323611 0)
(-0.128613 -0.383696 0)
(-0.137541 -0.442241 0)
(-0.134791 -0.48297 0)
(-0.11515 -0.480963 0)
(-0.0774404 -0.409925 0)
(-0.0311015 -0.26408 0)
(-0.00409272 -0.0828353 0)
(0.000287162 0.0335619 0)
(0.000988931 0.0869756 0)
(0.00150114 0.128354 0)
(0.00135035 0.15968 0)
(0.000570793 0.183282 0)
(-0.000545905 0.20147 0)
(-0.00164988 0.216132 0)
(-0.00242599 0.228487 0)
(-0.00260136 0.239031 0)
(-0.00202407 0.247627 0)
(-0.000657108 0.253692 0)
(0.00142556 0.256431 0)
(0.00406281 0.255053 0)
(0.00702961 0.248964 0)
(0.0100571 0.237886 0)
(0.0128668 0.221915 0)
(0.0151985 0.201494 0)
(0.0168343 0.177339 0)
(0.0176146 0.150313 0)
(0.0174425 0.121309 0)
(0.0162775 0.0911474 0)
(0.0141207 0.0605161 0)
(0.0109959 0.0299485 0)
(0.00692717 -0.000172476 0)
(0.00192417 -0.0296053 0)
(-0.00402861 -0.0582718 0)
(-0.0110173 -0.0863033 0)
(-0.0192251 -0.11416 0)
(-0.0289292 -0.142802 0)
(-0.0405125 -0.173865 0)
(-0.0543668 -0.209722 0)
(-0.0706385 -0.25317 0)
(-0.0887527 -0.306442 0)
(-0.106743 -0.36922 0)
(-0.120684 -0.43557 0)
(-0.124747 -0.490307 0)
(-0.112491 -0.506716 0)
(-0.0801192 -0.450972 0)
(-0.0342063 -0.303965 0)
(-0.00482718 -0.099403 0)
(0.000334264 0.0328623 0)
(0.00136096 0.0860119 0)
(0.00260211 0.127709 0)
(0.00348839 0.159526 0)
(0.0040113 0.183495 0)
(0.00441291 0.201772 0)
(0.00501625 0.216173 0)
(0.0061333 0.22797 0)
(0.00801469 0.237754 0)
(0.0107913 0.245506 0)
(0.0144648 0.250768 0)
(0.0189125 0.252853 0)
(0.02391 0.251058 0)
(0.0291602 0.244844 0)
(0.0343258 0.233955 0)
(0.0390681 0.218472 0)
(0.0430807 0.198797 0)
(0.046116 0.175583 0)
(0.0479998 0.149623 0)
(0.0486332 0.121743 0)
(0.0479818 0.0927137 0)
(0.0460579 0.0631896 0)
(0.0428997 0.0336909 0)
(0.0385523 0.00460497 0)
(0.0330505 -0.0238052 0)
(0.0264088 -0.0514175 0)
(0.0185993 -0.0783052 0)
(0.00951899 -0.104832 0)
(-0.00102395 -0.131844 0)
(-0.0133432 -0.160889 0)
(-0.0278403 -0.194377 0)
(-0.0448362 -0.235463 0)
(-0.064179 -0.287288 0)
(-0.0845517 -0.351163 0)
(-0.10269 -0.423345 0)
(-0.112995 -0.490558 0)
(-0.108188 -0.525656 0)
(-0.0820129 -0.488481 0)
(-0.0376045 -0.345139 0)
(-0.00575282 -0.117783 0)
(0.00034525 0.032013 0)
(0.00154057 0.0845912 0)
(0.00326994 0.126287 0)
(0.00497399 0.158293 0)
(0.00662576 0.182366 0)
(0.00842705 0.200488 0)
(0.0106611 0.214433 0)
(0.0136111 0.2255 0)
(0.0174943 0.234372 0)
(0.0224115 0.241157 0)
(0.0283285 0.245534 0)
(0.0350793 0.246935 0)
(0.0423868 0.244755 0)
(0.049895 0.238512 0)
(0.0572085 0.227969 0)
(0.0639355 0.213182 0)
(0.0697251 0.194502 0)
(0.074296 0.172501 0)
(0.0774504 0.147894 0)
(0.0790745 0.121431 0)
(0.0791262 0.0938249 0)
(0.077615 0.0656929 0)
(0.0745806 0.0375388 0)
(0.0700754 0.0097491 0)
(0.064147 -0.0174033 0)
(0.056837 -0.0437764 0)
(0.0481651 -0.0693915 0)
(0.0381011 -0.0945444 0)
(0.026546 -0.119978 0)
(0.0132892 -0.14712 0)
(-0.00200698 -0.178317 0)
(-0.0197321 -0.216885 0)
(-0.0400473 -0.26661 0)
(-0.0622476 -0.330227 0)
(-0.0838496 -0.406278 0)
(-0.0998019 -0.484061 0)
(-0.102407 -0.537402 0)
(-0.0832091 -0.521471 0)
(-0.0415423 -0.387087 0)
(-0.00702808 -0.138315 0)
(0.000311582 0.0311292 0)
(0.00147884 0.0829515 0)
(0.00338502 0.124352 0)
(0.00561426 0.156208 0)
(0.00816299 0.180059 0)
(0.0112024 0.197745 0)
(0.0149623 0.210998 0)
(0.0196703 0.221142 0)
(0.0254926 0.228947 0)
(0.032487 0.234648 0)
(0.0405799 0.238058 0)
(0.0495654 0.23874 0)
(0.059124 0.236188 0)
(0.0688538 0.229981 0)
(0.0783134 0.219898 0)
(0.0870659 0.205971 0)
(0.0947189 0.188486 0)
(0.100955 0.167935 0)
(0.105544 0.144941 0)
(0.108348 0.120173 0)
(0.109303 0.0942795 0)
(0.108404 0.0678368 0)
(0.105682 0.0413248 0)
(0.101188 0.0151224 0)
(0.0949686 -0.0104953 0)
(0.0870903 -0.0353832 0)
(0.0776139 -0.0595356 0)
(0.0665686 -0.0832068 0)
(0.0539459 -0.10706 0)
(0.0396496 -0.132399 0)
(0.0234449 -0.161443 0)
(0.00496144 -0.197501 0)
(-0.0161591 -0.244737 0)
(-0.0397486 -0.306998 0)
(-0.0641618 -0.385025 0)
(-0.0851667 -0.471177 0)
(-0.0950927 -0.541626 0)
(-0.083651 -0.548933 0)
(-0.046231 -0.429173 0)
(-0.00888373 -0.161558 0)
(0.000219508 0.0303552 0)
(0.00110745 0.0813979 0)
(0.00279675 0.122242 0)
(0.00518582 0.153564 0)
(0.00834965 0.176793 0)
(0.012435 0.193692 0)
(0.0176005 0.205966 0)
(0.0239905 0.214967 0)
(0.0316949 0.221544 0)
(0.0407107 0.226044 0)
(0.0509164 0.228412 0)
(0.0620679 0.228336 0)
(0.0738112 0.22541 0)
(0.0857114 0.219277 0)