/*--------------------------------*- C++ -*----------------------------------*\
| =========                 |                                                 |
| \\      /  F ield         | OpenFOAM: The Open Source CFD Toolbox           |
|  \\    /   O peration     | Version:  2.4.0                                 |
|   \\  /    A nd           | Web:      www.OpenFOAM.org                      |
|    \\/     M anipulation  |                                                 |
\*---------------------------------------------------------------------------*/
FoamFile
{
    version     2.0;
    format      ascii;
    class       volScalarField;
    location    "0.05";
    object      T;
}
// * * * * * * * * * * * * * * * * * * * * * * * * * * * * * * * * * * * * * //

dimensions      [0 0 0 1 0 0 0];

internalField   nonuniform List<scalar> 
1600
(
96.9068
90.7458
84.6609
78.702
72.9176
67.3548
62.0583
57.0706
52.4317
48.1789
44.3467
40.9673
38.0704
35.6837
33.8328
32.5418
31.8332
31.7285
32.2476
33.4095
35.2318
37.7307
40.9202
44.8124
49.4161
54.737
60.7761
67.5299
74.9888
83.1371
91.952
101.403
111.452
122.052
133.15
144.683
156.583
168.775
181.179
193.712
96.9067
90.7454
84.6602
78.701
72.9163
67.3532
62.0564
57.0686
52.4296
48.1768
44.3448
40.9658
38.0695
35.6835
33.8335
32.5436
31.8364
31.733
32.2537
33.4173
35.2413
37.7418
40.9328
44.8263
49.4312
54.7528
60.7923
67.5462
75.0048
83.1525
91.9663
101.416
111.463
122.062
133.158
144.69
156.589
168.779
181.181
193.713
96.9064
90.7446
84.6589
78.6991
72.9139
67.3503
62.0532
57.0651
52.4261
48.1734
44.3418
40.9635
38.0682
35.6836
33.8354
32.5476
31.8428
31.7422
32.2658
33.4325
35.2596
37.7632
40.9572
44.8534
49.4604
54.7837
60.8244
67.5786
75.0369
83.1835
91.9956
101.443
111.488
122.083
133.176
144.705
156.6
168.787
181.186
193.714
96.9061
90.7436
84.6572
78.6967
72.9108
67.3466
62.049
57.0607
52.4217
48.1693
44.3384
40.9612
38.0674
35.6847
33.839
32.5541
31.8526
31.7557
32.2834
33.4544
35.286
37.794
40.9922
44.8922
49.5026
54.8285
60.8709
67.6259
75.084
83.2293
92.0392
101.484
111.524
122.116
133.204
144.727
156.617
168.799
181.194
193.717
96.9057
90.7425
84.6554
78.6942
72.9076
67.3428
62.0449
57.0564
52.4174
48.1656
44.3355
40.9596
38.0678
35.6876
33.8448
32.5635
31.8662
31.7739
32.3067
33.4831
35.3202
37.8337
41.0373
44.9423
49.557
54.8865
60.9314
67.6877
75.1457
83.2897
92.097
101.537
111.573
122.159
133.241
144.758
156.641
168.816
181.204
193.72
96.9054
90.7415
84.6538
78.6919
72.9047
67.3395
62.0412
57.0526
52.414
48.1627
44.3338
40.9596
38.0699
35.6926
33.8533
32.5761
31.8836
31.7967
32.3353
33.5179
35.3616
37.8817
41.0917
45.0026
49.6227
54.9566
61.0047
67.7629
75.2213
83.3639
92.1682
101.604
111.634
122.213
133.287
144.796
156.671
168.837
181.216
193.724
96.9052
90.7408
84.6526
78.6903
72.9027
67.3371
62.0387
57.0503
52.4121
48.1617
44.3342
40.9618
38.0747
35.7005
33.865
32.5924
31.905
31.8241
32.3691
33.5587
35.4096
37.937
41.1543
45.0722
49.6985
55.0376
61.0898
67.8504
75.3095
83.4509
92.2521
101.683
111.707
122.277
133.342
144.841
156.706
168.863
181.231
193.729
96.9052
90.7406
84.6523
78.6898
72.9021
67.3365
62.0382
57.0502
52.4128
48.1635
44.3376
40.9673
38.0829
35.712
33.8807
32.6128
31.931
31.8562
32.4081
33.605
35.4637
37.9991
41.2243
45.1497
49.783
55.1282
61.185
67.9487
75.409
83.5494
92.3474
101.773
111.789
122.351
133.406
144.894
156.747
168.892
181.249
193.735
96.9054
90.7411
84.6531
78.6909
72.9036
67.3384
62.0407
57.0535
52.4171
48.1692
44.3451
40.9772
38.0956
35.7283
33.9011
32.6382
31.9619
31.8934
32.4523
33.6567
35.5233
38.0669
41.3003
45.2338
49.8746
55.2263
61.2885
68.0559
75.5178
83.6577
92.4527
101.873
111.881
122.433
133.477
144.952
156.793
168.924
181.268
193.742
96.9059
90.7426
84.6556
78.6944
72.9079
67.3437
62.0471
57.0611
52.4261
48.18
44.358
40.9926
38.114
35.7503
33.9273
32.6691
31.9984
31.9361
32.5017
33.7134
35.5877
38.1394
41.381
45.3226
49.971
55.3297
61.3978
68.1694
75.6336
83.7735
92.5658
101.981
111.981
122.523
133.555
145.017
156.843
168.96
181.29
193.749
96.9068
90.7453
84.6601
78.7006
72.9159
67.3534
62.0585
57.0743
52.4413
48.1973
44.3776
41.0149
38.1395
35.7793
33.9604
32.7068
32.0412
31.9846
32.5564
33.7749
35.6564
38.2155
41.4649
45.4142
50.0702
55.4359
61.51
68.2863
75.7535
83.894
92.6844
102.094
112.087
122.619
133.638
145.086
156.897
168.999
181.313
193.756
96.9083
90.7496
84.6673
78.7105
72.9284
67.3684
62.0761
57.0943
52.4638
48.2225
44.4056
41.0458
38.1736
35.8169
34.0017
32.7524
32.0914
32.0397
32.617
33.8412
35.7289
38.2945
41.5506
45.5069
50.1697
55.542
61.6221
68.4035
75.8741
84.016
92.8054
102.211
112.197
122.719
133.725
145.159
156.954
169.039
181.337
193.764
96.9104
90.7558
84.6775
78.7246
72.9463
67.3899
62.1011
57.1227
52.4955
48.2573
44.4436
41.087
38.218
35.8647
34.053
32.8073
32.1501
32.1025
32.684
33.9127
35.8052
38.3759
41.6373
45.5991
50.2678
55.6458
61.7314
68.5177
75.9921
84.1362
92.9255
102.329
112.309
122.821
133.815
145.234
157.013
169.082
181.363
193.773
96.9132
90.7642
84.6914
78.7438
72.9706
67.4192
62.1349
57.161
52.5379
48.3036
44.4936
41.1405
38.2749
35.9247
34.1161
32.8734
32.2191
32.1743
32.7587
33.9903
35.8858
38.4597
41.7246
45.6902
50.363
55.7455
61.8356
68.6263
76.1045
84.2514
93.0415
102.443
112.419
122.923
133.906
145.311
157.074
169.126
181.389
193.782
96.9169
90.7752
84.7096
78.769
73.0025
67.4575
62.1792
57.2108
52.5929
48.3634
44.5577
41.2085
38.3463
35.9992
34.1932
32.9527
32.3003
32.2571
32.8427
34.0755
35.972
38.547
41.8132
45.7805
50.4553
55.8404
61.9336
68.7276
76.2092
84.3589
93.1507
102.552
112.525
123.023
133.996
145.388
157.136
169.17
181.416
193.79
96.9216
90.7893
84.7329
78.8012
73.0432
67.5063
62.2356
57.2742
52.6627
48.4389
44.6383
41.2934
38.4349
36.0906
34.2869
33.0478
32.3962
32.3532
32.9384
34.1704
36.0658
38.6397
41.9048
45.8713
50.5459
55.9314
62.0257
68.8215
76.3054
84.4575
93.2512
102.653
112.624
123.118
134.083
145.464
157.196
169.214
181.443
193.799
96.9275
90.8069
84.7619
78.8414
73.0941
67.5672
62.3059
57.3532
52.7494
48.5326
44.7378
41.3979
38.5433
36.2019
34.3999
33.1616
32.5098
32.4655
33.0488
34.278
36.1703
38.7407
42.0023
45.9655
50.6373
56.0206
62.1138
68.9094
76.394
84.5475
93.3427
102.746
112.716
123.207
134.166
145.537
157.256
169.258
181.469
193.808
96.9347
90.8285
84.7976
78.8907
73.1565
67.642
62.3922
57.45
52.8556
48.647
44.8592
41.525
38.6746
36.3361
34.5356
33.2975
32.6443
32.5976
33.1773
34.4021
36.2891
38.8538
42.1095
46.0669
50.7333
56.1119
62.2013
68.9944
76.4776
84.6308
93.4265
102.83
112.8
123.29
134.244
145.607
157.314
169.301
181.495
193.816
96.9434
90.8546
84.8408
78.9505
73.2322
67.7326
62.4967
57.5671
52.984
48.7852
45.0056
41.6779
38.8323
36.4969
34.6977
33.4591
32.8039
32.7536
33.3283
34.5468
36.4267
38.9837
42.2312
46.1804
50.8389
56.2102
62.2932
69.0811
76.5605
84.7112
93.5057
102.909
112.879
123.366
134.318
145.673
157.37
169.343
181.521
193.825
96.9539
90.886
84.8927
79.0223
73.3229
67.8412
62.6218
57.7073
53.1376
48.9503
45.1803
41.8603
39.0202
36.6881
34.8902
33.6508
32.9929
32.938
33.5064
34.7174
36.5885
39.1357
42.373
46.3117
50.9599
56.3213
62.3953
69.1752
76.6481
84.7938
93.5848
102.986
112.954
123.44
134.388
145.737
157.425
169.385
181.547
193.833
96.9663
90.9233
84.9543
79.1075
73.4306
67.9701
62.7704
57.8736
53.3197
49.146
45.3873
42.0761
39.2424
36.9143
35.1178
33.8775
33.2163
33.156
33.7172
34.9192
36.78
39.3158
42.541
46.4672
51.1027
56.4519
62.5142
69.2834
76.7469
84.8849
93.6696
103.066
113.03
123.513
134.457
145.801
157.48
169.427
181.574
193.842
96.981
90.9674
85.027
79.2081
73.5578
68.1222
62.9455
58.0696
53.5341
49.3763
45.6309
42.33
39.5038
37.1803
35.3856
34.1443
33.4796
33.4133
33.9664
35.1584
37.0076
39.5305
42.7419
46.6536
51.2744
56.6089
62.657
69.4129
76.8641
84.9912
93.7668
103.155
113.114
123.59
134.529
145.866
157.536
169.471
181.602
193.851
96.9983
91.0191
85.1125
79.3261
73.707
68.3006
63.1507
58.2991
53.7852
49.6459
45.9157
42.627
39.8096
37.4917
35.6993
34.4572
33.7888
33.7163
34.2605
35.4416
37.278
39.7867
42.9827
46.8781
51.4822
56.7999
62.8313
69.5711
77.0071
85.1203
93.8834
103.261
113.21
123.678
134.608
145.937
157.596
169.517
181.632
193.861
97.0186
91.0796
85.2124
79.4641
73.8812
68.5087
63.3901
58.5667
54.0777
49.9597
46.2474
42.9727
40.1657
37.8544
36.0651
34.8227
34.1507
34.0715
34.6065
35.7759
37.5986
40.0918
43.2709
47.1484
51.7338
57.0325
63.0449
69.7659
77.1839
85.2799
94.0271
103.39
113.326
123.782
134.701
146.018
157.664
169.57
181.665
193.872
97.0422
91.1503
85.329
79.625
74.0841
68.7509
63.6683
58.8774
54.417
50.3237
46.6319
43.3735
40.5785
38.2752
36.4899
35.2477
34.5724
34.4865
35.0119
36.1689
37.9769
40.4535
43.6144
47.4724
52.0373
57.3149
63.306
70.0056
77.4026
85.4782
94.2058
103.551
113.469
123.909
134.813
146.114
157.743
169.63
181.704
193.885
97.0697
91.2325
85.4646
79.812
74.3197
69.0319
63.9908
59.2371
54.8095
50.7444
47.0759
43.8362
41.0553
38.7614
36.9811
35.7398
35.0615
34.969
35.4845
36.6287
38.4213
40.8802
44.0215
47.8585
52.4012
57.6556
63.623
70.2986
77.6716
85.7234
94.4278
103.75
113.647
124.066
134.949
146.23
157.838
169.701
181.75
193.9
97.1018
91.3281
85.6222
80.0291
74.593
69.3572
64.3636
59.6525
55.2621
51.2289
47.587
44.3685
41.6037
39.3208
37.5468
36.3072
35.6262
35.5273
36.0328
37.1637
38.9402
41.3805
44.5011
48.3155
52.8342
58.0635
64.0048
70.6538
77.9997
86.0243
94.7016
103.997
113.867
124.261
135.118
146.372
157.953
169.787
181.804
193.918
97.1391
91.4393
85.8053
80.281
74.9096
69.7334
64.794
60.131
55.7828
51.7856
48.1736
44.979
42.2323
39.962
38.1954
36.9583
36.2754
36.1702
36.6655
37.7829
39.5426
41.9635
45.0622
48.8527
53.3457
58.5478
64.4607
71.0804
78.3962
86.3901
95.0361
104.3
114.139
124.5
135.325
146.547
158.094
169.892
181.87
193.94
97.1826
91.5689
86.0184
80.5735
75.2762
70.1682
65.2901
60.6816
56.3806
52.4235
48.8447
45.6767
42.9502
40.6942
38.9362
37.7024
37.0179
36.9067
37.3919
38.4954
40.2379
42.6385
45.7142
49.4794
53.9451
59.1182
65.0005
71.5882
78.8708
86.8303
95.4409
104.668
114.47
124.793
135.579
146.76
158.265
170.019
181.95
193.967
97.2333
91.72
86.2665
80.9133
75.7012
70.6706
65.8618
61.3141
57.0655
53.1527
49.6104
46.4715
43.7672
41.5268
39.7785
38.5488
37.8632
37.7462
38.2212
39.3106
41.0354
43.415
46.4669
50.2056
54.6425
59.7847
65.6342
72.1873
79.4335
87.3551
95.926
105.112
114.87
125.149
135.888
147.02
158.474
170.174
182.046
193.999
97.2929
91.8968
86.5562
81.309
76.1942
71.2513
66.5201
62.0398
57.8489
53.9844
50.4816
47.3741
44.6936
42.4701
40.7323
39.5072
38.8208
38.6981
39.1629
40.238
41.9446
44.3028
47.33
51.0412
55.4479
60.5575
66.3722
72.8882
80.0952
87.9752
96.5023
105.642
115.351
125.578
136.262
147.336
158.728
170.362
182.162
194.039
97.363
92.1048
86.896
81.7712
76.7674
71.9232
67.2781
62.8718
58.7435
54.9308
51.4701
48.3956
45.7401
43.5344
41.8075
40.5873
39.9004
39.772
40.2265
41.287
42.9752
45.3113
48.3132
51.996
56.3715
61.4471
67.2251
73.7019
80.867
88.7023
97.1815
106.27
115.924
126.091
136.712
147.717
159.035
170.59
182.303
194.087
97.4462
92.351
87.2967
82.3134
77.4356
72.7016
68.1511
63.8249
59.7632
56.0051
52.5882
49.5479
46.918
44.7301
43.0143
41.799
41.1113
40.9771
41.4211
42.4668
44.1364
46.4501
49.4262
53.08
57.4234
62.464
68.204
74.6398
81.7607
89.5485
97.9765
107.009
116.603
126.704
137.252
148.178
159.407
170.866
182.473
194.146
97.5462
92.6457
87.7733
82.953
78.2176
73.6051
69.157
64.9157
60.9235
57.2216
53.849
50.8429
48.2383
46.0678
44.3625
43.1515
42.4626
42.3222
42.7555
43.7863
45.437
47.7282
50.6782
54.3027
58.6136
63.6185
69.3197
75.7134
82.7888
90.5272
98.9015
107.876
117.404
127.433
137.9
148.735
159.861
171.204
182.683
194.22
97.6683
93.0033
88.3464
83.7135
79.1368
74.6563
70.3164
66.1629
62.2412
58.595
55.2659
52.2927
49.7119
47.5576
45.8616
44.6539
43.9631
43.8159
44.2379
45.2535
46.8852
49.1539
52.0781
55.6734
59.9518
64.9211
70.5834
76.9349
83.9644
91.6529
99.9724
108.886
118.347
128.299
138.678
149.41
160.418
171.624
182.945
194.314
97.8212
93.4471
89.046
84.6265
80.2234
75.8821
71.6529
67.5869
63.7337
60.1407
56.8521
53.909
51.3495
49.2089
47.5202
46.3143
45.6203
45.4654
45.8758
46.876
48.4888
50.7353
53.6341
57.2008
61.4478
66.3824
72.0069
78.3174
85.3022
92.942
101.208
110.062
119.455
129.329
139.615
150.237
161.109
172.154
183.278
194.435
98.0213
94.0156
89.9172
85.7348
81.5147
77.314
73.1926
69.209
65.4188
61.8734
58.6201
55.7024
53.1601
51.03
49.346
48.1397
47.441
47.2775
47.6758
48.6606
50.255
52.4801
55.3547
58.8945
63.1118
68.014
73.6034
79.8757
86.8191
94.4137
102.63
111.428
120.758
130.557
140.752
151.259
161.983
172.838
183.713
194.592
98.3
94.7758
91.0264
87.0941
83.0548
78.9859
74.9612
71.0491
67.3117
63.8049
60.5793
57.6807
55.1504
53.0265
51.344
50.1352
49.4302
49.2575
49.6436
50.6136
52.1908
54.3963
57.2491
60.765
64.9561
69.83
75.3888
81.628
88.5358
96.0917
104.265
113.016
122.291
132.026
142.139
152.538
163.112
173.753
184.311
194.815
98.7705
95.8497
92.4602
88.7661
84.8862
80.9261
76.9773
73.119
69.4197
65.9397
62.7323
59.8451
57.3212
55.1993
53.5154
52.3022
51.5903
51.4085
51.7836
52.7408
54.3035
56.493
59.3283
62.8252
66.9958
71.8477
77.3829
83.597
90.4778
98.0045
106.146
114.862
124.096
133.781
143.833
154.148
164.595
175.031
185.221
195.217
99.6389
97.4803
94.3878
90.8539
87.0702
83.1698
79.2596
75.4271
71.7451
68.2764
65.0758
62.1921
59.6689
57.5457
55.8587
54.641
53.9235
53.735
54.1025
55.0512
56.6047
58.7842
61.6088
65.0942
69.2526
74.0916
79.6132
85.8127
92.678
100.188
108.311
117.005
126.215
135.871
145.885
156.151
166.523
176.837
186.767
196.231
)
;

boundaryField
{
    carasuperior
    {
        type            fixedGradient;
        gradient        uniform 100;
    }
    lateralizquierda
    {
        type            fixedValue;
        value           uniform 100;
    }
    lateralderecha
    {
        type            fixedValue;
        value           uniform 200;
    }
    carainferior
    {
        type            zeroGradient;
    }
    frontAndBack
    {
        type            empty;
    }
}


// ************************************************************************* //
