/*--------------------------------*- C++ -*----------------------------------*\
| =========                 |                                                 |
| \\      /  F ield         | OpenFOAM: The Open Source CFD Toolbox           |
|  \\    /   O peration     | Version:  2.4.0                                 |
|   \\  /    A nd           | Web:      www.OpenFOAM.org                      |
|    \\/     M anipulation  |                                                 |
\*---------------------------------------------------------------------------*/
FoamFile
{
    version     2.0;
    format      ascii;
    class       volScalarField;
    location    "1.045";
    object      T;
}
// * * * * * * * * * * * * * * * * * * * * * * * * * * * * * * * * * * * * * //

dimensions      [0 0 0 1 0 0 0];

internalField   nonuniform List<scalar> 
1600
(
101.414
104.24
107.065
109.884
112.697
115.503
118.298
121.082
123.852
126.607
129.345
132.065
134.765
137.444
140.101
142.734
145.342
147.925
150.482
153.012
155.514
157.99
160.439
162.861
165.257
167.628
169.974
172.297
174.597
176.877
179.138
181.381
183.609
185.823
188.025
190.216
192.399
194.575
196.747
198.916
101.415
104.243
107.069
109.89
112.706
115.513
118.31
121.095
123.867
126.624
129.364
132.085
134.787
137.467
140.124
142.758
145.367
147.951
150.508
153.038
155.541
158.017
160.465
162.887
165.282
167.652
169.997
172.318
174.617
176.896
179.155
181.397
183.623
185.835
188.035
190.225
192.406
194.58
196.75
198.917
101.416
104.248
107.078
109.903
112.722
115.532
118.333
121.121
123.896
126.656
129.399
132.123
134.828
137.51
140.17
142.806
145.416
148.001
150.559
153.09
155.593
158.069
160.517
162.938
165.332
167.7
170.043
172.362
174.659
176.934
179.191
181.429
183.652
185.86
188.056
190.242
192.419
194.59
196.756
198.919
101.419
104.256
107.091
109.921
112.745
115.561
118.367
121.16
123.94
126.705
129.452
132.18
134.888
137.574
140.237
142.876
145.489
148.075
150.635
153.167
155.67
158.146
160.593
163.013
165.405
167.771
170.111
172.427
174.72
176.992
179.243
181.477
183.694
185.897
188.088
190.268
192.44
194.604
196.764
198.922
101.423
104.267
107.109
109.946
112.777
115.599
118.412
121.212
123.998
126.768
129.521
132.255
134.968
137.658
140.325
142.968
145.584
148.173
150.734
153.267
155.772
158.247
160.694
163.112
165.502
167.865
170.202
172.514
174.802
177.068
179.314
181.541
183.751
185.947
188.13
190.303
192.467
194.624
196.776
198.926
101.427
104.28
107.131
109.977
112.816
115.647
118.467
121.275
124.069
126.847
129.607
132.347
135.066
137.762
140.434
143.081
145.701
148.293
150.857
153.392
155.897
158.372
160.818
163.235
165.623
167.982
170.315
172.621
174.904
177.163
179.401
181.62
183.823
186.01
188.184
190.347
192.501
194.649
196.791
198.931
101.432
104.296
107.157
110.013
112.863
115.704
118.534
121.351
124.154
126.941
129.709
132.457
135.183
137.886
140.564
143.215
145.84
148.436
151.002
153.539
156.046
158.521
160.966
163.381
165.766
168.122
170.449
172.75
175.025
177.277
179.506
181.716
183.908
186.085
188.248
190.4
192.542
194.678
196.809
198.937
101.438
104.314
107.187
110.055
112.917
115.769
118.611
121.439
124.253
127.049
129.827
132.583
135.318
138.028
140.713
143.371
146
148.6
151.17
153.709
156.217
158.693
161.137
163.55
165.931
168.283
170.605
172.899
175.167
177.409
179.629
181.828
184.009
186.173
188.323
190.462
192.591
194.713
196.83
198.944
101.445
104.335
107.222
110.104
112.978
115.844
118.698
121.539
124.364
127.172
129.96
132.727
135.471
138.189
140.882
143.546
146.181
148.786
151.36
153.901
156.41
158.887
161.33
163.741
166.119
168.466
170.782
173.068
175.327
177.56
179.769
181.956
184.123
186.273
188.409
190.532
192.646
194.752
196.853
198.952
101.453
104.358
107.261
110.158
113.048
115.928
118.797
121.651
124.49
127.31
130.11
132.888
135.641
138.369
141.07
143.741
146.383
148.993
151.57
154.115
156.626
159.102
161.544
163.953
166.327
168.669
170.979
173.258
175.507
177.729
179.926
182.099
184.252
186.387
188.506
190.612
192.709
194.797
196.881
198.96
101.462
104.384
107.304
110.218
113.125
116.021
118.906
121.776
124.628
127.462
130.275
133.065
135.83
138.568
141.277
143.957
146.605
149.22
151.802
154.349
156.862
159.339
161.78
164.186
166.556
168.893
171.196
173.466
175.706
177.916
180.1
182.259
184.395
186.513
188.614
190.702
192.779
194.847
196.911
198.971
101.471
104.413
107.352
110.285
113.21
116.124
119.026
121.913
124.781
127.63
130.457
133.26
136.037
138.785
141.504
144.192
146.847
149.468
152.054
154.605
157.118
159.595
162.036
164.439
166.805
169.136
171.431
173.693
175.922
178.12
180.29
182.433
184.553
186.652
188.734
190.801
192.856
194.903
196.944
198.982
101.482
104.445
107.404
110.358
113.303
116.238
119.158
122.063
124.949
127.814
130.656
133.473
136.262
139.022
141.751
144.448
147.11
149.737
152.327
154.881
157.396
159.873
162.311
164.712
167.074
169.398
171.686
173.938
176.156
178.342
180.497
182.624
184.725
186.804
188.865
190.909
192.941
194.964
196.981
198.994
101.494
104.479
107.462
110.439
113.406
116.361
119.303
122.227
125.131
128.014
130.872
133.704
136.507
139.279
142.019
144.724
147.394
150.027
152.622
155.178
157.694
160.171
162.608
165.005
167.362
169.68
171.96
174.202
176.408
178.58
180.72
182.83
184.912
186.97
189.007
191.027
193.034
195.031
197.021
199.007
101.506
104.518
107.525
110.526
113.518
116.497
119.46
122.405
125.33
128.231
131.107
133.955
136.772
139.557
142.308
145.022
147.7
150.339
152.938
155.497
158.015
160.491
162.926
165.319
167.671
169.982
172.253
174.484
176.678
178.836
180.959
183.051
185.113
187.149
189.162
191.156
193.135
195.103
197.065
199.022
101.52
104.559
107.595
110.622
113.64
116.644
119.632
122.6
125.546
128.468
131.362
134.227
137.059
139.857
142.62
145.345
148.03
150.676
153.279
155.841
158.36
160.835
163.267
165.656
168.002
170.305
172.566
174.787
176.967
179.11
181.216
183.288
185.329
187.341
189.328
191.295
193.244
195.182
197.113
199.038
101.536
104.605
107.67
110.727
113.773
116.805
119.819
122.812
125.782
128.725
131.639
134.522
137.37
140.183
142.958
145.693
148.387
151.039
153.647
156.212
158.732
161.206
163.635
166.019
168.359
170.653
172.904
175.112
177.278
179.404
181.491
183.543
185.561
187.548
189.508
191.445
193.363
195.268
197.164
199.055
101.552
104.655
107.753
110.842
113.919
116.981
120.023
123.043
126.038
129.005
131.94
134.842
137.708
140.536
143.324
146.07
148.773
151.432
154.045
156.613
159.133
161.607
164.033
166.412
168.743
171.028
173.268
175.462
177.612
179.72
181.787
183.816
185.81
187.77
189.701
191.607
193.491
195.36
197.221
199.073
101.571
104.709
107.843
110.968
114.079
117.173
120.246
123.296
126.318
129.31
132.268
135.191
138.075
140.919
143.721
146.479
149.192
151.858
154.477
157.047
159.569
162.041
164.463
166.836
169.16
171.435
173.661
175.84
177.973
180.062
182.107
184.112
186.078
188.01
189.91
191.782
193.63
195.461
197.281
199.093
101.591
104.77
107.943
111.106
114.254
117.384
120.491
123.572
126.624
129.643
132.626
135.571
138.475
141.337
144.154
146.925
149.648
152.322
154.946
157.519
160.042
162.512
164.931
167.298
169.613
171.876
174.089
176.252
178.366
180.432
182.453
184.431
186.369
188.269
190.135
191.971
193.781
195.57
197.348
199.115
101.613
104.836
108.052
111.257
114.446
117.615
120.759
123.875
126.959
130.007
133.017
135.986
138.912
141.793
144.626
147.41
150.144
152.826
155.457
158.034
160.557
163.026
165.441
167.8
170.106
172.357
174.555
176.7
178.793
180.836
182.831
184.779
186.685
188.55
190.379
192.176
193.944
195.689
197.42
199.139
101.637
104.909
108.173
111.424
114.658
117.869
121.054
124.207
127.326
130.407
133.446
136.441
139.39
142.291
145.141
147.94
150.686
153.377
156.014
158.595
161.119
163.586
165.996
168.348
170.643
172.881
175.063
177.188
179.259
181.277
183.242
185.159
187.029
188.857
190.645
192.398
194.121
195.818
197.498
199.165
101.664
104.989
108.306
111.609
114.892
118.15
121.379
124.573
127.73
130.845
133.916
136.94
139.914
142.836
145.705
148.519
151.278
153.979
156.622
159.207
161.732
164.198
166.602
168.947
171.231
173.454
175.618
177.722
179.769
181.758
183.693
185.575
187.407
189.192
190.936
192.642
194.314
195.959
197.585
199.194
101.694
105.079
108.454
111.813
115.15
118.46
121.737
124.977
128.175
131.328
134.433
137.487
140.488
143.433
146.322
149.153
151.925
154.637
157.287
159.876
162.402
164.865
167.265
169.601
171.873
174.081
176.225
178.307
180.327
182.287
184.187
186.031
187.821
189.561
191.255
192.909
194.527
196.114
197.68
199.225
101.727
105.178
108.618
112.04
115.437
118.804
122.134
125.423
128.666
131.86
135.002
138.089
141.118
144.088
146.999
149.847
152.633
155.356
158.014
160.607
163.134
165.595
167.989
170.315
172.574
174.766
176.89
178.948
180.939
182.866
184.73
186.533
188.277
189.967
191.608
193.203
194.76
196.284
197.784
199.26
101.764
105.289
108.801
112.292
115.756
119.185
122.573
125.916
129.208
132.447
135.628
138.75
141.81
144.807
147.74
150.607
153.408
156.142
158.808
161.405
163.933
166.391
168.779
171.096
173.341
175.515
177.618
179.649
181.611
183.503
185.327
187.085
188.78
190.416
191.997
193.529
195.019
196.472
197.9
199.298
101.806
105.412
109.005
112.573
116.11
119.608
123.061
126.462
129.808
133.094
136.318
139.477
142.57
145.595
148.552
151.438
154.255
157.001
159.675
162.276
164.805
167.261
169.642
171.948
174.179
176.335
178.415
180.419
182.347
184.202
185.983
187.693
189.335
190.911
192.428
193.89
195.305
196.681
198.028
199.341
101.852
105.551
109.233
112.888
116.506
120.08
123.603
127.068
130.471
133.809
137.078
140.278
143.405
146.46
149.441
152.348
155.181
157.938
160.621
163.227
165.756
168.209
170.583
172.879
175.095
177.231
179.286
181.261
183.156
184.971
186.706
188.365
189.948
191.461
192.906
194.292
195.624
196.914
198.17
199.388
101.904
105.707
109.489
113.24
116.949
120.607
124.206
127.74
131.206
134.599
137.916
141.158
144.321
147.407
150.413
153.342
156.191
158.961
161.651
164.262
166.792
169.241
171.609
173.893
176.093
178.209
180.24
182.184
184.043
185.816
187.503
189.107
190.628
192.07
193.439
194.74
195.981
197.174
198.33
199.441
101.964
105.883
109.778
113.637
117.446
121.196
124.879
128.488
132.019
135.471
138.839
142.124
145.326
148.443
151.476
154.426
157.292
160.074
162.773
165.389
167.919
170.365
172.724
174.997
177.181
179.276
181.281
183.195
185.016
186.745
188.382
189.926
191.381
192.748
194.033
195.241
196.382
197.467
198.509
199.501
102.031
106.083
110.106
114.085
118.006
121.857
125.63
129.319
132.921
136.434
139.855
143.186
146.426
149.576
152.636
155.607
158.49
161.285
163.992
166.612
169.143
171.585
173.937
176.197
178.365
180.44
182.418
184.3
186.083
187.767
189.35
190.833
192.217
193.504
194.697
195.804
196.833
197.797
198.711
199.569
102.108
106.311
110.48
114.594
118.638
122.599
126.47
130.245
133.921
137.497
140.973
144.351
147.629
150.812
153.899
156.891
159.791
162.599
165.314
167.937
170.469
172.907
175.251
177.5
179.652
181.705
183.658
185.507
187.252
188.889
190.418
191.838
193.147
194.348
195.443
196.439
197.343
198.173
198.94
199.647
102.197
106.575
110.91
115.176
119.356
123.438
127.412
131.277
135.029
138.671
142.202
145.626
148.944
152.158
155.271
158.285
161.201
164.021
166.744
169.371
171.903
174.337
176.674
178.911
181.048
183.08
185.007
186.825
188.531
190.122
191.597
192.951
194.184
195.294
196.284
197.159
197.926
198.603
199.204
199.737
102.302
106.883
111.409
115.847
120.176
124.386
128.47
132.427
136.258
139.965
143.551
147.02
150.376
153.621
156.76
159.794
162.726
165.556
168.287
170.918
173.45
175.881
178.21
180.437
182.558
184.571
186.473
188.26
189.93
191.476
192.896
194.186
195.34
196.358
197.237
197.981
198.597
199.101
199.51
199.843
102.427
107.25
111.996
116.626
121.118
125.465
129.662
133.712
137.619
141.39
145.029
148.541
151.933
155.208
158.37
161.423
164.369
167.21
169.948
172.583
175.114
177.542
179.866
182.082
184.189
186.184
188.064
189.823
191.457
192.962
194.33
195.556
196.633
197.557
198.322
198.927
199.377
199.687
199.873
199.971
102.58
107.696
112.699
117.542
122.208
126.694
131.004
135.145
139.126
142.957
146.644
150.197
153.621
156.923
160.107
163.177
166.136
168.987
171.731
174.369
176.901
179.327
181.644
183.852
185.947
187.926
189.786
191.52
193.123
194.589
195.91
197.078
198.082
198.914
199.564
200.025
200.296
200.389
200.313
200.128
102.779
108.259
113.559
118.634
123.479
128.102
132.519
136.744
140.792
144.676
148.407
151.995
155.448
158.773
161.976
165.061
168.031
170.891
173.641
176.282
178.814
181.238
183.551
185.752
187.838
189.804
191.647
193.36
194.937
196.371
197.651
198.767
199.707
200.455
200.996
201.315
201.396
201.248
200.857
200.323
103.052
109.002
114.638
119.95
124.966
129.716
134.227
138.524
142.628
146.557
150.324
153.941
157.418
160.762
163.98
167.078
170.059
172.926
175.681
178.325
180.859
183.282
185.593
187.789
189.867
191.824
193.655
195.352
196.909
198.318
199.566
200.642
201.529
202.209
202.657
202.847
202.745
202.334
201.563
200.584
103.512
110.042
116.013
121.546
126.711
131.563
136.149
140.501
144.649
148.611
152.405
156.044
159.539
162.898
166.129
169.236
172.225
175.098
177.858
180.505
183.041
185.465
187.774
189.968
192.043
193.994
195.817
197.504
199.048
200.44
201.667
202.715
203.566
204.198
204.58
204.675
204.424
203.771
202.575
201.023
104.359
111.626
117.872
123.554
128.81
133.721
138.346
142.728
146.898
150.878
154.686
158.337
161.842
165.209
168.446
171.559
174.553
177.429
180.192
182.841
185.378
187.802
190.111
192.304
194.376
196.324
198.143
199.825
201.362
202.745
203.961
204.994
205.825
206.429
206.773
206.817
206.482
205.693
204.205
202.073
)
;

boundaryField
{
    carasuperior
    {
        type            fixedGradient;
        gradient        uniform 100;
    }
    lateralizquierda
    {
        type            fixedValue;
        value           uniform 100;
    }
    lateralderecha
    {
        type            fixedValue;
        value           uniform 200;
    }
    carainferior
    {
        type            zeroGradient;
    }
    frontAndBack
    {
        type            empty;
    }
}


// ************************************************************************* //
