/*--------------------------------*- C++ -*----------------------------------*\
| =========                 |                                                 |
| \\      /  F ield         | OpenFOAM: The Open Source CFD Toolbox           |
|  \\    /   O peration     | Version:  2.4.0                                 |
|   \\  /    A nd           | Web:      www.OpenFOAM.org                      |
|    \\/     M anipulation  |                                                 |
\*---------------------------------------------------------------------------*/
FoamFile
{
    version     2.0;
    format      ascii;
    class       surfaceScalarField;
    location    "2.1";
    object      phi;
}
// * * * * * * * * * * * * * * * * * * * * * * * * * * * * * * * * * * * * * //

dimensions      [0 3 -1 0 0 0 0];

internalField   nonuniform List<scalar> 
12720
(
1.40137e-07
-1.40425e-07
-1.60226e-11
-5.55704e-07
6.94144e-07
1.69751e-09
-2.06461e-06
1.50635e-06
2.55088e-09
-4.142e-06
2.07412e-06
3.26991e-09
-6.55644e-06
2.41075e-06
3.69361e-09
-9.1179e-06
2.55759e-06
3.86514e-09
-1.167e-05
2.5482e-06
3.87131e-09
-1.40771e-05
2.40342e-06
3.71333e-09
-1.62209e-05
2.14045e-06
3.36639e-09
1.78753e-06
2.8087e-09
-1.80112e-05
-7.24554e-07
5.85566e-07
-1.43435e-09
-3.25949e-06
3.22869e-06
3.86442e-10
-7.38573e-06
5.63409e-06
-1.4947e-09
-1.26859e-05
7.37665e-06
-2.35185e-09
-1.87217e-05
8.44931e-06
-2.77877e-09
-2.50847e-05
8.92361e-06
-3.04787e-09
-3.14049e-05
8.87152e-06
-3.05502e-09
-3.73488e-05
8.35013e-06
-2.83962e-09
-4.26285e-05
7.42266e-06
-2.49072e-09
6.19487e-06
-2.14847e-09
-4.70337e-05
-1.66565e-06
2.25367e-06
-2.46143e-09
-6.01325e-06
7.57408e-06
2.22448e-09
-1.24526e-05
1.20733e-05
1.06692e-10
-2.04003e-05
1.53244e-05
-8.61693e-11
-2.92849e-05
1.73338e-05
1.22553e-10
-3.85637e-05
1.82023e-05
1.14536e-10
-4.77236e-05
1.80313e-05
1.25238e-10
-5.62844e-05
1.69107e-05
1.81095e-10
-6.38222e-05
1.49603e-05
2.45305e-10
1.23974e-05
1.48682e-10
-7.00249e-05
-2.43088e-06
4.68811e-06
-3.55885e-09
-8.30124e-06
1.34413e-05
3.11749e-09
-1.66463e-05
2.04184e-05
-5.72817e-12
-2.67024e-05
2.53808e-05
-2.63769e-10
-3.77896e-05
2.84209e-05
9.81861e-11
-4.92723e-05
2.96849e-05
1.40512e-10
-6.05358e-05
2.92946e-05
1.80812e-10
-7.09813e-05
2.73559e-05
2.83052e-10
-8.00555e-05
2.4034e-05
4.74829e-10
1.96719e-05
4.15436e-10
-8.73305e-05
-2.96677e-06
7.65921e-06
-4.33235e-09
-9.94115e-06
2.0412e-05
3.65033e-09
-1.96697e-05
3.01473e-05
-4.0891e-10
-3.1239e-05
3.6951e-05
-8.86623e-10
-4.38855e-05
4.10679e-05
-5.268e-10
-5.69104e-05
4.27103e-05
-4.99805e-10
-6.96247e-05
4.20093e-05
-4.42282e-10
-8.13251e-05
3.90566e-05
-2.51125e-10
-9.1314e-05
3.40226e-05
3.10652e-10
2.73516e-05
5.85638e-10
-9.89943e-05
-3.25351e-06
1.09174e-05
-4.70764e-09
-1.084e-05
2.79945e-05
4.02963e-09
-2.13436e-05
4.06515e-05
-5.33905e-10
-3.37601e-05
4.93686e-05
-1.12568e-09
-4.72774e-05
5.4586e-05
-7.71919e-10
-6.1164e-05
5.65977e-05
-7.6456e-10
-7.46857e-05
5.55318e-05
-7.44687e-10
-8.70513e-05
5.14227e-05
-5.93757e-10
-9.73962e-05
4.4367e-05
5.26545e-10
3.48011e-05
1.60814e-09
-0.000104847
-3.28478e-06
1.42069e-05
-4.71122e-09
-1.09561e-05
3.56617e-05
4.12485e-09
-2.15699e-05
5.12658e-05
-5.70461e-10
-3.40987e-05
6.18987e-05
-1.23073e-09
-4.77214e-05
6.82096e-05
-9.31529e-10
-6.17073e-05
7.05845e-05
-9.66262e-10
-7.53166e-05
6.91422e-05
-1.07045e-09
-8.77089e-05
6.38163e-05
-1.28647e-09
-9.78547e-05
5.4512e-05
6.8866e-10
4.13875e-05
4.06345e-09
-0.000104445
-3.06831e-06
1.72796e-05
-4.33945e-09
-1.02994e-05
4.28889e-05
3.95299e-09
-2.03406e-05
6.13075e-05
-5.20693e-10
-3.21991e-05
7.37584e-05
-1.19769e-09
-4.50721e-05
8.10835e-05
-9.76558e-10
-5.8254e-05
8.37674e-05
-9.9485e-10
-7.10412e-05
8.19305e-05
-1.12601e-09
-8.26151e-05
7.53923e-05
-2.00209e-09
-9.18653e-05
6.37602e-05
2.00925e-09
4.63789e-05
1.41731e-08
-9.68709e-05
-2.63424e-06
1.99174e-05
-3.61927e-09
-8.95289e-06
4.92039e-05
3.57859e-09
-1.77827e-05
7.01377e-05
-3.60795e-10
-2.81973e-05
8.4174e-05
-1.00673e-09
-3.94091e-05
9.22963e-05
-9.28728e-10
-5.07206e-05
9.50799e-05
-1.01865e-09
-6.14637e-05
9.26751e-05
-1.38121e-09
-7.08946e-05
8.48279e-05
-4.79157e-09
-7.8037e-05
7.09041e-05
-1.38777e-09
4.87027e-05
3.18175e-08
-8.03927e-05
-2.04406e-06
-2.63146e-09
2.19641e-05
-7.09805e-06
3.09041e-09
5.42548e-05
-1.42159e-05
-6.03458e-11
7.72557e-05
-2.25389e-05
-5.74754e-10
9.24976e-05
-3.12499e-05
-6.21859e-10
0.000101008
-3.95573e-05
-9.36822e-10
0.000103388
-4.6672e-05
-2.01082e-09
9.97917e-05
-5.17008e-05
-1.2057e-08
8.98688e-05
-5.35474e-05
-2.80558e-08
7.27788e-05
9.3124e-09
-5.10185e-05
4.61645e-05
1.41655e-07
-1.41626e-07
-4.5044e-11
-5.56301e-07
6.99673e-07
-1.9991e-11
-2.06534e-06
1.5116e-06
-6.98787e-12
-4.14212e-06
2.08005e-06
-1.69873e-12
-6.5563e-06
2.41787e-06
4.59353e-13
-9.11774e-06
2.56531e-06
1.39465e-12
-1.16699e-05
2.55604e-06
1.33111e-12
-1.40772e-05
2.41101e-06
9.07775e-13
-1.62213e-05
2.14742e-06
7.0304e-13
1.79336e-06
6.84497e-13
-1.80118e-05
-7.29334e-07
5.86295e-07
-1.96963e-11
-3.26499e-06
3.23573e-06
-1.1002e-11
-7.39059e-06
5.6357e-06
-3.49109e-12
-1.26892e-05
7.37636e-06
-4.99443e-14
-1.87233e-05
8.44911e-06
1.30888e-12
-2.50847e-05
8.92371e-06
1.97917e-12
-3.14038e-05
8.87203e-06
1.85171e-12
-3.73468e-05
8.3512e-06
1.37953e-12
-4.26262e-05
7.42431e-06
1.12861e-12
6.1964e-06
1.03141e-12
-4.70314e-05
-1.67099e-06
2.25483e-06
-5.84006e-12
-6.014e-06
7.58097e-06
-3.04366e-12
-1.24533e-05
1.20752e-05
1.00061e-13
-2.04012e-05
1.53242e-05
1.43647e-12
-2.92854e-05
1.73334e-05
1.95462e-12
-3.85637e-05
1.82021e-05
2.37105e-12
-4.77232e-05
1.80316e-05
2.25129e-12
-5.62837e-05
1.69119e-05
1.77149e-12
-6.38218e-05
1.49626e-05
1.44104e-12
1.23995e-05
1.29389e-12
-7.00247e-05
-2.43756e-06
4.68883e-06
5.55614e-13
-8.30014e-06
1.34467e-05
1.21896e-12
-1.66451e-05
2.04201e-05
2.36067e-12
-2.67022e-05
2.53809e-05
2.56312e-12
-3.77895e-05
2.84208e-05
2.58692e-12
-4.92722e-05
2.9685e-05
2.82007e-12
-6.05356e-05
2.92952e-05
2.61963e-12
-7.0981e-05
2.73576e-05
2.06598e-12
-8.00558e-05
2.40379e-05
1.67002e-12
1.96758e-05
1.47675e-12
-8.73317e-05
-2.97507e-06
7.65957e-06
3.04479e-12
-9.93978e-06
2.0415e-05
3.0448e-12
-1.96681e-05
3.01481e-05
3.32828e-12
-3.12386e-05
3.69506e-05
3.05576e-12
-4.38854e-05
4.10671e-05
2.89423e-12
-5.69105e-05
4.27095e-05
2.9909e-12
-6.96245e-05
4.20088e-05
2.71437e-12
-8.13245e-05
3.90574e-05
2.1174e-12
-9.13142e-05
3.4028e-05
1.67611e-12
2.73587e-05
1.43872e-12
-9.89965e-05
-3.26267e-06
1.09175e-05
3.64503e-12
-1.08385e-05
2.79949e-05
3.4382e-12
-2.1342e-05
4.0651e-05
3.35452e-12
-3.37599e-05
4.93674e-05
2.9602e-12
-4.72778e-05
5.45842e-05
2.78804e-12
-6.11647e-05
5.65956e-05
2.8097e-12
-7.46862e-05
5.55295e-05
2.4761e-12
-8.70507e-05
5.14213e-05
1.86425e-12
-9.73963e-05
4.4374e-05
1.44113e-12
3.48155e-05
1.22309e-12
-0.000104851
-3.29401e-06
1.42068e-05
3.75205e-12
-1.09547e-05
3.56597e-05
3.51657e-12
-2.15685e-05
5.12642e-05
3.24675e-12
-3.40992e-05
6.18968e-05
2.91013e-12
-4.77228e-05
6.82069e-05
2.76757e-12
-6.17095e-05
7.05813e-05
2.67559e-12
-7.53187e-05
6.91377e-05
2.23776e-12
-8.77089e-05
6.38102e-05
1.59277e-12
-9.78535e-05
5.45194e-05
1.22309e-12
4.14193e-05
1.09405e-12
-0.000104453
-3.07686e-06
1.72793e-05
3.67625e-12
-1.02981e-05
4.28849e-05
3.49191e-12
-2.03396e-05
6.13052e-05
3.17334e-12
-3.22002e-05
7.37562e-05
2.94685e-12
-4.50747e-05
8.10804e-05
2.82713e-12
-5.82578e-05
8.37634e-05
2.59178e-12
-7.10454e-05
8.19242e-05
2.00231e-12
-8.26151e-05
7.53778e-05
1.30816e-12
-9.18529e-05
6.37592e-05
1.04927e-12
4.64602e-05
1.08811e-12
-9.68797e-05
-2.64143e-06
1.99171e-05
3.32675e-12
-8.95168e-06
4.91988e-05
3.22664e-12
-1.77821e-05
7.01352e-05
2.94854e-12
-2.81991e-05
8.41723e-05
2.8263e-12
-3.94137e-05
9.22942e-05
2.72501e-12
-5.07288e-05
9.50774e-05
2.35751e-12
-6.14778e-05
9.26717e-05
1.65197e-12
-7.09137e-05
8.4809e-05
1.00373e-12
-7.80133e-05
7.08575e-05
9.54854e-13
4.88185e-05
9.28557e-13
-8.03398e-05
-2.04931e-06
2.84074e-12
2.19638e-05
-7.09656e-06
2.84677e-12
5.42491e-05
-1.42147e-05
2.62681e-12
7.72532e-05
-2.25398e-05
2.59037e-12
9.24969e-05
-3.12546e-05
2.49706e-12
0.000101008
-3.9569e-05
2.07733e-12
0.000103391
-4.67003e-05
1.45916e-12
9.9801e-05
-5.17875e-05
1.04757e-12
8.98841e-05
-5.36855e-05
1.17683e-12
7.27274e-05
1.0165e-12
-5.07943e-05
4.59366e-05
1.41673e-07
-1.41607e-07
-1.11211e-10
-5.56292e-07
6.9968e-07
-1.7355e-09
-2.06534e-06
1.5116e-06
-2.56099e-09
-4.14212e-06
2.08005e-06
-3.271e-09
-6.55629e-06
2.41787e-06
-3.69198e-09
-9.11774e-06
2.56531e-06
-3.86291e-09
-1.16699e-05
2.55604e-06
-3.86872e-09
-1.40772e-05
2.41101e-06
-3.71125e-09
-1.62213e-05
2.14742e-06
-3.36488e-09
1.79336e-06
-2.80735e-09
-1.80118e-05
-7.29326e-07
5.86304e-07
1.39541e-09
-3.26498e-06
3.23573e-06
-4.04454e-10
-7.39058e-06
5.6357e-06
1.48905e-09
-1.26892e-05
7.37636e-06
2.3522e-09
-1.87233e-05
8.44911e-06
2.78118e-09
-2.50847e-05
8.92371e-06
3.05047e-09
-3.14037e-05
8.87203e-06
3.05764e-09
-3.73468e-05
8.35119e-06
2.84181e-09
-4.26262e-05
7.42431e-06
2.49242e-09
6.19639e-06
2.14998e-09
-4.70313e-05
-1.67099e-06
2.25483e-06
2.4517e-09
-6.01399e-06
7.58096e-06
-2.22887e-09
-1.24533e-05
1.20751e-05
-1.06857e-10
-2.04012e-05
1.53242e-05
8.89272e-11
-2.92854e-05
1.73334e-05
-1.19117e-10
-3.85637e-05
1.82021e-05
-1.1138e-10
-4.77231e-05
1.80316e-05
-1.22154e-10
-5.62836e-05
1.69119e-05
-1.78479e-10
-6.38217e-05
1.49626e-05
-2.43251e-10
1.23995e-05
-1.46978e-10
-7.00247e-05
-2.43756e-06
4.68883e-06
3.55838e-09
-8.30013e-06
1.34467e-05
-3.11599e-09
-1.66451e-05
2.04201e-05
8.18481e-12
-2.67022e-05
2.53809e-05
2.67534e-10
-3.77894e-05
2.84208e-05
-9.45285e-11
-4.92722e-05
2.9685e-05
-1.37323e-10
-6.05356e-05
2.92952e-05
-1.77642e-10
-7.0981e-05
2.73576e-05
-2.80358e-10
-8.00558e-05
2.40379e-05
-4.72774e-10
1.96758e-05
-4.13762e-10
-8.73317e-05
-2.97507e-06
7.65956e-06
4.33572e-09
-9.93976e-06
2.0415e-05
-3.64625e-09
-1.96681e-05
3.0148e-05
4.12847e-10
-3.12386e-05
3.69505e-05
8.91191e-10
-4.38854e-05
4.10671e-05
5.30943e-10
-5.69104e-05
4.27095e-05
5.03419e-10
-6.96245e-05
4.20088e-05
4.45799e-10
-8.13245e-05
3.90574e-05
2.54108e-10
-9.13142e-05
3.40279e-05
-3.08407e-10
2.73587e-05
-5.83911e-10
-9.89965e-05
-3.26266e-06
1.09175e-05
4.71235e-09
-1.08385e-05
2.79949e-05
-4.02458e-09
-2.1342e-05
4.0651e-05
5.385e-10
-3.37599e-05
4.93673e-05
1.13059e-09
-4.72778e-05
5.45842e-05
7.76286e-10
-6.11647e-05
5.65956e-05
7.68408e-10
-7.46861e-05
5.55295e-05
7.48358e-10
-8.70507e-05
5.14213e-05
5.96824e-10
-9.73962e-05
4.4374e-05
-5.243e-10
3.48155e-05
-1.6065e-09
-0.000104851
-3.294e-06
1.42068e-05
4.71579e-09
-1.09547e-05
3.56597e-05
-4.11995e-09
-2.15685e-05
5.12642e-05
5.74904e-10
-3.40992e-05
6.18968e-05
1.23535e-09
-4.77228e-05
6.82069e-05
9.35659e-10
-6.17094e-05
7.05812e-05
9.6994e-10
-7.53187e-05
6.91377e-05
1.07389e-09
-8.77088e-05
6.38101e-05
1.2893e-09
-9.78535e-05
5.45194e-05
-6.86611e-10
4.14193e-05
-4.06201e-09
-0.000104453
-3.07686e-06
1.72793e-05
4.34382e-09
-1.02981e-05
4.28849e-05
-3.9484e-09
-2.03396e-05
6.13051e-05
5.24965e-10
-3.22002e-05
7.37562e-05
1.2021e-09
-4.50747e-05
8.10804e-05
9.80553e-10
-5.82578e-05
8.37633e-05
9.98436e-10
-7.10454e-05
8.19242e-05
1.12928e-09
-8.26151e-05
7.53778e-05
2.00483e-09
-9.18529e-05
6.37592e-05
-2.00725e-09
4.64602e-05
-1.41717e-08
-9.68796e-05
-2.64143e-06
1.99171e-05
3.62335e-09
-8.95167e-06
4.91987e-05
-3.57441e-09
-1.7782e-05
7.01351e-05
3.64852e-10
-2.81991e-05
8.41722e-05
1.0109e-09
-3.94137e-05
9.22941e-05
9.32532e-10
-5.07288e-05
9.50774e-05
1.02208e-09
-6.14777e-05
9.26717e-05
1.38433e-09
-7.09137e-05
8.48089e-05
4.79435e-09
-7.80133e-05
7.08575e-05
1.38996e-09
4.88185e-05
-3.18159e-08
-8.03398e-05
-2.04931e-06
2.63499e-09
2.19638e-05
-7.09655e-06
-3.08679e-09
5.42491e-05
-1.42147e-05
6.40183e-11
7.72532e-05
-2.25398e-05
5.78432e-10
9.24968e-05
-3.12546e-05
6.25184e-10
0.000101008
-3.9569e-05
9.39811e-10
0.000103391
-4.67003e-05
2.01361e-09
9.9801e-05
-5.17874e-05
1.20597e-08
8.98841e-05
-5.36855e-05
2.8058e-08
7.27274e-05
-9.31084e-09
-5.07943e-05
4.59366e-05
1.40226e-07
-1.40336e-07
-5.5568e-07
6.94167e-07
-2.0646e-06
1.50636e-06
-4.14199e-06
2.07412e-06
-6.55643e-06
2.41075e-06
-9.11788e-06
2.55759e-06
-1.16699e-05
2.5482e-06
-1.40771e-05
2.40341e-06
-1.62209e-05
2.14044e-06
1.78753e-06
-1.80112e-05
-7.24527e-07
5.85591e-07
-3.25947e-06
3.2287e-06
-7.38571e-06
5.63409e-06
-1.26859e-05
7.37665e-06
-1.87217e-05
8.4493e-06
-2.50846e-05
8.9236e-06
-3.14049e-05
8.87151e-06
-3.73487e-05
8.35012e-06
-4.26285e-05
7.42265e-06
6.19487e-06
-4.70336e-05
-1.66563e-06
2.25368e-06
-6.01323e-06
7.57407e-06
-1.24525e-05
1.20733e-05
-2.04002e-05
1.53244e-05
-2.92849e-05
1.73338e-05
-3.85636e-05
1.82023e-05
-4.77235e-05
1.80313e-05
-5.62843e-05
1.69107e-05
-6.38221e-05
1.49603e-05
1.23974e-05
-7.00247e-05
-2.43087e-06
4.68811e-06
-8.30121e-06
1.34413e-05
-1.66463e-05
2.04183e-05
-2.67024e-05
2.53808e-05
-3.77895e-05
2.84208e-05
-4.92722e-05
2.96849e-05
-6.05357e-05
2.92946e-05
-7.09812e-05
2.73559e-05
-8.00554e-05
2.4034e-05
1.96719e-05
-8.73304e-05
-2.96676e-06
7.6592e-06
-9.94112e-06
2.0412e-05
-1.96696e-05
3.01473e-05
-3.12389e-05
3.6951e-05
-4.38854e-05
4.10679e-05
-5.69103e-05
4.27103e-05
-6.96246e-05
4.20093e-05
-8.13249e-05
3.90565e-05
-9.13138e-05
3.40226e-05
2.73516e-05
-9.89941e-05
-3.2535e-06
1.09174e-05
-1.084e-05
2.79944e-05
-2.13436e-05
4.06514e-05
-3.376e-05
4.93686e-05
-4.72773e-05
5.45859e-05
-6.11639e-05
5.65976e-05
-7.46856e-05
5.55317e-05
-8.70511e-05
5.14227e-05
-9.73961e-05
4.4367e-05
3.48011e-05
-0.000104847
-3.28476e-06
1.42069e-05
-1.09561e-05
3.56616e-05
-2.15698e-05
5.12657e-05
-3.40987e-05
6.18987e-05
-4.77213e-05
6.82095e-05
-6.17072e-05
7.05844e-05
-7.53165e-05
6.91421e-05
-8.77088e-05
6.38163e-05
-9.78545e-05
5.4512e-05
4.13875e-05
-0.000104445
-3.0683e-06
1.72795e-05
-1.02994e-05
4.28888e-05
-2.03405e-05
6.13074e-05
-3.2199e-05
7.37584e-05
-4.5072e-05
8.10835e-05
-5.82539e-05
8.37673e-05
-7.10411e-05
8.19305e-05
-8.2615e-05
7.53923e-05
-9.18653e-05
6.37602e-05
4.63789e-05
-9.68709e-05
-2.63423e-06
1.99174e-05
-8.95287e-06
4.92038e-05
-1.77827e-05
7.01376e-05
-2.81972e-05
8.41739e-05
-3.9409e-05
9.22962e-05
-5.07205e-05
9.50798e-05
-6.14637e-05
9.2675e-05
-7.08945e-05
8.48279e-05
-7.8037e-05
7.09041e-05
4.87027e-05
-8.03926e-05
-2.04406e-06
2.19641e-05
-7.09803e-06
5.42547e-05
-1.42159e-05
7.72555e-05
-2.25389e-05
9.24974e-05
-3.12499e-05
0.000101008
-3.95573e-05
0.000103388
-4.66719e-05
9.97917e-05
-5.17007e-05
8.98688e-05
-5.35474e-05
7.27788e-05
-5.10185e-05
4.61645e-05
-1.94078e-05
1.39447e-06
2.10794e-09
-2.0432e-05
1.02269e-06
1.47077e-09
-2.11457e-05
7.12785e-07
9.70439e-10
-2.16251e-05
4.78692e-07
6.09947e-10
-2.19419e-05
3.16451e-07
3.72065e-10
-2.2156e-05
2.13944e-07
2.29148e-10
-2.2314e-05
1.57827e-07
1.54836e-10
-2.24511e-05
1.36919e-07
1.29189e-10
-2.25941e-05
1.42911e-07
1.38752e-10
-2.27639e-05
1.69558e-07
1.75326e-10
-2.29752e-05
2.11113e-07
2.33073e-10
-2.32359e-05
2.60385e-07
3.05911e-10
-2.35429e-05
3.06597e-07
3.84669e-10
-2.38766e-05
3.33304e-07
4.53902e-10
-2.4194e-05
3.16924e-07
4.88042e-10
-2.44214e-05
2.26942e-07
4.46197e-10
-2.44515e-05
2.98149e-08
2.74733e-10
-2.41462e-05
-3.05269e-07
-6.1171e-11
-2.33585e-05
-7.87005e-07
-6.51897e-10
-1.39095e-06
-1.53957e-09
-2.1966e-05
-5.04783e-05
4.84094e-06
-1.89938e-09
-5.30216e-05
3.56755e-06
-1.5837e-09
-5.48149e-05
2.50736e-06
-1.24999e-09
-5.60392e-05
1.7039e-06
-9.52212e-10
-5.68643e-05
1.14228e-06
-7.0928e-10
-5.74313e-05
7.81533e-07
-5.30358e-10
-5.78498e-05
5.76665e-07
-4.14791e-10
-5.82017e-05
4.89229e-07
-3.55042e-10
-5.8548e-05
4.895e-07
-3.40863e-10
-5.8932e-05
5.53946e-07
-3.59983e-10
-5.93808e-05
6.60376e-07
-3.97943e-10
-5.9902e-05
7.81994e-07
-4.36102e-10
-6.0476e-05
8.81062e-07
-4.48945e-10
-6.10454e-05
9.03099e-07
-4.02551e-10
-6.15016e-05
7.73317e-07
-2.55448e-10
-6.16731e-05
3.98424e-07
3.47993e-11
-6.13221e-05
-3.21653e-07
4.98367e-10
-6.01597e-05
-1.46881e-06
1.12312e-09
-5.78845e-05
-3.06408e-06
1.87227e-09
-5.01815e-06
2.57579e-09
-5.42599e-05
-7.47772e-05
9.59353e-06
-2.37547e-10
-7.82082e-05
6.99898e-06
-4.09883e-10
-8.05779e-05
4.87745e-06
-4.47357e-10
-8.21679e-05
3.29434e-06
-4.241e-10
-8.32251e-05
2.19986e-06
-3.61692e-10
-8.39432e-05
1.49994e-06
-2.88262e-10
-8.44656e-05
1.09925e-06
-2.21899e-10
-8.48955e-05
9.1928e-07
-1.69402e-10
-8.53061e-05
9.00309e-07
-1.31702e-10
-8.57475e-05
9.95438e-07
-1.06092e-10
-8.62481e-05
1.161e-06
-8.79604e-11
-8.68114e-05
1.34544e-06
-7.15984e-11
-8.74081e-05
1.47779e-06
-5.04299e-11
-8.7962e-05
1.45705e-06
-1.63208e-11
-8.8334e-05
1.14526e-06
4.16965e-11
-8.83055e-05
3.69775e-07
1.31186e-10
-8.75705e-05
-1.05696e-06
2.4652e-10
-8.5747e-05
-3.29268e-06
3.8179e-10
-8.24244e-05
-6.3872e-06
5.19922e-10
-1.01802e-05
4.41255e-10
-7.72628e-05
-9.26618e-05
1.49251e-05
-3.70643e-10
-9.63103e-05
1.06482e-05
-5.96906e-10
-9.86974e-05
7.26513e-06
-5.91061e-10
-0.00010022
4.8174e-06
-5.24814e-10
-0.000101188
3.16781e-06
-4.17629e-10
-0.000101819
2.13191e-06
-3.09106e-10
-0.000102263
1.54331e-06
-2.19191e-10
-0.000102618
1.27403e-06
-1.51052e-10
-0.000102949
1.23148e-06
-1.02697e-10
-0.000103299
1.34575e-06
-7.00313e-11
-0.000103692
1.55398e-06
-4.87044e-11
-0.00010413
1.78356e-06
-3.48589e-11
-0.000104587
1.93493e-06
-2.50221e-11
-0.000104995
1.86509e-06
-1.33697e-11
-0.000105224
1.37463e-06
1.60108e-11
-0.00010506
2.04911e-07
7.73694e-11
-0.000104178
-1.93888e-06
1.43172e-10
-0.000102138
-5.33256e-06
2.68728e-10
-9.84145e-05
-1.01115e-05
5.08754e-10
-1.60894e-05
4.47163e-10
-9.25057e-05
-0.000104156
2.00879e-05
-1.00877e-09
-0.000107314
1.38073e-05
-1.12726e-09
-0.000109141
9.09329e-06
-9.09278e-10
-0.000110168
5.8445e-06
-7.09897e-10
-0.000110742
3.74298e-06
-4.99424e-10
-0.000111075
2.46452e-06
-3.28071e-10
-0.000111284
1.75305e-06
-2.09599e-10
-0.000111439
1.42888e-06
-1.32969e-10
-0.000111578
1.37114e-06
-8.68011e-11
-0.000111727
1.49435e-06
-6.21577e-11
-0.000111899
1.72573e-06
-5.26228e-11
-0.000112098
1.98321e-06
-5.38869e-11
-0.000112317
2.15332e-06
-6.30082e-11
-0.00011252
2.06829e-06
-7.32575e-11
-0.000112629
1.48375e-06
-5.55737e-11
-0.000112484
6.05005e-08
2.64169e-11
-0.000111805
-2.61793e-06
8.30244e-11
-0.000110129
-7.00933e-06
2.6805e-10
-0.000106792
-1.34494e-05
8.87169e-10
-2.18671e-05
1.25681e-09
-0.000101015
-0.000109008
2.42512e-05
-2.16652e-09
-0.000110908
1.57085e-05
-1.83688e-09
-0.00011161
9.79655e-06
-1.14321e-09
-0.000111772
6.00713e-06
-7.64556e-10
-0.000111728
3.69952e-06
-4.49447e-10
-0.000111624
2.36108e-06
-2.36755e-10
-0.000111513
1.64201e-06
-1.1729e-10
-0.000111407
1.32249e-06
-5.38985e-11
-0.000111303
1.26778e-06
-2.2924e-11
-0.0001112
1.39069e-06
-1.11225e-11
-0.000111096
1.6224e-06
-1.18374e-11
-0.000111001
1.88772e-06
-2.26254e-11
-0.000110928
2.08061e-06
-4.35704e-11
-0.000110896
2.03656e-06
-7.34679e-11
-0.000110912
1.4995e-06
-8.91822e-11
-0.000110932
8.06694e-08
-4.69727e-11
-0.000110793
-2.75719e-06
-1.80067e-11
-0.00011009
-7.71267e-06
1.55159e-10
-0.000108033
-1.55073e-05
1.51566e-09
-2.651e-05
3.17382e-09
-0.000103393
-0.00010658
2.63923e-05
-5.77968e-09
-0.000106389
1.5521e-05
-3.79017e-09
-0.00010549
8.89878e-06
-1.73912e-09
-0.000104571
5.08947e-06
-9.06003e-10
-0.000103835
2.96431e-06
-3.84635e-10
-0.000103288
1.81416e-06
-1.18427e-10
-0.000102875
1.22851e-06
-1.42151e-11
-0.000102534
9.81161e-07
2.01353e-11
-0.000102214
9.4852e-07
2.46462e-11
-0.000101883
1.0591e-06
1.53462e-11
-0.000101522
1.26208e-06
-2.36667e-12
-0.000101139
1.5043e-06
-2.79633e-11
-0.000100767
1.70841e-06
-6.24536e-11
-0.000100476
1.74572e-06
-1.09233e-10
-0.000100373
1.3969e-06
-1.49604e-10
-0.000100582
2.89766e-07
-9.06647e-11
-0.000101159
-2.18055e-06
9.29736e-11
-0.00010192
-6.95178e-06
4.68848e-10
-0.000102086
-1.53446e-05
3.64374e-09
-2.88127e-05
8.71565e-09
-9.97925e-05
-9.55325e-05
2.50637e-05
-9.83131e-09
-9.24604e-05
1.24528e-05
-3.96032e-09
-8.97861e-05
6.22526e-06
-7.91483e-10
-8.78926e-05
3.19628e-06
-3.04734e-10
-8.66428e-05
1.71453e-06
3.74298e-11
-8.58208e-05
9.9199e-07
1.58422e-10
-8.52461e-05
6.53675e-07
1.49512e-10
-8.47892e-05
5.24089e-07
1.22825e-10
-8.43614e-05
5.20596e-07
1.01846e-10
-8.39044e-05
6.02053e-07
8.70627e-11
-8.33858e-05
7.43358e-07
7.47261e-11
-8.28016e-05
9.2004e-07
5.90053e-11
-8.21877e-05
1.09452e-06
3.09492e-11
-8.16394e-05
1.19746e-06
-3.49957e-11
-8.13373e-05
1.09498e-06
-1.34402e-10
-8.15698e-05
5.22238e-07
-5.8082e-11
-8.26967e-05
-1.05371e-06
1.03312e-10
-8.50186e-05
-4.62945e-06
-4.48358e-10
-8.82065e-05
-1.216e-05
3.23353e-09
-2.71698e-05
1.3954e-08
-8.98633e-05
-7.30378e-05
1.77212e-05
-1.23045e-08
-6.68969e-05
6.30647e-06
5.43708e-09
-6.31256e-05
2.44793e-06
6.05234e-09
-6.09618e-05
1.02988e-06
2.56343e-09
-5.97231e-05
4.74535e-07
1.3178e-09
-5.89827e-05
2.50824e-07
7.94633e-10
-5.84924e-05
1.62886e-07
4.94126e-10
-5.81066e-05
1.37865e-07
3.70396e-10
-5.77351e-05
1.48811e-07
3.54085e-10
-5.73191e-05
1.8561e-07
3.98148e-10
-5.68202e-05
2.44035e-07
4.78384e-10
-5.62216e-05
3.20789e-07
5.74083e-10
-5.55374e-05
4.09731e-07
6.48793e-10
-5.48366e-05
4.95978e-07
6.08048e-10
-5.42845e-05
5.42645e-07
3.2926e-10
-5.42256e-05
4.63411e-07
-1.31142e-10
-5.52232e-05
-5.44507e-08
-1.68048e-09
-5.82825e-05
-1.56258e-06
-7.48897e-09
-6.44613e-05
-5.97117e-06
-1.00734e-08
-1.88802e-05
1.52054e-08
-7.27661e-05
-3.32294e-05
-6.79273e-08
-2.69116e-05
-1.13844e-08
-2.44629e-05
-7.78894e-10
-2.34312e-05
-1.83191e-09
-2.29555e-05
-1.18604e-09
-2.27041e-05
-5.51109e-10
-2.25409e-05
-3.08543e-10
-2.24028e-05
-2.16349e-10
-2.22538e-05
-1.89907e-10
-2.2068e-05
-2.08162e-10
-2.18237e-05
-2.57839e-10
-2.15026e-05
-3.26015e-10
-2.10924e-05
-3.94427e-10
-2.0596e-05
-4.30704e-10
-2.00531e-05
-3.19774e-10
-1.95899e-05
2.55752e-10
-1.96452e-05
8.33409e-10
-2.12053e-05
-2.44981e-09
-2.71815e-05
5.04482e-09
8.53233e-08
-4.6147e-05
-1.94084e-05
1.39867e-06
6.30095e-13
-2.04324e-05
1.02552e-06
4.93471e-13
-2.11461e-05
7.14606e-07
3.40909e-13
-2.16253e-05
4.79803e-07
2.6393e-13
-2.1942e-05
3.17111e-07
2.81263e-13
-2.21561e-05
2.14349e-07
2.95395e-13
-2.23141e-05
1.58115e-07
2.37484e-13
-2.24511e-05
1.37184e-07
8.787e-14
-2.25942e-05
1.43219e-07
1.29804e-14
-2.2764e-05
1.69955e-07
-3.57999e-14
-2.29754e-05
2.11633e-07
-1.14314e-13
-2.32361e-05
2.61045e-07
-1.33392e-13
-2.35431e-05
3.0739e-07
-9.35674e-14
-2.38769e-05
3.34189e-07
-2.1593e-14
-2.41942e-05
3.17815e-07
9.66065e-14
-2.44214e-05
2.27694e-07
2.96001e-13
-2.44512e-05
3.00527e-08
5.63861e-13
-2.41458e-05
-3.05518e-07
9.0166e-13
-2.33581e-05
-7.88307e-07
1.2896e-12
-1.3939e-06
1.67345e-12
-2.19658e-05
-5.04758e-05
4.84117e-06
9.00578e-13
-5.3019e-05
3.56719e-06
7.1654e-13
-5.48126e-05
2.50692e-06
5.22235e-13
-5.60373e-05
1.7035e-06
3.78138e-13
-5.68628e-05
1.14199e-06
3.33829e-13
-5.74304e-05
7.81345e-07
3.34903e-13
-5.78492e-05
5.76549e-07
3.36579e-13
-5.82015e-05
4.89149e-07
2.28753e-13
-5.85481e-05
4.8942e-07
1.04749e-13
-5.89323e-05
5.53829e-07
3.11044e-14
-5.93813e-05
6.60186e-07
-1.65652e-14
-5.99023e-05
7.81697e-07
-2.29153e-14
-6.0476e-05
8.80634e-07
-2.26079e-14
-6.10448e-05
9.02551e-07
-1.35096e-14
-6.15e-05
7.72729e-07
1.32465e-14
-6.16702e-05
3.9796e-07
1.06737e-13
-6.13179e-05
-3.21754e-07
2.85131e-13
-6.01542e-05
-1.46805e-06
5.53815e-13
-5.78785e-05
-3.06216e-06
8.85237e-13
-5.01572e-06
1.2316e-12
-5.42541e-05
-7.47764e-05
9.59261e-06
1.14729e-12
-7.82068e-05
6.99714e-06
9.33049e-13
-8.05761e-05
4.87585e-06
6.65348e-13
-8.21662e-05
3.29315e-06
4.28216e-13
-8.32237e-05
2.19909e-06
3.04509e-13
-8.39421e-05
1.4995e-06
2.46399e-13
-8.44648e-05
1.09903e-06
1.96164e-13
-8.4895e-05
9.19163e-07
6.70209e-14
-8.53059e-05
9.00213e-07
-2.42737e-14
-8.57475e-05
9.95291e-07
-2.92723e-14
-8.62481e-05
1.16073e-06
-6.79832e-15
-8.68115e-05
1.34499e-06
8.95008e-15
-8.7408e-05
1.47711e-06
-5.52815e-15
-8.79616e-05
1.45613e-06
-2.12472e-15
-8.83331e-05
1.14421e-06
8.15005e-14
-8.83038e-05
3.6885e-07
2.54007e-13
-8.7568e-05
-1.05738e-06
4.83839e-13
-8.57438e-05
-3.29179e-06
7.62857e-13
-8.24213e-05
-6.38416e-06
1.0705e-12
-1.01762e-05
1.36719e-12
-7.72604e-05
-9.26614e-05
1.49219e-05
1.29856e-12
-9.63087e-05
1.06438e-05
1.09299e-12
-9.86954e-05
7.2619e-06
8.4326e-13
-0.000100218
4.81524e-06
6.01213e-13
-0.000101186
3.16653e-06
4.0557e-13
-0.000101818
2.13125e-06
2.70787e-13
-0.000102262
1.54301e-06
2.23162e-13
-0.000102617
1.27392e-06
1.31566e-13
-0.000102948
1.23142e-06
-1.44802e-14
-0.000103299
1.34565e-06
-9.45465e-14
-0.000103692
1.55375e-06
-1.09033e-13
-0.00010413
1.78311e-06
-1.26144e-13
-0.000104587
1.93418e-06
-1.75504e-13
-0.000104995
1.86399e-06
-1.98142e-13
-0.000105224
1.37328e-06
-1.41779e-13
-0.000105059
2.03739e-07
-1.37838e-14
-0.000104176
-1.93976e-06
1.43718e-13
-0.000102136
-5.33176e-06
3.57053e-13
-9.84126e-05
-1.01071e-05
6.52316e-13
-1.60834e-05
9.43004e-13
-9.2505e-05
-0.000104155
2.00794e-05
1.23364e-12
-0.000107311
1.37987e-05
1.05251e-12
-0.000109138
9.08804e-06
8.65468e-13
-0.000110165
5.84142e-06
6.76032e-13
-0.00011074
3.74137e-06
4.87533e-13
-0.000111073
2.46381e-06
3.8677e-13
-0.000111283
1.75279e-06
4.05135e-13
-0.000111438
1.42883e-06
3.49312e-13
-0.000111578
1.37113e-06
1.41626e-13
-0.000111727
1.49429e-06
-5.31404e-14
-0.000111899
1.72553e-06
-1.5764e-13
-0.000112098
1.98276e-06
-2.12703e-13
-0.000112317
2.15251e-06
-2.69772e-13
-0.00011252
2.06701e-06
-2.89898e-13
-0.000112629
1.48198e-06
-2.51794e-13
-0.000112484
5.92635e-08
-1.75871e-13
-0.000111804
-2.61962e-06
-7.07226e-14
-0.000110127
-7.00901e-06
4.66297e-14
-0.00010679
-1.34428e-05
2.01476e-13
-2.18562e-05
3.77573e-13
-0.000101016
-0.000109006
2.42314e-05
1.00373e-12
-0.000110902
1.56936e-05
7.80252e-13
-0.000111605
9.78985e-06
6.40144e-13
-0.000111769
6.004e-06
5.15542e-13
-0.000111726
3.69823e-06
3.02955e-13
-0.000111623
2.36072e-06
1.90411e-13
-0.000111512
1.642e-06
2.96198e-13
-0.000111406
1.32259e-06
3.56052e-13
-0.000111303
1.26787e-06
2.17591e-13
-0.000111199
1.39071e-06
5.52879e-15
-0.000111096
1.62226e-06
-1.43781e-13
-0.000111001
1.88733e-06
-2.20501e-13
-0.000110928
2.07985e-06
-2.39194e-13
-0.000110896
2.03524e-06
-1.91039e-13
-0.000110912
1.49749e-06
-1.03419e-13
-0.000110932
7.9087e-08
-3.93226e-14
-0.000110791
-2.76006e-06
-8.32301e-14
-0.000110086
-7.71381e-06
-1.89481e-13
-0.000108031
-1.54972e-05
-2.17088e-13
-2.64875e-05
-1.25783e-13
-0.000103396
-0.000106573
2.63454e-05
9.10175e-13
-0.000106379
1.54958e-05
6.98027e-13
-0.000105483
8.8921e-06
5.65262e-13
-0.000104568
5.08765e-06
4.04357e-13
-0.000103834
2.96407e-06
1.13632e-13
-0.000103288
1.81444e-06
-5.13029e-14
-0.000102874
1.22883e-06
7.41728e-14
-0.000102533
9.81396e-07
2.30724e-13
-0.000102214
9.48656e-07
1.84578e-13
-0.000101882
1.05913e-06
7.7616e-16
-0.000101522
1.26195e-06
-1.68042e-13
-0.000101139
1.50395e-06
-2.59833e-13
-0.000100767
1.70769e-06
-2.61144e-13
-0.000100476
1.74441e-06
-2.09338e-13
-0.000100373
1.39479e-06
-1.96951e-13
-0.000100582
2.87341e-07
-3.49589e-13
-0.000101157
-2.18447e-06
-7.32291e-13
-0.000101916
-6.9547e-06
-1.18011e-12
-0.000102082
-1.53274e-05
-1.30661e-12
-2.87591e-05
-9.85369e-13
-9.98017e-05
-9.55185e-05
2.49743e-05
8.26781e-13
-9.24503e-05
1.24236e-05
7.1195e-13
-8.97828e-05
6.22379e-06
7.38051e-13
-8.78924e-05
3.19697e-06
6.67419e-13
-8.66434e-05
1.71514e-06
3.72821e-13
-8.58214e-05
9.92524e-07
1.04521e-13
-8.52464e-05
6.54014e-07
1.32964e-13
-8.47892e-05
5.24273e-07
2.42008e-13
-8.43611e-05
5.20685e-07
1.89458e-13
-8.39039e-05
6.02071e-07
2.0216e-14
-8.33852e-05
7.433e-07
-1.27799e-13
-8.28011e-05
9.19872e-07
-1.83668e-13
-8.21875e-05
1.09416e-06
-1.64192e-13
-8.16399e-05
1.19673e-06
-1.73101e-13
-8.13388e-05
1.09358e-06
-3.65047e-13
-8.15716e-05
5.20129e-07
-8.55051e-13
-8.27001e-05
-1.0559e-06
-1.57017e-12
-8.5021e-05
-4.63429e-06
-2.16735e-12
-8.8204e-05
-1.21412e-05
-2.21825e-12
-2.70706e-05
-1.82241e-12
-8.98785e-05
-7.302e-05
1.76423e-05
4.95009e-13
-6.69045e-05
6.31356e-06
6.22366e-13
-6.31342e-05
2.45957e-06
5.8582e-13
-6.09681e-05
1.03337e-06
4.29613e-13
-5.97268e-05
4.75186e-07
3.83625e-13
-5.89845e-05
2.51027e-07
3.24185e-13
-5.8493e-05
1.63054e-07
3.36261e-13
-5.81065e-05
1.38084e-07
3.24822e-13
-5.77346e-05
1.49131e-07
2.05629e-13
-5.73182e-05
1.86082e-07
4.72084e-14
-5.68191e-05
2.44719e-07
-3.9178e-14
-5.62204e-05
3.21761e-07
-1.74497e-14
-5.55367e-05
4.1108e-07
3.49686e-14
-5.48372e-05
4.97822e-07
-3.76593e-14
-5.42882e-05
5.44954e-07
-4.17801e-13
-5.42319e-05
4.63653e-07
-1.06712e-12
-5.52377e-05
-5.18049e-08
-1.73792e-12
-5.83081e-05
-1.57138e-06
-2.15052e-12
-6.44762e-05
-5.98308e-06
-2.23826e-12
-1.88168e-05
-2.44881e-12
-7.27148e-05
-3.32199e-05
4.15973e-13
-2.69178e-05
3.2107e-13
-2.4459e-05
4.86224e-13
-2.34274e-05
3.81129e-13
-2.29534e-05
1.94067e-13
-2.2703e-05
1.84459e-13
-2.25402e-05
2.37922e-13
-2.24023e-05
2.12365e-13
-2.22534e-05
1.09578e-13
-2.20675e-05
1.41208e-14
-2.18231e-05
-1.60253e-14
-2.15016e-05
4.5949e-14
-2.10909e-05
7.58463e-14
-2.05936e-05
-9.20652e-14
-2.00489e-05
-5.91726e-13
-1.9585e-05
-1.17402e-12
-1.9636e-05
-1.51609e-12
-2.12098e-05
-1.69372e-12
-2.71878e-05
-2.74172e-12
-4.40082e-12
-4.59193e-05
-1.94084e-05
1.39867e-06
-2.1067e-09
-2.04324e-05
1.02552e-06
-1.46973e-09
-2.11461e-05
7.14606e-07
-9.69661e-10
-2.16252e-05
4.79803e-07
-6.09372e-10
-2.1942e-05
3.17111e-07
-3.71636e-10
-2.21561e-05
2.14349e-07
-2.28846e-10
-2.23141e-05
1.58115e-07
-1.54634e-10
-2.24511e-05
1.37184e-07
-1.29051e-10
-2.25942e-05
1.43218e-07
-1.38756e-10
-2.2764e-05
1.69954e-07
-1.754e-10
-2.29754e-05
2.11632e-07
-2.33101e-10
-2.32361e-05
2.61044e-07
-3.05885e-10
-2.35431e-05
3.07389e-07
-3.84605e-10
-2.38769e-05
3.34188e-07
-4.53784e-10
-2.41942e-05
3.17814e-07
-4.87817e-10
-2.44214e-05
2.27694e-07
-4.45807e-10
-2.44512e-05
3.00528e-08
-2.74118e-10
-2.41457e-05
-3.05517e-07
6.21149e-11
-2.33581e-05
-7.88305e-07
6.53269e-10
-1.3939e-06
1.54139e-09
-2.19657e-05
-5.04757e-05
4.84117e-06
1.90073e-09
-5.3019e-05
3.56719e-06
1.58476e-09
-5.48126e-05
2.50692e-06
1.25076e-09
-5.60372e-05
1.7035e-06
9.52748e-10
-5.68628e-05
1.14199e-06
7.09634e-10
-5.74303e-05
7.81344e-07
5.30623e-10
-5.78492e-05
5.76548e-07
4.14982e-10
-5.82015e-05
4.89148e-07
3.55186e-10
-5.8548e-05
4.89418e-07