/*--------------------------------*- C++ -*----------------------------------*\
| =========                 |                                                 |
| \\      /  F ield         | OpenFOAM: The Open Source CFD Toolbox           |
|  \\    /   O peration     | Version:  2.4.0                                 |
|   \\  /    A nd           | Web:      www.OpenFOAM.org                      |
|    \\/     M anipulation  |                                                 |
\*---------------------------------------------------------------------------*/
FoamFile
{
    version     2.0;
    format      ascii;
    class       volVectorField;
    location    "2.1";
    object      U;
}
// * * * * * * * * * * * * * * * * * * * * * * * * * * * * * * * * * * * * * //

dimensions      [0 1 -1 0 0 0 0];

internalField   nonuniform List<vector> 
4800
(
(0.00029353 -0.000296969 -1.85402e-07)
(-1.09323e-05 0.000165429 0.000212815)
(-0.00186049 0.000662924 0.000431838)
(-0.00481086 0.000997078 0.000590352)
(-0.00847393 0.00118559 0.000645425)
(-0.0125159 0.0012659 0.000577256)
(-0.0166601 0.00126496 0.000379912)
(-0.020674 0.00119628 5.41866e-05)
(-0.0243525 0.00106715 -0.000393635)
(-0.0275226 0.000889509 -0.000950464)
(-0.000190149 1.02454e-05 -0.000212812)
(-0.00247214 0.00238622 4.6284e-06)
(-0.00796822 0.00468509 0.000166344)
(-0.015696 0.0063349 0.000258379)
(-0.0249258 0.00733627 0.000263122)
(-0.034995 0.0077822 0.000164997)
(-0.0452794 0.00775765 -4.2396e-05)
(-0.0552132 0.00732136 -0.000361085)
(-0.0642907 0.00652776 -0.000789355)
(-0.0720961 0.00546491 -0.0013203)
(-0.000771651 0.00198331 -0.000436871)
(-0.00512994 0.00799558 -0.000150486)
(-0.0140259 0.0133151 1.19962e-05)
(-0.0258057 0.0171913 8.29656e-05)
(-0.0394897 0.0195951 7.07172e-05)
(-0.0542296 0.0206579 -3.35359e-05)
(-0.0691803 0.0205201 -0.000233909)
(-0.0835397 0.0193014 -0.000533851)
(-0.0965684 0.0171458 -0.000935958)
(-0.107646 0.0142985 -0.00143931)
(-0.0012328 0.00533591 -0.000584751)
(-0.00732704 0.016321 -0.000214859)
(-0.0190743 0.0253617 -2.92637e-05)
(-0.0341392 0.0318656 4.36248e-05)
(-0.0513126 0.0358803 3.33689e-05)
(-0.0696188 0.0375943 -6.30525e-05)
(-0.0880631 0.0371891 -0.000248124)
(-0.105667 0.0348294 -0.000527797)
(-0.121486 0.0307505 -0.000910683)
(-0.13468 0.0253957 -0.00140422)
(-0.00154554 0.00973788 -0.000584235)
(-0.0088832 0.0267604 -0.000142121)
(-0.02271 0.040036 6.79436e-05)
(-0.0401508 0.0494063 0.000152691)
(-0.0598118 0.0551182 0.000157031)
(-0.0806282 0.0574513 8.12944e-05)
(-0.101505 0.0566125 -7.78387e-05)
(-0.121326 0.0527742 -0.000331604)
(-0.138952 0.0462261 -0.000698335)
(-0.153251 0.0376094 -0.00120046)
(-0.00170646 0.0148059 -0.00038817)
(-0.00972271 0.0385926 0.000107652)
(-0.0247133 0.0564647 0.000337845)
(-0.0434879 0.0688628 0.000441356)
(-0.0645406 0.0763241 0.000472136)
(-0.0867603 0.0792498 0.000431258)
(-0.109 0.0778529 0.000311436)
(-0.130054 0.0722542 9.23934e-05)
(-0.148599 0.0627087 -0.000259354)
(-0.163093 0.049969 -0.000795757)
(-0.00171738 0.0201295 2.57377e-05)
(-0.0098181 0.0509897 0.000554069)
(-0.0249781 0.073618 0.000797016)
(-0.0439414 0.0891123 0.000924169)
(-0.065173 0.0983455 0.00099278)
(-0.0875605 0.10186 0.00100268)
(-0.109961 0.099856 0.000939739)
(-0.131151 0.0923254 0.000770873)
(-0.149711 0.0793293 0.000441713)
(-0.163544 0.0614643 -0.000159185)
(-0.00158593 0.0252991 0.000657244)
(-0.00918864 0.0630942 0.00119709)
(-0.023515 0.090399 0.00144428)
(-0.0414733 0.108926 0.00159853)
(-0.0615656 0.119883 0.00171582)
(-0.0827043 0.123966 0.00179422)
(-0.103791 0.121359 0.00181137)
(-0.123681 0.11186 0.0017194)
(-0.141085 0.0951292 0.00144227)
(-0.153312 0.0710009 0.000754259)
(-0.00133169 0.0299325 0.00148452)
(-0.0079213 0.0740875 0.00201763)
(-0.0204995 0.105723 0.00226044)
(-0.0363119 0.127032 0.00244312)
(-0.0539222 0.139505 0.0026172)
(-0.0722387 0.144004 0.00278032)
(-0.0901738 0.140744 0.00290274)
(-0.106675 0.129374 0.00292107)
(-0.120961 0.109091 0.00274891)
(-0.130176 0.0781363 0.00195886)
(-0.000992418 0.0337194 0.0024665)
(-0.00619432 0.0832823 0.00297994)
(-0.016329 0.118635 0.00321007)
(-0.0290787 0.14223 0.00341867)
(-0.0430411 0.155726 0.00365183)
(-0.0570064 0.160111 0.00391174)
(-0.0696821 0.155684 0.00417069)
(-0.0797266 0.142072 0.0043617)
(-0.0868528 0.118318 0.0044538)
(-0.0900307 0.0816651 0.00383464)
(0.000298455 -0.000301395 -5.97177e-08)
(-3.8908e-06 0.000159608 1.306e-06)
(-0.00185681 0.000649115 1.98085e-06)
(-0.00480831 0.000977654 2.54529e-06)
(-0.0084725 0.00116311 2.8772e-06)
(-0.0125154 0.00124194 3.01165e-06)
(-0.0166603 0.00124097 3.01652e-06)
(-0.0206751 0.0011736 2.89318e-06)
(-0.0243547 0.00104685 2.62278e-06)
(-0.0275259 0.000872221 2.18834e-06)
(-0.000182921 3.07272e-06 -1.13345e-06)
(-0.0024692 0.00238423 2.91104e-07)
(-0.00797562 0.00467404 -1.16609e-06)
(-0.0157006 0.00631884 -1.82981e-06)
(-0.024928 0.00731845 -2.16057e-06)
(-0.0349957 0.00776359 -2.36926e-06)
(-0.0452785 0.00773919 -2.37483e-06)
(-0.0552112 0.00730407 -2.20761e-06)
(-0.0642887 0.0065125 -1.93642e-06)
(-0.0720949 0.00545172 -1.6703e-06)
(-0.000755945 0.00197787 -1.92271e-06)
(-0.00511887 0.00800201 1.72698e-06)
(-0.0140326 0.0133182 8.23794e-08)
(-0.0258078 0.0171946 -6.63298e-08)
(-0.0394897 0.0196002 9.65594e-08)
(-0.0542294 0.0206641 9.0692e-08)
(-0.0691795 0.0205267 9.89974e-08)
(-0.0835385 0.0193081 1.42118e-07)
(-0.0965682 0.0171527 1.91816e-07)
(-0.107648 0.0143041 1.16557e-07)
(-0.00121034 0.00533121 -2.77243e-06)
(-0.00731102 0.016325 2.42503e-06)
(-0.0190831 0.0253608 -3.16676e-09)
(-0.0341409 0.0318631 -2.03526e-07)
(-0.0513116 0.0358782 7.81009e-08)
(-0.0696179 0.0375926 1.11233e-07)
(-0.0880617 0.0371878 1.42484e-07)
(-0.105665 0.0348292 2.21621e-07)
(-0.121486 0.0307524 3.70489e-07)
(-0.134685 0.0253978 3.24155e-07)
(-0.00151871 0.00973494 -3.37282e-06)
(-0.00886505 0.0267626 2.84105e-06)
(-0.0227222 0.0400341 -3.15862e-07)
(-0.0401537 0.0494023 -6.87489e-07)
(-0.0598107 0.0551138 -4.07717e-07)
(-0.0806271 0.0574468 -3.86633e-07)
(-0.101503 0.0566081 -3.42053e-07)
(-0.121322 0.0527711 -1.93798e-07)
(-0.13895 0.0462274 2.42807e-07)
(-0.153258 0.0376128 4.56507e-07)
(-0.00167724 0.014805 -3.66454e-06)
(-0.00970359 0.0385938 3.1365e-06)
(-0.0247277 0.0564636 -4.12945e-07)
(-0.0434919 0.0688603 -8.73421e-07)
(-0.0645399 0.0763211 -5.98401e-07)
(-0.0867593 0.0792463 -5.92659e-07)
(-0.108997 0.0778488 -5.77413e-07)
(-0.130046 0.0722507 -4.60459e-07)
(-0.148593 0.0627131 4.10561e-07)
(-0.163108 0.0499807 1.25164e-06)
(-0.00168791 0.0201307 -3.66719e-06)
(-0.00979926 0.0509898 3.21067e-06)
(-0.0249935 0.0736178 -4.41422e-07)
(-0.0439462 0.0891114 -9.55159e-07)
(-0.065173 0.0983439 -7.22559e-07)
(-0.0875603 0.101858 -7.49636e-07)
(-0.109958 0.0998523 -8.30964e-07)
(-0.131138 0.0923206 -9.99426e-07)
(-0.149693 0.0793398 5.36498e-07)
(-0.163573 0.0615018 3.16123e-06)
(-0.00155828 0.0253022 -3.37762e-06)
(-0.00917131 0.0630935 3.077e-06)
(-0.0235303 0.0903998 -4.02746e-07)
(-0.0414786 0.108927 -9.29433e-07)
(-0.0615663 0.119883 -7.57535e-07)
(-0.0827052 0.123965 -7.71924e-07)
(-0.10379 0.121354 -8.74334e-07)
(-0.123659 0.111845 -1.5562e-06)
(-0.141034 0.095125 1.56352e-06)
(-0.153358 0.0710605 1.10243e-05)
(-0.00130765 0.0299374 -2.81686e-06)
(-0.00790644 0.0740864 2.78563e-06)
(-0.0205134 0.105725 -2.78526e-07)
(-0.0363174 0.127036 -7.80989e-07)
(-0.0539242 0.139509 -7.20401e-07)
(-0.0722432 0.144006 -7.90597e-07)
(-0.0901846 0.140741 -1.07306e-06)
(-0.106658 0.129341 -3.72596e-06)
(-0.120858 0.109017 -1.07864e-06)
(-0.130224 0.0781056 2.47476e-05)
(-0.000973161 0.0337252 -2.04776e-06)
(-0.00618232 0.0832809 2.40566e-06)
(-0.0163398 0.118638 -4.50687e-08)
(-0.0290827 0.142237 -4.45186e-07)
(-0.0430425 0.155738 -4.81893e-07)
(-0.0570132 0.160133 -7.27156e-07)
(-0.0697149 0.155727 -1.5629e-06)
(-0.0797674 0.142135 -9.37681e-06)
(-0.0867657 0.118379 -2.18203e-05)
(-0.0901086 0.0817811 7.24371e-06)
(0.000298469 -0.000301381 -1.10855e-07)
(-3.87096e-06 0.000159614 -1.36814e-06)
(-0.0018568 0.000649116 -2.00103e-06)
(-0.0048083 0.000977655 -2.54973e-06)
(-0.00847249 0.00116311 -2.87579e-06)
(-0.0125154 0.00124194 -3.0081e-06)
(-0.0166603 0.00124097 -3.01255e-06)
(-0.0206751 0.0011736 -2.89017e-06)
(-0.0243547 0.00104685 -2.62053e-06)
(-0.0275259 0.000872221 -2.18627e-06)
(-0.000182915 3.09398e-06 1.07078e-06)
(-0.00246918 0.00238424 -3.24038e-07)
(-0.0079756 0.00467404 1.1546e-06)
(-0.0157006 0.00631884 1.8289e-06)
(-0.024928 0.00731845 2.16383e-06)
(-0.0349956 0.00776359 2.37389e-06)
(-0.0452784 0.00773919 2.37946e-06)
(-0.0552112 0.00730407 2.21128e-06)
(-0.0642886 0.00651249 1.93935e-06)
(-0.0720948 0.00545172 1.67294e-06)
(-0.000755941 0.00197788 1.90436e-06)
(-0.00511886 0.00800201 -1.73674e-06)
(-0.0140326 0.0133182 -8.37148e-08)
(-0.0258078 0.0171946 6.98564e-08)
(-0.0394897 0.0196002 -9.14062e-08)
(-0.0542294 0.0206641 -8.50207e-08)
(-0.0691794 0.0205267 -9.34185e-08)
(-0.0835384 0.0193081 -1.37551e-07)
(-0.0965681 0.0171527 -1.88172e-07)
(-0.107648 0.0143041 -1.134e-07)
(-0.00121034 0.00533121 2.77152e-06)
(-0.007311 0.0163249 -2.42324e-06)
(-0.0190831 0.0253608 7.65445e-09)
(-0.0341409 0.0318631 2.0971e-07)
(-0.0513115 0.0358782 -7.17883e-08)
(-0.0696179 0.0375926 -1.04861e-07)
(-0.0880616 0.0371878 -1.36314e-07)
(-0.105665 0.0348291 -2.16587e-07)
(-0.121486 0.0307524 -3.66535e-07)
(-0.134685 0.0253978 -3.20777e-07)
(-0.00151871 0.00973494 3.37915e-06)
(-0.00886504 0.0267626 -2.83407e-06)
(-0.0227222 0.040034 3.23282e-07)
(-0.0401537 0.0494023 6.95256e-07)
(-0.0598107 0.0551138 4.14971e-07)
(-0.080627 0.0574468 3.93653e-07)
(-0.101503 0.0566081 3.48676e-07)
(-0.121322 0.052771 1.99161e-07)
(-0.13895 0.0462274 -2.38684e-07)
(-0.153258 0.0376128 -4.53143e-07)
(-0.00167724 0.014805 3.67314e-06)
(-0.00970358 0.0385938 -3.12788e-06)
(-0.0247277 0.0564636 4.21148e-07)
(-0.0434918 0.0688603 8.81451e-07)
(-0.0645399 0.076321 6.05758e-07)
(-0.0867592 0.0792462 5.9965e-07)
(-0.108997 0.0778488 5.83844e-07)
(-0.130046 0.0722507 4.65549e-07)
(-0.148593 0.0627131 -4.06763e-07)
(-0.163107 0.0499806 -1.24864e-06)
(-0.0016879 0.0201307 3.67595e-06)
(-0.00979925 0.0509898 -3.20196e-06)
(-0.0249935 0.0736177 4.49418e-07)
(-0.0439461 0.0891114 9.62896e-07)
(-0.065173 0.0983438 7.29698e-07)
(-0.0875603 0.101858 7.56299e-07)
(-0.109958 0.0998523 8.3686e-07)
(-0.131138 0.0923206 1.00395e-06)
(-0.149693 0.0793397 -5.33158e-07)
(-0.163573 0.0615018 -3.15858e-06)
(-0.00155828 0.0253022 3.38619e-06)
(-0.0091713 0.0630935 -3.06852e-06)
(-0.0235303 0.0903997 4.10544e-07)
(-0.0414785 0.108927 9.3707e-07)
(-0.0615663 0.119883 7.64663e-07)
(-0.0827051 0.123965 7.7841e-07)
(-0.10379 0.121354 8.79777e-07)
(-0.123659 0.111845 1.5603e-06)
(-0.141033 0.0951249 -1.56043e-06)
(-0.153358 0.0710605 -1.10217e-05)
(-0.00130765 0.0299374 2.82476e-06)
(-0.00790643 0.0740863 -2.77782e-06)
(-0.0205133 0.105725 2.85867e-07)
(-0.0363174 0.127036 7.88273e-07)
(-0.0539241 0.139509 7.27246e-07)
(-0.0722432 0.144006 7.96639e-07)
(-0.0901846 0.140741 1.07792e-06)
(-0.106658 0.129341 3.72976e-06)
(-0.120858 0.109017 1.08182e-06)
(-0.130224 0.0781056 -2.4745e-05)
(-0.000973159 0.0337252 2.05454e-06)
(-0.00618231 0.0832809 -2.39883e-06)
(-0.0163398 0.118638 5.1659e-08)
(-0.0290827 0.142237 4.51736e-07)
(-0.0430425 0.155738 4.88028e-07)
(-0.0570132 0.160133 7.32447e-07)
(-0.0697149 0.155727 1.56721e-06)
(-0.0797674 0.142135 9.38058e-06)
(-0.0867657 0.118379 2.18238e-05)
(-0.0901086 0.0817811 -7.24103e-06)
(0.000293594 -0.000296905 3.64723e-07)
(-1.08517e-05 0.000165448 -0.000212749)
(-0.00186046 0.000662927 -0.000431817)
(-0.00481085 0.000997077 -0.000590347)
(-0.00847392 0.00118559 -0.000645426)
(-0.0125159 0.0012659 -0.00057726)
(-0.0166601 0.00126496 -0.000379917)
(-0.020674 0.00119628 -5.41898e-05)
(-0.0243524 0.00106715 0.000393633)
(-0.0275226 0.000889508 0.000950462)
(-0.000190127 1.03273e-05 0.000212878)
(-0.0024721 0.00238625 -4.59358e-06)
(-0.00796819 0.0046851 -0.000166332)
(-0.0156959 0.0063349 -0.000258378)
(-0.0249257 0.00733626 -0.000263125)
(-0.0349949 0.00778219 -0.000165002)
(-0.0452793 0.00775764 4.23911e-05)
(-0.0552131 0.00732135 0.000361081)
(-0.0642905 0.00652776 0.000789352)
(-0.072096 0.0054649 0.0013203)
(-0.000771642 0.00198333 0.000436891)
(-0.00512991 0.00799558 0.000150496)
(-0.0140258 0.0133151 -1.19947e-05)
(-0.0258056 0.0171913 -8.29693e-05)
(-0.0394896 0.019595 -7.07226e-05)
(-0.0542295 0.0206579 3.35299e-05)
(-0.0691802 0.02052 0.000233903)
(-0.0835395 0.0193013 0.000533847)
(-0.0965683 0.0171458 0.000935954)
(-0.107645 0.0142985 0.00143931)
(-0.00123279 0.0053359 0.000584752)
(-0.00732701 0.016321 0.000214857)
(-0.0190742 0.0253616 2.9259e-05)
(-0.0341391 0.0318655 -4.36314e-05)
(-0.0513125 0.0358802 -3.33755e-05)
(-0.0696187 0.0375942 6.30458e-05)
(-0.0880629 0.037189 0.000248118)
(-0.105666 0.0348293 0.000527792)
(-0.121486 0.0307505 0.000910679)
(-0.13468 0.0253957 0.00140422)
(-0.00154553 0.00973787 0.000584229)
(-0.00888317 0.0267603 0.000142113)
(-0.0227099 0.040036 -6.79515e-05)
(-0.0401507 0.0494063 -0.0001527)
(-0.0598116 0.0551182 -0.000157038)
(-0.0806281 0.0574512 -8.13018e-05)
(-0.101505 0.0566124 7.78317e-05)
(-0.121326 0.0527741 0.000331599)
(-0.138952 0.0462261 0.00069833)
(-0.15325 0.0376094 0.00120046)
(-0.00170646 0.0148058 0.000388161)
(-0.00972268 0.0385925 -0.000107661)
(-0.0247133 0.0564646 -0.000337854)
(-0.0434878 0.0688627 -0.000441364)
(-0.0645404 0.076324 -0.000472144)
(-0.0867601 0.0792497 -0.000431266)
(-0.109 0.0778528 -0.000311442)
(-0.130054 0.0722542 -9.23988e-05)
(-0.148599 0.0627086 0.00025935)
(-0.163093 0.049969 0.000795754)
(-0.00171737 0.0201295 -2.57469e-05)
(-0.00981807 0.0509896 -0.000554078)
(-0.024978 0.0736179 -0.000797024)
(-0.0439413 0.0891122 -0.000924177)
(-0.0651729 0.0983454 -0.000992788)
(-0.0875604 0.10186 -0.00100269)
(-0.10996 0.0998559 -0.000939745)
(-0.131151 0.0923253 -0.000770877)
(-0.149711 0.0793293 -0.000441717)
(-0.163544 0.0614643 0.000159182)
(-0.00158592 0.025299 -0.000657253)
(-0.00918861 0.0630941 -0.0011971)
(-0.023515 0.0903989 -0.00144428)
(-0.0414732 0.108926 -0.00159854)
(-0.0615655 0.119883 -0.00171583)
(-0.0827042 0.123966 -0.00179422)
(-0.103791 0.121358 -0.00181137)
(-0.123681 0.11186 -0.0017194)
(-0.141085 0.0951292 -0.00144227)
(-0.153312 0.0710009 -0.000754262)
(-0.00133169 0.0299325 -0.00148453)
(-0.00792128 0.0740874 -0.00201764)
(-0.0204994 0.105723 -0.00226045)
(-0.0363119 0.127032 -0.00244313)
(-0.0539221 0.139505 -0.0026172)
(-0.0722386 0.144003 -0.00278033)
(-0.0901737 0.140744 -0.00290275)
(-0.106675 0.129374 -0.00292107)
(-0.120961 0.109091 -0.00274891)
(-0.130176 0.0781363 -0.00195886)
(-0.000992413 0.0337193 -0.00246651)
(-0.0061943 0.0832822 -0.00297995)
(-0.0163289 0.118635 -0.00321008)
(-0.0290786 0.142229 -0.00341867)
(-0.043041 0.155726 -0.00365184)
(-0.0570063 0.160111 -0.00391175)
(-0.069682 0.155684 -0.0041707)
(-0.0797266 0.142072 -0.0043617)
(-0.0868528 0.118318 -0.00445381)
(-0.0900306 0.0816652 -0.00383465)
(-0.0300746 0.000688443 -0.00159558)
(-0.0319955 0.000497549 -0.00230366)
(-0.0333606 0.000339303 -0.00305196)
(-0.0342884 0.000221313 -0.00382343)
(-0.0349017 0.000141246 -0.00460677)
(-0.0353075 9.236e-05 -0.00539548)
(-0.0355907 6.74641e-05 -0.00618646)
(-0.0358158 6.08223e-05 -0.006979)
(-0.0360316 6.85255e-05 -0.00777412)
(-0.0362759 8.801e-05 -0.00857443)
(-0.0365774 0.00011714 -0.00938406)
(-0.0369549 0.000153041 -0.0102089)
(-0.0374139 0.000190767 -0.0110564)
(-0.0379383 0.00022191 -0.0119357)
(-0.0384804 0.000233423 -0.0128567)
(-0.0389482 0.000207297 -0.013828)
(-0.0391965 0.000122304 -0.0148546)
(-0.0390247 -4.09429e-05 -0.0159341)
(-0.0381953 -0.000293565 -0.0170511)
(-0.0364783 -0.000624327 -0.0181746)
(-0.0783774 0.00428188 -0.00193998)
(-0.0831209 0.00315999 -0.00262853)
(-0.0865215 0.00221975 -0.00336751)
(-0.0888659 0.00150431 -0.00414173)
(-0.0904453 0.00100391 -0.00493955)
(-0.0915116 0.0006839 -0.00575288)
(-0.0922642 0.000505017 -0.00657665)
(-0.0928541 0.000433559 -0.00740827)
(-0.0933935 0.000443756 -0.00824719)
(-0.0939649 0.000515635 -0.00909463)
(-0.0946251 0.000630546 -0.00995344)
(-0.0954036 0.000765513 -0.010828)
(-0.0962944 0.000887082 -0.0117239)
(-0.0972407 0.000945522 -0.0126479)
(-0.0981143 0.000870997 -0.0136065)
(-0.0986943 0.000574774 -0.0146054)
(-0.0986517 -3.99298e-05 -0.0156464)
(-0.097555 -0.00105351 -0.0167251)
(-0.0949094 -0.00249195 -0.0178277)
(-0.0902496 -0.00427651 -0.0189279)
(-0.116399 0.0111632 -0.00203432)
(-0.122857 0.00822316 -0.00270069)
(-0.127384 0.00578152 -0.00342097)
(-0.130445 0.00393363 -0.0041806)
(-0.132477 0.00264181 -0.00496781)
(-0.133833 0.00180995 -0.00577395)
(-0.134779 0.00133377 -0.00659323)
(-0.135508 0.00112431 -0.00742223)
(-0.136158 0.00111253 -0.00825956)
(-0.136825 0.00124337 -0.00910552)
(-0.137573 0.00146488 -0.00996189)
(-0.138429 0.00171496 -0.0108318)
(-0.139377 0.00190742 -0.0117194)
(-0.140338 0.00191936 -0.0126298)
(-0.141148 0.0015836 -0.0135683)
(-0.141525 0.000693015 -0.0145396)
(-0.141049 -0.000973368 -0.0155463)
(-0.13916 -0.0035947 -0.0165863)
(-0.135195 -0.00721566 -0.0176506)
(-0.128499 -0.0116352 -0.0187189)
(-0.144727 0.019545 -0.00200243)
(-0.151755 0.0141731 -0.00267545)
(-0.156411 0.00982137 -0.00340286)
(-0.159399 0.00660181 -0.00416914)
(-0.16129 0.00439149 -0.00496183)
(-0.1625 0.00298433 -0.00577213)
(-0.163315 0.0021788 -0.00659428)
(-0.163924 0.0018122 -0.00742483)
(-0.164452 0.00176235 -0.0082621)
(-0.164985 0.00193422 -0.00910586)
(-0.165575 0.00224012 -0.00995704)
(-0.166244 0.00257752 -0.0108176)
(-0.166978 0.00280609 -0.0116905)
(-0.167708 0.0027265 -0.0125796)
(-0.168285 0.00206604 -0.0134895)
(-0.168442 0.000481262 -0.0144256)
(-0.167755 -0.00240497 -0.0153931)
(-0.165612 -0.00691745 -0.0163958)
(-0.161212 -0.0131725 -0.0174326)
(-0.153655 -0.0208673 -0.0184937)
(-0.163433 0.0282266 -0.00183812)
(-0.169817 0.0198875 -0.00255223)
(-0.173557 0.0134048 -0.00331539)
(-0.175672 0.00879121 -0.00411058)
(-0.17685 0.0057264 -0.00492486)
(-0.177517 0.00382328 -0.00575036)
(-0.177917 0.00274923 -0.00658255)
(-0.17819 0.00225694 -0.00741889)
(-0.178414 0.00217199 -0.00825817)
(-0.178638 0.00236584 -0.00909999)
(-0.17889 0.00272505 -0.00994458)
(-0.179188 0.00311992 -0.0107927)
(-0.179531 0.00337249 -0.0116459)
(-0.179889 0.0032251 -0.0125066)
(-0.180185 0.00231371 -0.0133786)
(-0.180242 0.000157347 -0.0142685)
(-0.179729 -0.00381275 -0.0151848)
(-0.17807 -0.0101473 -0.0161398)
(-0.174359 -0.0191655 -0.0171453)
(-0.167331 -0.0305907 -0.0182108)
(-0.17219 0.036023 -0.00153496)
(-0.17657 0.0242315 -0.00233867)
(-0.178309 0.015629 -0.00317112)
(-0.178824 0.00985773 -0.00401775)
(-0.178838 0.00621184 -0.00486776)
(-0.178689 0.00403624 -0.0057169)
(-0.178508 0.0028426 -0.00656402)
(-0.178334 0.00230339 -0.00740885)
(-0.178167 0.00220661 -0.00825139)
(-0.178003 0.00240781 -0.00909149)
(-0.177835 0.00278773 -0.00992878)
(-0.177672 0.00321366 -0.0107628)
(-0.177531 0.00350066 -0.0115932)
(-0.177443 0.00337003 -0.0124204)
(-0.177436 0.00240507 -0.0132467)
(-0.177504 1.11098e-05 -0.0140787)
(-0.177515 -0.00459601 -0.0149291)
(-0.177075 -0.0123035 -0.0158188)
(-0.175292 -0.023872 -0.016778)
(-0.170416 -0.039375 -0.0178538)
(-0.170113 0.0414816 -0.00111271)
(-0.170873 0.02591 -0.0020725)
(-0.169576 0.0156175 -0.00300763)
(-0.16799 0.00929195 -0.00392164)
(-0.166646 0.00557904 -0.00481327)
(-0.165636 0.00349005 -0.00568738)
(-0.164892 0.00239427 -0.00654908)
(-0.16431 0.00191761 -0.00740172)
(-0.163798 0.00184246 -0.008247)
(-0.163286 0.00203516 -0.00908516)
(-0.162735 0.00239516 -0.0099152)
(-0.162132 0.0028147 -0.0107351)
(-0.161508 0.00313934 -0.0115423)
(-0.160944 0.00312139 -0.0123344)
(-0.160586 0.00235868 -0.0131108)
(-0.160635 0.000212734 -0.0138754)
(-0.161277 -0.0042806 -0.0146438)
(-0.162524 -0.0124304 -0.0154445)
(-0.163824 -0.0257784 -0.0163293)
(-0.162985 -0.0454494 -0.0174156)
(-0.155252 0.0424823 -0.000626685)
(-0.150486 0.0233576 -0.00182361)
(-0.145494 0.012636 -0.0028824)
(-0.141862 0.00688084 -0.00386377)
(-0.139432 0.0038509 -0.00478862)
(-0.13785 0.00228816 -0.00567855)
(-0.136789 0.00152305 -0.00654784)
(-0.136004 0.00121331 -0.00740377)
(-0.135322 0.00118486 -0.00824945)
(-0.134631 0.0013443 -0.00908512)
(-0.133857 0.0016301 -0.00990881)
(-0.132969 0.00198015 -0.0107167)
(-0.131986 0.00230137 -0.0115036)
(-0.131005 0.00243022 -0.0122635)
(-0.13024 0.00206882 -0.0129909)
(-0.130065 0.000672206 -0.013685)
(-0.131013 -0.00273723 -0.0143604)
(-0.133742 -0.00979532 -0.015049)
(-0.138717 -0.0231294 -0.0158182)
(-0.144044 -0.0463035 -0.0168949)
(-0.123243 0.0365518 -0.000360291)
(-0.111242 0.0156734 -0.00181872)
(-0.103264 0.00690382 -0.00292164)
(-0.0988259 0.00319083 -0.00390895)
(-0.0963085 0.00157448 -0.0048258)
(-0.0948377 0.00086217 -0.00570592)
(-0.0939196 0.000557395 -0.00656822)
(-0.0932594 0.000454848 -0.00741999)
(-0.0926796 0.000469789 -0.00826321)
(-0.0920666 0.000566077 -0.00909677)
(-0.0913441 0.000725532 -0.00991711)
(-0.090466 0.000932233 -0.0107183)
(-0.0894241 0.00115956 -0.011492)
(-0.0882732 0.00135095 -0.0122273)
(-0.0871854 0.00138044 -0.0129117)
(-0.0865375 0.000963133 -0.0135345)
(-0.08699 -0.000561077 -0.0141036)
(-0.0898089 -0.00476472 -0.0146249)
(-0.0973972 -0.0151209 -0.0151406)
(-0.110793 -0.0394423 -0.0160359)
(-0.0628559 0.0224441 -0.000997725)
(-0.0468622 0.00645449 -0.00244001)
(-0.0403374 0.00195874 -0.00318758)
(-0.0379904 0.000623256 -0.00393321)
(-0.0369811 0.000210591 -0.00469624)
(-0.036472 8.52355e-05 -0.00547273)
(-0.0361732 5.21172e-05 -0.00626017)
(-0.03595 5.17041e-05 -0.00705333)
(-0.0357315 6.75226e-05 -0.00784722)
(-0.0354716 9.63835e-05 -0.00863701)
(-0.0351334 0.000139131 -0.00941677)
(-0.0346844 0.000197725 -0.0101784)
(-0.0340979 0.000273687 -0.0109101)
(-0.0333608 0.000364876 -0.0115952)
(-0.0324943 0.000455341 -0.0122093)
(-0.0316049 0.000484263 -0.0127184)
(-0.0310228 0.000233138 -0.0130768)
(-0.0316832 -0.00112895 -0.0132486)
(-0.0371766 -0.00625999 -0.0131184)
(-0.0553718 -0.0250308 -0.013306)
(-0.0300782 0.000674297 1.64246e-06)
(-0.0319985 0.000486602 1.14603e-06)
(-0.0333628 0.00033124 7.56186e-07)
(-0.0342898 0.000215579 4.75315e-07)
(-0.0349025 0.000137245 2.90023e-07)
(-0.0353079 8.95412e-05 1.78712e-07)
(-0.0355908 6.53617e-05 1.20786e-07)
(-0.0358157 5.9063e-05 1.00697e-07)
(-0.0360314 6.68195e-05 1.08098e-07)
(-0.0362756 8.61413e-05 1.36563e-07)
(-0.0365769 0.000114966 1.8149e-07)
(-0.0369544 0.000150506 2.38213e-07)
(-0.0374133 0.000187938 2.99589e-07)
(-0.0379377 0.000219026 3.53562e-07)
(-0.0384799 0.000230956 3.8024e-07)
(-0.0389482 0.000206001 3.47774e-07)
(-0.0391972 0.0001232 2.14393e-07)
(-0.0390266 -3.67099e-05 -4.70238e-08)
(-0.038199 -0.000284781 -5.06894e-07)
(-0.0364836 -0.000610282 -1.19807e-06)
(-0.0783764 0.00427021 -1.47665e-06)
(-0.0831193 0.00315044 -1.23125e-06)
(-0.0865195 0.00221247 -9.71842e-07)
(-0.0888639 0.00149901 -7.40347e-07)
(-0.0904435 0.00100017 -5.51435e-07)
(-0.0915102 0.000681285 -4.12269e-07)
(-0.0922632 0.000503137 -3.22372e-07)
(-0.0928535 0.000432092 -2.75971e-07)
(-0.0933932 0.000442445 -2.6503e-07)
(-0.0939648 0.000514282 -2.79951e-07)
(-0.0946249 0.000629006 -3.0951e-07)
(-0.0954033 0.000763699 -3.39193e-07)
(-0.0962937 0.000884991 -3.49183e-07)
(-0.0972393 0.000943273 -3.13106e-07)
(-0.0981119 0.000868896 -1.98665e-07)
(-0.0986909 0.000573365 2.71551e-08)
(-0.0986473 -3.98742e-05 3.87834e-07)
(-0.09755 -0.00105102 8.73937e-07)
(-0.0949051 -0.00248601 1.45685e-06)
(-0.090247 -0.00426706 2.00428e-06)
(-0.116401 0.0111653 -1.83942e-07)
(-0.122858 0.00822359 -3.18133e-07)
(-0.127383 0.00578152 -3.47471e-07)
(-0.130444 0.00393354 -3.29549e-07)
(-0.132476 0.00264181 -2.81103e-07)
(-0.133832 0.0018101 -2.24029e-07)
(-0.134778 0.00133408 -1.72443e-07)
(-0.135507 0.00112479 -1.31701e-07)
(-0.136157 0.00111318 -1.02454e-07)
(-0.136824 0.00124419 -8.25306e-08)
(-0.137572 0.00146584 -6.8409e-08)
(-0.138428 0.00171599 -5.56701e-08)
(-0.139376 0.00190838 -3.92194e-08)
(-0.140337 0.00192006 -1.26959e-08)
(-0.141147 0.00158382 3.2484e-08)
(-0.141523 0.000692508 1.02206e-07)
(-0.141047 -0.000974881 1.92072e-07)
(-0.139157 -0.00359717 2.97481e-07)
(-0.135194 -0.00721894 4.05136e-07)
(-0.128501 -0.0116408 3.44159e-07)
(-0.144732 0.0195417 -2.8736e-07)
(-0.151755 0.0141693 -4.63485e-07)
(-0.15641 0.0098189 -4.59112e-07)
(-0.159397 0.00660046 -4.07753e-07)
(-0.161288 0.00439098 -3.24533e-07)
(-0.162499 0.00298433 -2.40226e-07)
(-0.163314 0.00217908 -1.70323e-07)
(-0.163923 0.0018126 -1.17388e-07)
(-0.164451 0.0017628 -7.98872e-08)
(-0.164984 0.00193467 -5.45399e-08)
(-0.165574 0.00224053 -3.79643e-08)
(-0.166244 0.00257783 -2.72063e-08)
(-0.166978 0.00280621 -1.9591e-08)
(-0.167708 0.00272635 -1.05448e-08)
(-0.168284 0.0020656 1.23493e-08)
(-0.16844 0.000480621 6.01652e-08)
(-0.167753 -0.0024057 1.11478e-07)
(-0.165609 -0.0069174 2.09301e-07)
(-0.161212 -0.0131702 3.96184e-07)
(-0.153661 -0.0208645 3.48476e-07)
(-0.163441 0.0282178 -7.83731e-07)
(-0.169817 0.0198801 -8.76011e-07)
(-0.173554 0.0134012 -7.06599e-07)
(-0.175669 0.0087899 -5.51655e-07)
(-0.176848 0.00572635 -3.88094e-07)
(-0.177515 0.00382382 -2.54892e-07)
(-0.177916 0.00274993 -1.62724e-07)
(-0.178189 0.0022576 -1.03155e-07)
(-0.178413 0.00217256 -6.73977e-08)
(-0.178637 0.00236628 -4.83857e-08)
(-0.17889 0.00272536 -4.10485e-08)
(-0.179188 0.00312007 -4.20688e-08)
(-0.17953 0.00337243 -4.91992e-08)
(-0.179889 0.00322477 -5.71787e-08)
(-0.180184 0.00231313 -4.33883e-08)
(-0.18024 0.000156763 2.04435e-08)
(-0.179726 -0.00381284 6.45438e-08)
(-0.178064 -0.0101452 2.08532e-07)
(-0.174355 -0.0191572 6.90165e-07)
(-0.16734 -0.0305781 9.77764e-07)
(-0.172205 0.0360053 -1.68436e-06)
(-0.176565 0.0242196 -1.42813e-06)
(-0.178302 0.0156254 -8.88709e-07)
(-0.178819 0.00985749 -5.94281e-07)
(-0.178835 0.00621293 -3.49358e-07)
(-0.178687 0.00403764 -1.84017e-07)
(-0.178507 0.00284385 -9.1019e-08)
(-0.178333 0.00230439 -4.16586e-08)
(-0.178167 0.00220737 -1.76639e-08)
(-0.178002 0.00240839 -8.64642e-09)
(-0.177835 0.00278817 -9.31387e-09)
(-0.177672 0.00321395 -1.77564e-08)
(-0.177531 0.00350078 -3.40548e-08)
(-0.177442 0.00336988 -5.72651e-08)
(-0.177435 0.00240461 -6.94171e-08)
(-0.177502 1.06304e-05 -3.65436e-08)
(-0.17751 -0.00459558 -1.40498e-08)
(-0.177065 -0.0122998 1.20543e-07)
(-0.175282 -0.0238561 1.17867e-06)
(-0.170432 -0.0393482 2.46841e-06)
(-0.170144 0.0414571 -4.49466e-06)
(-0.170859 0.025902 -2.94742e-06)
(-0.169561 0.0156211 -1.35225e-06)
(-0.167982 0.00929615 -7.04381e-07)
(-0.166642 0.00558246 -2.99081e-07)
(-0.165634 0.00349257 -9.21598e-08)
(-0.164891 0.002396 -1.10145e-08)
(-0.16431 0.00191882 1.58233e-08)
(-0.163797 0.0018434 1.93044e-08)
(-0.163286 0.00203599 1.19356e-08)
(-0.162735 0.00239597 -1.96721e-09)
(-0.162132 0.00281552 -2.19384e-08)
(-0.161508 0.0031401 -4.8756e-08)
(-0.160944 0.00312187 -8.50916e-08)
(-0.160585 0.00235859 -1.16477e-07)
(-0.160632 0.00021204 -7.07446e-08)
(-0.161271 -0.00428223 7.18136e-08)
(-0.162505 -0.0124329 3.63844e-07)
(-0.163798 -0.0257673 2.83312e-06)
(-0.163017 -0.0454147 6.77817e-06)
(-0.155311 0.0424415 -7.64597e-06)
(-0.150454 0.0233676 -3.07974e-06)
(-0.145475 0.0126572 -6.15079e-07)
(-0.141857 0.0068928 -2.36539e-07)
(-0.13943 0.00385697 2.93811e-08)
(-0.137849 0.00229144 1.2329e-07)
(-0.136789 0.00152491 1.1639e-07)
(-0.136004 0.00121457 9.57124e-08)
(-0.135322 0.00118601 7.93571e-08)
(-0.134631 0.0013456 6.77318e-08)
(-0.133857 0.0016317 5.80252e-08)
(-0.132968 0.00198209 4.57605e-08)
(-0.131986 0.00230356 2.39602e-08)
(-0.131006 0.00243226 -2.73319e-08)
(-0.13024 0.00206987 -1.04785e-07)
(-0.130065 0.000670761 -4.57743e-08)
(-0.131011 -0.0027456 7.92516e-08)
(-0.133721 -0.00981721 -3.50233e-07)
(-0.138672 -0.0231421 2.51344e-06)
(-0.144102 -0.0462487 1.08518e-05)
(-0.123315 0.0363584 -9.56977e-06)
(-0.111175 0.0156153 4.22929e-06)
(-0.103253 0.00689313 4.70779e-06)
(-0.0988351 0.00318387 1.99408e-06)
(-0.0963137 0.00156932 1.02523e-06)
(-0.0948402 0.000858976 6.18274e-07)
(-0.0939209 0.000555315 3.84559e-07)
(-0.0932598 0.000453307 2.88323e-07)
(-0.0926794 0.000468459 2.75553e-07)
(-0.0920661 0.000564738 3.09709e-07)
(-0.0913435 0.000724043 3.72051e-07)
(-0.0904656 0.000930547 4.46501e-07)
(-0.0894243 0.00115777 5.0465e-07)
(-0.0882748 0.00134941 4.72894e-07)
(-0.0871889 0.00137993 2.55783e-07)
(-0.086546 0.000964642 -1.0276e-07)
(-0.0870084 -0.000557468 -1.30825e-06)
(-0.089805 -0.00475742 -5.82625e-06)
(-0.0973092 -0.0150579 -7.83643e-06)
(-0.110845 -0.0391925 1.18246e-05)
(-0.0628968 0.0223016 -5.29115e-05)
(-0.0467058 0.00638719 -8.86758e-06)
(-0.0402935 0.00193172 -6.0636e-07)
(-0.0379862 0.000608037 -1.42668e-06)
(-0.0369782 0.000201768 -9.2371e-07)
(-0.0364699 8.03072e-05 -4.2914e-07)
(-0.0361723 4.91455e-05 -2.40155e-07)
(-0.0359497 4.95617e-05 -1.68353e-07)
(-0.0357314 6.55906e-05 -1.47835e-07)
(-0.0354717 9.42915e-05 -1.62133e-07)
(-0.0351336 0.000136652 -2.00842e-07)
(-0.0346847 0.00019477 -2.539e-07)
(-0.0340982 0.000270383 -3.0717e-07)
(-0.0333607 0.000361798 -3.35572e-07)
(-0.0324932 0.000453813 -2.49513e-07)
(-0.0316038 0.000486511 1.98379e-07)
(-0.0310251 0.000242664 6.48089e-07)
(-0.0316424 -0.00110577 -1.90953e-06)
(-0.0369662 -0.00618775 3.92764e-06)
(-0.0553596 -0.0248411 6.64592e-05)
(-0.0300782 0.000674297 -1.64053e-06)
(-0.0319985 0.000486602 -1.14446e-06)
(-0.0333627 0.00033124 -7.5505e-07)
(-0.0342898 0.000215579 -4.7447e-07)
(-0.0349025 0.000137245 -2.89281e-07)
(-0.0353079 8.95411e-05 -1.78042e-07)
(-0.0355908 6.53616e-05 -1.20275e-07)
(-0.0358156 5.90628e-05 -1.00458e-07)
(-0.0360314 6.68193e-05 -1.08067e-07)
(-0.0362756 8.61409e-05 -1.36634e-07)
(-0.0365769 0.000114965 -1.81635e-07)
(-0.0369543 0.000150505 -2.38344e-07)
(-0.0374132 0.000187937 -2.99635e-07)
(-0.0379377 0.000219025 -3.53478e-07)
(-0.0384799 0.000230956 -3.79903e-07)
(-0.0389481 0.000206 -3.4705e-07)
(-0.0391971 0.0001232 -2.13133e-07)
(-0.0390266 -3.67096e-05 4.90094e-08)
(-0.0381989 -0.00028478 5.09761e-07)
(-0.0364836 -0.00061028 1.20183e-06)
(-0.0783763 0.00427021 1.47899e-06)
(-0.0831193 0.00315044 1.23311e-06)
(-0.0865194 0.00221247 9.73184e-07)
(-0.0888638 0.00149901 7.41288e-07)