/*--------------------------------*- C++ -*----------------------------------*\
| =========                 |                                                 |
| \\      /  F ield         | OpenFOAM: The Open Source CFD Toolbox           |
|  \\    /   O peration     | Version:  2.4.0                                 |
|   \\  /    A nd           | Web:      www.OpenFOAM.org                      |
|    \\/     M anipulation  |                                                 |
\*---------------------------------------------------------------------------*/
FoamFile
{
    version     2.0;
    format      ascii;
    class       volScalarField;
    location    "0.175";
    object      T;
}
// * * * * * * * * * * * * * * * * * * * * * * * * * * * * * * * * * * * * * //

dimensions      [0 0 0 1 0 0 0];

internalField   nonuniform List<scalar> 
1600
(
99.9896
99.9768
99.9878
100.038
100.144
100.32
100.58
100.939
101.411
102.007
102.74
103.621
104.659
105.864
107.243
108.802
110.548
112.485
114.615
116.94
119.46
122.176
125.085
128.183
131.468
134.934
138.576
142.385
146.354
150.475
154.737
159.131
163.645
168.267
172.984
177.782
182.648
187.568
192.525
197.506
99.9903
99.9789
99.9913
100.043
100.15
100.327
100.589
100.95
101.422
102.02
102.754
103.637
104.676
105.882
107.262
108.823
110.57
112.508
114.639
116.964
119.486
122.201
125.11
128.209
131.494
134.959
138.6
142.408
146.376
150.495
154.756
159.148
163.66
168.28
172.995
177.791
182.656
187.573
192.528
197.507
99.9917
99.983
99.9983
100.053
100.163
100.343
100.607
100.97
101.446
102.046
102.783
103.668
104.71
105.918
107.301
108.864
110.613
112.553
114.685
117.012
119.535
122.251
125.161
128.26
131.544
135.009
138.648
142.454
146.42
150.536
154.794
159.183
163.691
168.307
173.018
177.81
182.67
187.583
192.534
197.509
99.9939
99.9894
100.009
100.068
100.182
100.366
100.634
101.002
101.481
102.085
102.826
103.714
104.76
105.972
107.358
108.924
110.677
112.619
114.754
117.083
119.608
122.326
125.236
128.335
131.618
135.082
138.719
142.523
146.485
150.598
154.851
159.234
163.737
168.347
173.052
177.838
182.692
187.599
192.544
197.512
99.9967
99.9979
100.023
100.088
100.207
100.396
100.67
101.043
101.528
102.137
102.883
103.776
104.827
106.043
107.434
109.004
110.76
112.706
114.844
117.177
119.703
122.423
125.334
128.433
131.716
135.178
138.813
142.613
146.571
150.679
154.926
159.303
163.799
168.401
173.098
177.876
182.722
187.62
192.557
197.516
100
100.009
100.041
100.112
100.239
100.435
100.716
101.095
101.586
102.202
102.954
103.853
104.909
106.131
107.527
109.103
110.864
112.814
114.956
117.291
119.82
122.542
125.454
128.554
131.836
135.297
138.929
142.725
146.678
150.78
155.02
159.389
163.876
168.469
173.155
177.923
182.758
187.646
192.572
197.522
100.005
100.021
100.062
100.142
100.277
100.482
100.771
101.158
101.657
102.28
103.039
103.945
105.008
106.237
107.639
109.22
110.987
112.942
115.088
117.427
119.959
122.683
125.597
128.697
131.979
135.437
139.066
142.858
146.806
150.9
155.132
159.491
163.967
168.549
173.224
177.98
182.803
187.678
192.591
197.528
100.01
100.037
100.088
100.178
100.323
100.537
100.835
101.231
101.739
102.371
103.139
104.053
105.124
106.36
107.769
109.356
111.129
113.089
115.24
117.584
120.119
122.846
125.761
128.861
132.142
135.599
139.224
143.011
146.952
151.039
155.261
159.61
164.074
168.643
173.305
178.046
182.854
187.715
192.614
197.535
100.016
100.054
100.117
100.219
100.375
100.6
100.91
101.317
101.835
102.476
103.253
104.177
105.256
106.5
107.916
109.511
111.29
113.256
115.413
117.76
120.299
123.028
125.945
129.046
132.326
135.78
139.402
143.183
147.117
151.195
155.407
159.744
164.195
168.75
173.396
178.121
182.913
187.757
192.639
197.544
100.022
100.075
100.151
100.266
100.435
100.673
100.994
101.413
101.943
102.596
103.383
104.316
105.405
106.658
108.082
109.685
111.47
113.443
115.604
117.956
120.499
123.231
126.149
129.25
132.529
135.98
139.598
143.374
147.3
151.369
155.57
159.893
164.33
168.868
173.498
178.205
182.978
187.804
192.667
197.553
100.03
100.098
100.189
100.319
100.503
100.755
101.09
101.522
102.065
102.73
103.529
104.473
105.572
106.834
108.267
109.877
111.67
113.648
115.815
118.172
120.717
123.451
126.37
129.471
132.749
136.198
139.811
143.581
147.499
151.558
155.747
160.057
164.478
168.999
173.61
178.298
183.051
187.856
192.698
197.563
100.039
100.123
100.232
100.379
100.579
100.847
101.198
101.645
102.201
102.879
103.691
104.647
105.756
107.029
108.471
110.089
111.889
113.873
116.045
118.405
120.954
123.689
126.609
129.709
132.985
136.431
140.039
143.803
147.713
151.761
155.938
160.234
164.639
169.142
173.732
178.399
183.13
187.913
192.732
197.575
100.048
100.152
100.28
100.445
100.664
100.949
101.317
101.781
102.352
103.045
103.87
104.839
105.96
107.243
108.694
110.32
112.127
114.117
116.294
118.657
121.208
123.945
126.865
129.963
133.237
136.678
140.282
144.038
147.94
151.978
156.142
160.423
164.811
169.295
173.865
178.509
183.216
187.974
192.77
197.587
100.059
100.184
100.333
100.519
100.758
101.063
101.45
101.931
102.52
103.228
104.068
105.05
106.184
107.477
108.938
110.573
112.386
114.382
116.562
118.929
121.481
124.218
127.137
130.233
133.503
136.94
140.537
144.287
148.179
152.206
156.358
160.624
164.994
169.458
174.006
178.626
183.309
188.04
192.81
197.6
100.071
100.22
100.392
100.602
100.863
101.19
101.597
102.098
102.705
103.431
104.286
105.282
106.429
107.733
109.204
110.847
112.667
114.668
116.852
119.221
121.774
124.51
127.426
130.52
133.785
137.217
140.807
144.548
148.431
152.446
156.584
160.835
165.188
169.631
174.156
178.752
183.407
188.112
192.852
197.615
100.084
100.26
100.458
100.693
100.979
101.33
101.76
102.282
102.909
103.653
104.526
105.537
106.697
108.014
109.494
111.146
112.972
114.978
117.165
119.535
122.088
124.822
127.736
130.825
134.084
137.508
141.09
144.822
148.694
152.697
156.822
161.056
165.391
169.814
174.315
178.885
183.513
188.187
192.898
197.63
100.099
100.304
100.531
100.794
101.107
101.484
101.939
102.485
103.134
103.898
104.789
105.817
106.991
108.32
109.811
111.471
113.303
115.313
117.503
119.874
122.426
125.157
128.067
131.15
134.403
137.819
141.391
145.111
148.971
152.961
157.07
161.288
165.603
170.005
174.483
179.026
183.624
188.268
192.947
197.646
100.115
100.352
100.611
100.905
101.248
101.655
102.137
102.708
103.381
104.168
105.078
106.124
107.313
108.655
110.157
111.825
113.664
115.678
117.87
120.241
122.791
125.519
128.423
131.5
134.744
138.15
141.711
145.419
149.265
153.24
157.333
161.532
165.827
170.207
174.66
179.175
183.743
188.354
192.999
197.663
100.133
100.406
100.7
101.029
101.405
101.843
102.355
102.955
103.654
104.464
105.396
106.461
107.666
109.022
110.536
112.212
114.058
116.076
118.27
120.64
123.188
125.912
128.809
131.878
135.112
138.507
142.055
145.749
149.58
153.537
157.611
161.79
166.064
170.419
174.846
179.333
183.869
188.445
193.054
197.681
100.153
100.466
100.799
101.165
101.578
102.051
102.597
103.227
103.954
104.79
105.746
106.831
108.054
109.425
110.95
112.636
114.488
116.511
118.706
121.076
123.62
126.339
129.229
132.288
135.512
138.894
142.427
146.105
149.918
153.856
157.91
162.066
166.316
170.645
175.044
179.5
184.003
188.543
193.114
197.701
100.175
100.532
100.908
101.316
101.77
102.281
102.863
103.527
104.286
105.15
106.131
107.238
108.48
109.867
111.405
113.101
114.96
116.986
119.183
121.552
124.093
126.805
129.688
132.737
135.947
139.315
142.832
146.492
150.285
154.202
158.232
162.364
166.587
170.888
175.256
179.679
184.146
188.648
193.178
197.722
100.2
100.605
101.029
101.484
101.982
102.536
103.157
103.859
104.651
105.547
106.555
107.685
108.949
110.352
111.904
113.611
115.477
117.508
119.706
122.074
124.611
127.317
130.19
133.227
136.425
139.776
143.276
146.915
150.687
154.58
158.584
162.688
166.881
171.15
175.484
179.872
184.301
188.761
193.247
197.745
100.227
100.686
101.163
101.669
102.217
102.817
103.483
104.225
105.055
105.984
107.022
108.179
109.464
110.886
112.453
114.171
116.045
118.081
120.28
122.646
125.179
127.878
130.741
133.766
136.948
140.283
143.762
147.38
151.127
154.994
158.969
163.043
167.203
171.437
175.734
180.081
184.468
188.884
193.323
197.77
100.257
100.776
101.312
101.875
102.477
103.13
103.844
104.63
105.501
106.466
107.537
108.722
110.032
111.474
113.057
114.787
116.669
118.71
120.911
123.275
125.803
128.494
131.347
134.358
137.524
140.84
144.298
147.892
151.612
155.45
159.394
163.434
167.557
171.752
176.007
180.311
184.651
189.018
193.405
197.797
100.29
100.876
101.477
102.104
102.766
103.476
104.243
105.079
105.994
106.999
108.105
109.321
110.656
112.12
113.72
115.463
117.355
119.4
121.603
123.965
126.488
129.171
132.012
135.01
138.159
141.454
144.889
148.457
152.148
155.954
159.864
163.866
167.949
172.101
176.31
180.564
184.853
189.166
193.496
197.828
100.328
100.988
101.662
102.358
103.088
103.86
104.686
105.576
106.54
107.588
108.732
109.981
111.344
112.831
114.449
116.206
118.108
120.159
122.363
124.724
127.241
129.915
132.744
135.726
138.857
142.13
145.541
149.081
152.741
156.513
160.384
164.346
168.384
172.488
176.646
180.846
185.077
189.33
193.597
197.861
100.37
101.113
101.867
102.642
103.446
104.288
105.178
106.126
107.143
108.239
109.423
110.708
112.101
113.612
115.25
117.022
118.934
120.991
123.197
125.555
128.067
130.732
133.548
136.514
139.625
142.876
146.26
149.77
153.397
157.132
160.963
164.879
168.869
172.92
177.021
181.16
185.327
189.512
193.71
197.899
100.416
101.253
102.098
102.96
103.846
104.765
105.725
106.737
107.811
108.957
110.186
111.509
112.934
114.471
116.13
117.917
119.839
121.903
124.111
126.467
128.973
131.628
134.431
137.38
140.471
143.697
147.054
150.532
154.124
157.818
161.605
165.473
169.409
173.403
177.441
181.513
185.608
189.717
193.836
197.941
100.469
101.41
102.357
103.316
104.293
105.297
106.334
107.416
108.552
109.752
111.028
112.39
113.849
115.414
117.094
118.897
120.831
122.901
125.111
127.465
129.964
132.609
135.399
138.33
141.399
144.601
147.929
151.374
154.928
158.58
162.32
166.135
170.014
173.943
177.912
181.909
185.924
189.948
193.977
197.988
100.529
101.588
102.649
103.717
104.795
105.891
107.013
108.17
109.372
110.63
111.956
113.36
114.854
116.447
118.15
119.97
121.915
123.991
126.204
128.555
131.048
133.683
136.458
139.371
142.419
145.594
148.892
152.303
155.817
159.425
163.114
166.874
170.69
174.55
178.443
182.356
186.281
190.21
194.138
198.042
100.597
101.789
102.98
104.169
105.36
106.559
107.772
109.009
110.282
111.601
112.979
114.427
115.957
117.579
119.304
121.141
123.098
125.181
127.395
129.744
132.23
134.854
137.615
140.51
143.535
146.684
149.951
153.326
156.8
160.361
163.998
167.698
171.447
175.233
179.042
182.863
186.687
190.508
194.32
198.103
100.674
102.02
103.357
104.683
105.999
107.309
108.621
109.944
111.291
112.674
114.105
115.598
117.164
118.816
120.564
122.418
124.387
126.476
128.692
131.038
133.518
136.131
138.877
141.753
144.756
147.879
151.114
154.453
157.885
161.399
164.981
168.618
172.297
176.001
179.72
183.439
187.151
190.85
194.529
198.174
100.764
102.286
103.791
105.271
106.724
108.156
109.573
110.987
112.411
113.858
115.344
116.882
118.485
120.166
121.937
123.807
125.786
127.882
130.099
132.443
134.916
137.518
140.25
143.108
146.088
149.184
152.388
155.691
159.081
162.547
166.073
169.647
173.251
176.87
180.491
184.099
187.684
191.244
194.771
198.256
100.87
102.597
104.295
105.948
107.553
109.115
110.643
112.151
113.654
115.166
116.706
118.288
119.926
121.636
123.428
125.314
127.304
129.405
131.623
133.964
136.43
139.022
141.74
144.58
147.538
150.608
153.782
157.049
160.399
163.816
167.288
170.796
174.324
177.854
181.371
184.858
188.303
191.703
195.054
198.355
100.996
102.967
104.888
106.735
108.506
110.207
111.85
113.452
115.032
116.609
118.2
119.824
121.496
123.232
125.044
126.944
128.943
131.049
133.269
135.607
138.066
140.648
143.352
146.175
149.112
152.158
155.303
158.537
161.847
165.219
168.636
172.081
175.533
178.973
182.381
185.738
189.029
192.249
195.392
198.475
101.151
103.418
105.598
107.663
109.61
111.454
113.212
114.906
116.561
118.197
119.837
121.499
123.202
124.961
126.791
128.704
130.711
132.821
135.04
137.375
139.828
142.4
145.092
147.899
150.818
153.841
156.96
160.163
163.437
166.767
170.134
173.519
176.899
180.25
183.548
186.769
189.891
192.908
195.806
198.623
101.352
103.987
106.469
108.769
110.899
112.883
114.751
116.531
118.253
119.943
121.625
123.321
125.049
126.828
128.673
130.596
132.61
134.722
136.942
139.274
141.721
144.285
146.965
149.758
152.66
155.664
158.76
161.937
165.18
168.473
171.797
175.129
178.443
181.713
184.906
187.991
190.934
193.722
196.322
198.808
101.628
104.738
107.562
110.106
112.412
114.526
116.49
118.344
120.123
121.856
123.573
125.295
127.044
128.839
130.695
132.626
134.645
136.759
138.978
141.307
143.749
146.306
148.977
151.76
154.649
157.637
160.715
163.871
167.089
170.353
173.641
176.931
180.192
183.394
186.497
189.458
192.226
194.764
197
199.059
102.091
105.791
108.958
111.729
114.189
116.409
118.449
120.359
122.18
123.946
125.688
127.429
129.193
130.999
132.863
134.8
136.821
138.937
141.156
143.483
145.921
148.473
151.138
153.913
156.793
159.77
162.836
165.977
169.178
172.421
175.685
178.945
182.169
185.323
188.36
191.23
193.854
196.16
197.986
199.489
102.945
107.39
110.84
113.764
116.317
118.596
120.676
122.615
124.457
126.239
127.993
129.744
131.515
133.326
135.194
137.133
139.156
141.273
143.49
145.816
148.252
150.801
153.462
156.233
159.107
162.079
165.137
168.27
171.462
174.695
177.945
181.188
184.391
187.517
190.517
193.335
195.879
198.052
199.594
200.529
)
;

boundaryField
{
    carasuperior
    {
        type            fixedGradient;
        gradient        uniform 100;
    }
    lateralizquierda
    {
        type            fixedValue;
        value           uniform 100;
    }
    lateralderecha
    {
        type            fixedValue;
        value           uniform 200;
    }
    carainferior
    {
        type            zeroGradient;
    }
    frontAndBack
    {
        type            empty;
    }
}


// ************************************************************************* //
