/*--------------------------------*- C++ -*----------------------------------*\
| =========                 |                                                 |
| \\      /  F ield         | OpenFOAM: The Open Source CFD Toolbox           |
|  \\    /   O peration     | Version:  2.4.0                                 |
|   \\  /    A nd           | Web:      www.OpenFOAM.org                      |
|    \\/     M anipulation  |                                                 |
\*---------------------------------------------------------------------------*/
FoamFile
{
    version     2.0;
    format      ascii;
    class       volScalarField;
    location    "2.9";
    object      p;
}
// * * * * * * * * * * * * * * * * * * * * * * * * * * * * * * * * * * * * * //

dimensions      [0 2 -2 0 0 0 0];

internalField   nonuniform List<scalar> 
4800
(
-2.39079e-06
-0.00159621
-0.0032638
-0.00449294
-0.00496103
-0.00451771
-0.00311646
-0.000761693
0.00250158
0.00657728
0.00158556
-3.87772e-05
-0.0012223
-0.00192001
-0.00200914
-0.00138005
1.45687e-05
0.00218946
0.00513555
0.00880546
0.00329115
0.00109557
-9.55512e-05
-0.000638612
-0.000602324
7.17233e-05
0.00141477
0.00345318
0.00620827
0.00967593
0.00443932
0.00159272
0.000228662
-0.000329408
-0.000308009
0.000307579
0.00153724
0.00342588
0.00603866
0.00943104
0.0044817
0.00111935
-0.000428033
-0.00107445
-0.00116103
-0.000698886
0.000338158
0.00203358
0.00452424
0.00797221
0.00305518
-0.000613967
-0.00231172
-0.00309658
-0.00337793
-0.00317323
-0.00242768
-0.000992308
0.00138294
0.00507089
-1.52052e-05
-0.00375308
-0.00554626
-0.00650512
-0.00706445
-0.00723293
-0.00690684
-0.00584578
-0.00364046
0.000510611
-0.00473357
-0.00830082
-0.0101256
-0.011283
-0.0121982
-0.0128662
-0.0131247
-0.0126304
-0.0107989
-0.00598674
-0.0109339
-0.0141204
-0.0159121
-0.017276
-0.0186037
-0.0198852
-0.0209058
-0.0212237
-0.0201581
-0.0145126
-0.0183043
-0.0209539
-0.0226495
-0.0241988
-0.0259509
-0.0279261
-0.0299251
-0.031511
-0.0324444
-0.0280194
-4.81509e-06
-0.00161802
-0.00329561
-0.00453349
-0.00500683
-0.00456574
-0.00316476
-0.000807906
0.00245972
0.00654234
0.00160229
-4.39083e-05
-0.00120538
-0.00189291
-0.00197696
-0.00134489
4.89193e-05
0.00222225
0.00516452
0.00883051
0.00332102
0.00106922
-9.70863e-05
-0.000637816
-0.00060393
7.01651e-05
0.00141294
0.00345085
0.00620526
0.00967409
0.00448304
0.00155587
0.000228558
-0.000326391
-0.000309186
0.000305909
0.00153509
0.00342255
0.00603309
0.00942616
0.0045352
0.00107613
-0.000423352
-0.00106403
-0.00115478
-0.00069292
0.000343469
0.00203666
0.0045207
0.0079654
0.00311317
-0.000661812
-0.00230552
-0.00308327
-0.00336871
-0.00316406
-0.00241871
-0.000985099
0.00137693
0.00505208
4.14688e-05
-0.00380231
-0.00553963
-0.00649054
-0.00705332
-0.00722135
-0.006894
-0.00583035
-0.00364832
0.000462907
-0.00467999
-0.00834784
-0.0101195
-0.0112688
-0.0121866
-0.0128543
-0.0131113
-0.0126065
-0.010822
-0.00615283
-0.0108889
-0.0141629
-0.0159079
-0.0172641
-0.0185927
-0.0198733
-0.0208897
-0.0211675
-0.0201414
-0.0148855
-0.0182716
-0.0209906
-0.0226488
-0.024192
-0.0259436
-0.0279154
-0.0299022
-0.0313707
-0.0321166
-0.0281311
-4.90314e-06
-0.00161815
-0.00329575
-0.00453361
-0.00500692
-0.00456581
-0.00316481
-0.000807931
0.0024597
0.00654233
0.00160216
-4.40345e-05
-0.00120551
-0.00189302
-0.00197704
-0.00134495
4.88808e-05
0.00222223
0.00516451
0.0088305
0.00332089
0.00106908
-9.72062e-05
-0.000637909
-0.000604
7.0114e-05
0.0014129
0.00345083
0.00620525
0.00967408
0.00448292
0.00155576
0.000228457
-0.000326467
-0.000309245
0.000305862
0.00153506
0.00342253
0.00603308
0.00942615
0.00453511
0.00107604
-0.000423427
-0.00106409
-0.00115482
-0.000692958
0.000343441
0.00203664
0.00452069
0.0079654
0.00311311
-0.000661872
-0.00230558
-0.0030833
-0.00336874
-0.00316409
-0.00241873
-0.00098511
0.00137692
0.00505208
4.14309e-05
-0.00380235
-0.00553967
-0.00649057
-0.00705334
-0.00722138
-0.00689401
-0.00583036
-0.00364832
0.000462908
-0.00468002
-0.00834787
-0.0101195
-0.0112688
-0.0121866
-0.0128544
-0.0131113
-0.0126065
-0.010822
-0.00615283
-0.0108889
-0.014163
-0.0159079
-0.0172641
-0.0185928
-0.0198733
-0.0208897
-0.0211675
-0.0201414
-0.0148855
-0.0182716
-0.0209906
-0.0226488
-0.024192
-0.0259436
-0.0279154
-0.0299022
-0.0313707
-0.0321166
-0.0281311
-3.6306e-06
-0.00159677
-0.00326422
-0.00449325
-0.00496124
-0.00451786
-0.00311656
-0.000761747
0.00250155
0.00657726
0.00158499
-3.92058e-05
-0.00122268
-0.00192031
-0.00200935
-0.00138021
1.44705e-05
0.0021894
0.00513551
0.00880544
0.00329072
0.0010952
-9.5881e-05
-0.000638865
-0.000602501
7.15932e-05
0.00141468
0.00345312
0.00620824
0.00967591
0.00443898
0.00159242
0.000228392
-0.000329613
-0.000308155
0.000307462
0.00153715
0.00342582
0.00603863
0.00943102
0.00448144
0.00111913
-0.000428239
-0.00107461
-0.00116114
-0.000698984
0.000338083
0.00203353
0.00452422
0.0079722
0.00305501
-0.000614118
-0.00231186
-0.00309668
-0.00337801
-0.0031733
-0.00242773
-0.000992331
0.00138294
0.0050709
-1.53198e-05
-0.00375318
-0.00554636
-0.00650519
-0.0070645
-0.00723297
-0.00690687
-0.00584578
-0.00364045
0.000510621
-0.00473365
-0.00830089
-0.0101257
-0.0112831
-0.0121982
-0.0128662
-0.0131247
-0.0126304
-0.0107989
-0.00598674
-0.0109339
-0.0141205
-0.0159121
-0.0172761
-0.0186037
-0.0198852
-0.0209058
-0.0212237
-0.0201581
-0.0145127
-0.0183043
-0.0209539
-0.0226495
-0.0241988
-0.0259509
-0.0279261
-0.0299251
-0.031511
-0.0324444
-0.0280194
0.0113125
0.0165201
0.0220311
0.0277183
0.0334969
0.0393177
0.0451573
0.0510099
0.0568837
0.0627985
0.0687864
0.0748925
0.0811757
0.0877061
0.0945591
0.101803
0.109475
0.117558
0.125935
0.134369
0.0131021
0.0178876
0.0230322
0.0284284
0.0339939
0.0396709
0.0454236
0.0512334
0.0570968
0.0630228
0.0690326
0.0751584
0.0814419
0.0879319
0.094678
0.101721
0.109076
0.116712
0.12453
0.13234
0.0137904
0.0184132
0.0234213
0.0287117
0.0342006
0.0398263
0.0455474
0.0513394
0.0571923
0.0631088
0.0691019
0.0751945
0.0814179
0.087809
0.0944072
0.101247
0.108349
0.115699
0.123233
0.130805
0.0135619
0.0182295
0.0232882
0.0286269
0.0341564
0.0398136
0.0455568
0.0513612
0.0572149
0.0631161
0.069072
0.0750969
0.0812124
0.0874468
0.0938344
0.100415
0.107227
0.1143
0.121629
0.129143
0.0123747
0.0173347
0.022651
0.0281992
0.0338865
0.0396554
0.045473
0.051321
0.0571903
0.0630783
0.0689864
0.0749206
0.0808915
0.0869167
0.0930252
0.0992632
0.105697
0.112415
0.119508
0.127045
0.0101801
0.0157829
0.0216006
0.0275222
0.0334699
0.0394123
0.04534
0.0512511
0.0571454
0.0630216
0.0688769
0.0747077
0.0805111
0.0862903
0.0920624
0.097874
0.103819
0.110052
0.116798
0.124399
0.00710841
0.0138394
0.0204059
0.0268188
0.0330713
0.0391972
0.0452327
0.0512021
0.0571176
0.0629806
0.0687836
0.0745117
0.0801456
0.0856676
0.0910724
0.0963905
0.101732
0.107307
0.113506
0.121176
0.00357169
0.0120274
0.0194948
0.0263952
0.0328902
0.0391327
0.0452251
0.05122
0.0571396
0.0629855
0.0687431
0.0743842
0.0798704
0.085157
0.0902039
0.095006
0.0996674
0.104413
0.109759
0.117356
0.00160664
0.0120185
0.0198008
0.0267284
0.0331617
0.0393334
0.0453761
0.0513422
0.0572454
0.0630775
0.0688121
0.0744057
0.0797967
0.0849062
0.0896402
0.0939223
0.0978033
0.1013
0.104766
0.111098
0.00615011
0.0173245
0.0229577
0.0284848
0.034145
0.0399015
0.0457349
0.0516081
0.0574846
0.0633277
0.0690918
0.0747143
0.0801051
0.0851351
0.0896192
0.0932972
0.0958175
0.0968893
0.0957149
0.097337
0.0112862
0.0165017
0.022019
0.0277106
0.0334922
0.0393148
0.0451552
0.0510082
0.0568819
0.0627962
0.0687833
0.0748886
0.0811707
0.0877002
0.0945529
0.101797
0.109471
0.117559
0.125943
0.134388
0.0131243
0.0179061
0.0230469
0.0284396
0.0340023
0.0396773
0.0454286
0.0512377
0.0571009
0.0630272
0.0690375
0.0751637
0.0814475
0.0879369
0.0946813
0.101721
0.10907
0.116699
0.124508
0.132309
0.0137931
0.018418
0.0234265
0.0287166
0.0342049
0.0398297
0.04555
0.0513414
0.0571939
0.06311
0.0691029
0.0751954
0.0814185
0.0878093
0.0944068
0.101246
0.108346
0.115694
0.123227
0.1308
0.0135662
0.0182365
0.0232952
0.0286331
0.0341613
0.0398172
0.0455594
0.051363
0.0572161
0.063117
0.0690725
0.0750973
0.0812127
0.087447
0.0938343
0.100414
0.107225
0.114297
0.121623
0.129138
0.0123866
0.017348
0.0226617
0.0282076
0.0338924
0.0396593
0.0454755
0.0513226
0.0571914
0.063079
0.068987
0.0749212
0.0808922
0.0869177
0.093026
0.0992632
0.105696
0.112412
0.119498
0.127031
0.0102054
0.0158045
0.0216141
0.0275312
0.0334753
0.0394151
0.0453413
0.0512517
0.0571456
0.0630217
0.0688771
0.074708
0.0805117
0.0862912
0.0920635
0.0978746
0.103819
0.11005
0.11678
0.124362
0.00717575
0.0138838
0.0204265
0.0268295
0.0330759
0.0391986
0.0452329
0.0512019
0.0571173
0.0629804
0.0687837
0.074512
0.0801463
0.0856689
0.0910741
0.0963914
0.101731
0.107301
0.113463
0.121073
0.00368611
0.0120738
0.0195042
0.0263988
0.0328898
0.0391309
0.0452233
0.0512185
0.0571384
0.0629845
0.0687422
0.0743835
0.07987
0.0851574
0.0902054
0.0950065
0.099666
0.104418
0.109721
0.117192
0.00174963
0.0119551
0.01973
0.0266982
0.0331461
0.0393239
0.0453701
0.0513377
0.0572411
0.0630726
0.0688063
0.0743987
0.0797888
0.0848987
0.089636
0.0939234
0.0978224
0.101388
0.104885
0.110921
0.00698705
0.0174666
0.0229679
0.0285076
0.0341598
0.0399085
0.0457388
0.0516109
0.0574871
0.0633304
0.0690952
0.0747185
0.0801103
0.0851407
0.0896235
0.0932946
0.0958081
0.0969201
0.0956532
0.0962794
0.0112862
0.0165017
0.022019
0.0277106
0.0334922
0.0393148
0.0451552
0.0510082
0.0568819
0.0627962
0.0687833
0.0748886
0.0811707
0.0877002
0.0945529
0.101797
0.109471
0.117559
0.125943
0.134388
0.0131243
0.0179061
0.0230469
0.0284396
0.0340023
0.0396773
0.0454286
0.0512377
0.0571009
0.0630272
0.0690375
0.0751637
0.0814475
0.0879369
0.0946813
0.101721
0.10907
0.116699
0.124508
0.132309
0.0137931
0.018418
0.0234265
0.0287166
0.0342049
0.0398297
0.04555
0.0513414
0.0571939
0.06311
0.0691029
0.0751954
0.0814185
0.0878093
0.0944068
0.101246
0.108346
0.115694
0.123227
0.1308
0.0135662
0.0182365
0.0232952
0.0286331
0.0341613
0.0398172
0.0455594
0.051363
0.0572161
0.063117
0.0690725
0.0750973
0.0812127
0.087447
0.0938343
0.100414
0.107225
0.114297
0.121623
0.129138
0.0123866
0.017348
0.0226617
0.0282076
0.0338924
0.0396593
0.0454755
0.0513226
0.0571914
0.063079
0.068987
0.0749212
0.0808922
0.0869177
0.093026
0.0992632
0.105696
0.112412
0.119498
0.127031
0.0102054
0.0158045
0.0216141
0.0275312
0.0334753
0.0394151
0.0453413
0.0512517
0.0571456
0.0630217
0.0688771
0.074708
0.0805117
0.0862912
0.0920635
0.0978746
0.103819
0.11005
0.11678
0.124362
0.00717575
0.0138839
0.0204265
0.0268295
0.0330759
0.0391986
0.0452329
0.0512019
0.0571173
0.0629804
0.0687837
0.074512
0.0801463
0.0856689
0.0910741
0.0963914
0.101731
0.107301
0.113463
0.121073
0.00368611
0.0120738
0.0195042
0.0263988
0.0328898
0.0391309
0.0452233
0.0512185
0.0571384
0.0629845
0.0687422
0.0743835
0.07987
0.0851574
0.0902054
0.0950065
0.099666
0.104418
0.109721
0.117192
0.00174963
0.0119551
0.01973
0.0266982
0.0331461
0.0393239
0.0453702
0.0513377
0.0572411
0.0630727
0.0688063
0.0743987
0.0797888
0.0848987
0.089636
0.0939235
0.0978224
0.101388
0.104885
0.110921
0.00698704
0.0174666
0.0229679
0.0285076
0.0341598
0.0399085
0.0457388
0.0516109
0.0574871
0.0633304
0.0690952
0.0747185
0.0801102
0.0851407
0.0896235
0.0932946
0.0958081
0.0969201
0.0956533
0.0962794
0.0113124
0.0165201
0.0220311
0.0277183
0.0334969
0.0393177
0.0451573
0.0510099
0.0568837
0.0627985
0.0687863
0.0748925
0.0811757
0.0877061
0.0945592
0.101803
0.109475
0.117558
0.125935
0.134369
0.0131021
0.0178876
0.0230322
0.0284284
0.0339939
0.0396709
0.0454236
0.0512334
0.0570968
0.0630228
0.0690326
0.0751584
0.0814419
0.0879319
0.094678
0.101721
0.109076
0.116712
0.12453
0.13234
0.0137904
0.0184132
0.0234213
0.0287117
0.0342006
0.0398263
0.0455474
0.0513394
0.0571923
0.0631088
0.0691019
0.0751945
0.0814179
0.087809
0.0944072
0.101247
0.108349
0.115699
0.123233
0.130805
0.0135619
0.0182295
0.0232882
0.0286269
0.0341564
0.0398136
0.0455568
0.0513612
0.0572149
0.0631161
0.069072
0.0750969
0.0812124
0.0874468
0.0938344
0.100415
0.107227
0.1143
0.121629
0.129143
0.0123747
0.0173347
0.022651
0.0281992
0.0338865
0.0396554
0.045473
0.051321
0.0571903
0.0630783
0.0689864
0.0749206
0.0808915
0.0869167
0.0930252
0.0992632
0.105697
0.112415
0.119508
0.127045
0.0101801
0.0157829
0.0216006
0.0275222
0.0334699
0.0394123
0.0453399
0.0512511
0.0571454
0.0630216
0.068877
0.0747077
0.0805111
0.0862903
0.0920624
0.0978739
0.103819
0.110052
0.116798
0.124399
0.00710841
0.0138394
0.0204059
0.0268188
0.0330713
0.0391972
0.0452327
0.0512021
0.0571176
0.0629806
0.0687836
0.0745117
0.0801456
0.0856676
0.0910724
0.0963905
0.101732
0.107307
0.113506
0.121176
0.00357169
0.0120274
0.0194948
0.0263952
0.0328902
0.0391328
0.0452251
0.05122
0.0571396
0.0629855
0.0687431
0.0743842
0.0798704
0.085157
0.0902039
0.095006
0.0996674
0.104413
0.109759
0.117356
0.00160663
0.0120185
0.0198008
0.0267284
0.0331617
0.0393334
0.0453761
0.0513422
0.0572454
0.0630775
0.0688121
0.0744057
0.0797967
0.0849062
0.0896402
0.0939224
0.0978033
0.1013
0.104766
0.111098
0.00615009
0.0173245
0.0229577
0.0284848
0.034145
0.0399015
0.0457349
0.0516081
0.0574846
0.0633277
0.0690918
0.0747142
0.0801051
0.0851351
0.0896192
0.0932973
0.0958175
0.0968893
0.0957149
0.097337
0.142493
0.149865
0.156068
0.160789
0.163864
0.165294
0.165254
0.164107
0.162401
0.160811
0.139845
0.14668
0.152502
0.157052
0.160195
0.161931
0.162406
0.16191
0.160775
0.159216
0.13815
0.144889
0.150677
0.155259
0.158497
0.160384
0.161042
0.160719
0.159592
0.157548
0.136601
0.143524
0.149519
0.1543
0.157712
0.159737
0.160485
0.160177
0.158895
0.156319
0.134848
0.142195
0.148603
0.15374
0.15743
0.159651
0.160507
0.160215
0.158807
0.155852
0.132872
0.140912
0.147933
0.153569
0.157634
0.160114
0.161125
0.160892
0.15944
0.156298
0.130872
0.139889
0.147671
0.153893
0.158379
0.161152
0.162358
0.16224
0.16084
0.157705
0.129285
0.139567
0.148161
0.154951
0.159813
0.16285
0.164251
0.164285
0.163024
0.160069
0.12835
0.140626
0.149985
0.157151
0.162187
0.165343
0.166871
0.167051
0.165983
0.163347
0.132769
0.146259
0.154786
0.161295
0.165873
0.168795
0.170273
0.170533
0.169671
0.167444
0.142526
0.14991
0.156122
0.160848
0.163923
0.165348
0.165299
0.164137
0.162418
0.16081
0.139809
0.146638
0.152455
0.157004
0.160147
0.161888
0.16237
0.161884
0.160771
0.159195
0.138151
0.144893
0.150683
0.155266
0.158503
0.160388
0.161042
0.160718
0.159609
0.157516
0.136608
0.143536
0.149533
0.154315
0.157725
0.159748
0.160488
0.160178
0.158922
0.156278
0.134856
0.142206
0.148614
0.153751
0.15744
0.159658
0.160506
0.160213
0.15884
0.155806
0.132883
0.140924
0.147944
0.153581
0.157644
0.16012
0.161124
0.160891
0.159476
0.15625
0.130895
0.139905
0.147684
0.153906
0.158388
0.161158
0.162356
0.162238
0.160876
0.157657
0.129425
0.139623
0.148185
0.154966
0.159821
0.162853
0.164248
0.164283
0.163057
0.160023
0.128677
0.140643
0.149962
0.157144
0.162181
0.16534
0.166865
0.167048
0.166012
0.163305
0.132658
0.145886
0.15462
0.161247
0.165854
0.168788
0.170268
0.170531
0.169697
0.167409
0.142526
0.14991
0.156122
0.160848
0.163923
0.165348
0.165299
0.164137
0.162418
0.16081
0.139809
0.146638
0.152455
0.157004
0.160147
0.161888
0.16237
0.161884
0.160771
0.159195
0.138151
0.144893
0.150683
0.155266
0.158503
0.160388
0.161042
0.160718
0.159609
0.157516
0.136608
0.143536
0.149533
0.154315
0.157725
0.159748
0.160488
0.160178
0.158922
0.156278
0.134856
0.142206
0.148614
0.153751
0.15744
0.159658
0.160506
0.160213
0.15884
0.155806
0.132883
0.140924
0.147944
0.153581
0.157644
0.16012
0.161124
0.160891
0.159476
0.15625
0.130895
0.139905
0.147684
0.153906
0.158388
0.161158
0.162356
0.162238
0.160876
0.157657
0.129425
0.139623
0.148185
0.154966
0.159821
0.162853
0.164248
0.164283
0.163057
0.160023
0.128677
0.140643
0.149962
0.157144
0.162181
0.16534
0.166865
0.167048
0.166012
0.163305
0.132658
0.145886
0.15462
0.161247
0.165854
0.168788
0.170268
0.170531
0.169697
0.167409
0.142493
0.149865
0.156068
0.160789
0.163864
0.165294
0.165254
0.164107
0.162401
0.160811
0.139845
0.14668
0.152502
0.157052
0.160195
0.161931
0.162406
0.16191
0.160775
0.159216
0.13815
0.144889
0.150677
0.155259
0.158497
0.160383
0.161042
0.160719
0.159592
0.157548
0.136601
0.143524
0.149519
0.1543
0.157712
0.159737
0.160485
0.160177
0.158895
0.156319
0.134848
0.142195
0.148603
0.15374
0.15743
0.159651
0.160507
0.160215
0.158807
0.155852
0.132872
0.140912
0.147933
0.153569
0.157634
0.160114
0.161125
0.160892
0.15944
0.156298
0.130872
0.139889
0.147671
0.153893
0.158379
0.161152
0.162358
0.16224
0.16084
0.157705
0.129285
0.139567
0.148161
0.154951
0.159813
0.16285
0.164251
0.164285
0.163024
0.160069
0.12835
0.140626
0.149985
0.157151
0.162187
0.165343
0.166871
0.167051
0.165983
0.163347
0.132769
0.146259
0.154786
0.161295
0.165873
0.168795
0.170273
0.170533
0.169671
0.167444
0.166891
0.162347
0.164323
0.16788
0.170979
0.173202
0.174416
0.174666
0.173993
0.172211
0.178006
0.172718
0.172751
0.174595
0.176577
0.178168
0.179098
0.179312
0.17881
0.177462
0.183575
0.180456
0.180188
0.181144
0.182389
0.18349
0.184173
0.184346
0.183992
0.183028
0.18903
0.187339
0.18706
0.187541
0.188306
0.189044
0.189528
0.189663
0.189429
0.188781
0.194615
0.193733
0.193534
0.193782
0.194251
0.194735
0.195068
0.195171
0.195031
0.194632
0.200302
0.199883
0.199774
0.199911
0.200195
0.200502
0.200723
0.200799
0.200728
0.20052
0.206094
0.205942
0.205901
0.205974
0.206133
0.20631
0.20644
0.206488
0.206465
0.206402
0.211977
0.212
0.211992
0.212012
0.212069
0.212134
0.212178
0.212189
0.21219
0.212241
0.217979
0.218109
0.218107
0.218061
0.21801
0.217956
0.217902
0.217857
0.21786
0.217992
0.224137
0.224328
0.224295
0.224153
0.223965
0.223762
0.22358
0.223448
0.223423
0.223606
0.230517
0.230719
0.230606
0.230317
0.22994
0.229539
0.229181
0.22892
0.228828
0.229018
0.237212
0.237348
0.237086
0.23658
0.235943
0.235274
0.234677
0.234231
0.234018
0.234153
0.244339
0.244286
0.243777
0.242962
0.241975
0.240955
0.240042
0.239342
0.238938
0.238926
0.252043
0.25159
0.2507
0.249466
0.248029
0.24657
0.245262
0.244232
0.243549
0.243251
0.260505
0.259273
0.257832
0.256061
0.25408
0.252108
0.250339
0.248907
0.247841
0.247058
0.269834
0.267305
0.265058
0.262638
0.26006
0.257553
0.255301
0.253415
0.251845
0.250332
0.280094
0.275355
0.272036
0.268932
0.26581
0.26286
0.260197
0.257867
0.255682
0.253118
0.290958
0.28266
0.27806
0.274422
0.271011
0.267917
0.265096
0.26245
0.259579
0.255587
0.302404
0.288235
0.28196
0.278165
0.275053
0.272462
0.270039
0.267429
0.263912
0.258085
0.313464
0.288524
0.280544
0.27799
0.276679
0.275925
0.274981
0.273145
0.269249
0.261214
0.167728
0.16249
0.164437
0.167948
0.171004
0.173214
0.17442
0.174669
0.174015
0.172185
0.178148
0.172655
0.172797
0.17464
0.176599
0.178181
0.179105
0.179316
0.178828
0.177443
0.183585
0.180386
0.180198
0.181165
0.182403
0.183501
0.18418
0.184351
0.184006
0.183016
0.189053
0.18731
0.187063
0.187551
0.188315
0.189052
0.189534
0.189667
0.189439
0.188774
0.194629
0.193719
0.193534
0.193787
0.194256
0.19474
0.195073
0.195175
0.195038
0.194628
0.200308
0.199877
0.199773
0.199912
0.200198
0.200506
0.200726
0.200802
0.200732
0.200519
0.206096
0.20594
0.2059
0.205974
0.206134
0.206313
0.206442
0.20649
0.206466
0.206402
0.211976
0.212001
0.211991
0.212012
0.212069
0.212135
0.21218
0.21219
0.212189
0.212242
0.217977
0.218112
0.218106
0.218061
0.21801
0.217957
0.217903
0.217857
0.217857
0.217994
0.224133
0.224333
0.224295
0.224152
0.223964
0.223762
0.22358
0.223448
0.223419
0.223609
0.230512
0.230724
0.230606
0.230316
0.22994
0.229539
0.229181
0.22892
0.228823
0.229023
0.237206
0.237353
0.237085
0.236579
0.235942
0.235274
0.234677
0.234231
0.234013
0.234158
0.244334
0.244287
0.243775
0.24296
0.241973
0.240954
0.240042
0.239343
0.238936
0.238931
0.252039
0.251585
0.250696
0.249463
0.248027
0.246568
0.245262
0.244234
0.243551
0.243255
0.260504
0.259255
0.257826
0.256057
0.254077
0.252106
0.250339
0.24891
0.24785
0.247059
0.269846
0.267268
0.265051
0.262635
0.260056
0.257551
0.255301
0.25342
0.251866
0.250327
0.280145
0.275286
0.272029
0.268931
0.265804
0.262858
0.260198
0.257875
0.255721
0.253103
0.291025
0.282486
0.278036
0.27442
0.271003
0.267916
0.265098
0.262463
0.259644
0.255558
0.30252
0.28791
0.281965
0.278207
0.275068
0.272474
0.270048
0.26745
0.264011
0.258036
0.314796
0.28863
0.280839
0.278174
0.276747
0.275958
0.274997
0.273175
0.269391
0.261138
0.167728
0.16249
0.164437
0.167948
0.171004
0.173214
0.17442
0.174669
0.174015
0.172185
0.178148
0.172655
0.172797
0.17464
0.176599
0.178181
0.179105
0.179316
0.178828
0.177443
0.183585
0.180386
0.180198
0.181165
0.182403
0.183501
0.18418
0.184351
0.184006
0.183016
0.189053
0.18731
0.187063
0.187551
0.188315
0.189052
0.189534
0.189667
0.189439
0.188774
0.194629
0.193719
0.193534
0.193787
0.194256
0.19474
0.195073
0.195175
0.195038
0.194628
0.200308
0.199877
0.199773
0.199912
0.200198
0.200506
0.200726
0.200802
0.200732
0.200519
0.206096
0.20594
0.2059
0.205974
0.206134
0.206313
0.206442
0.20649
0.206466
0.206402
0.211976
0.212001
0.211991
0.212012
0.212069
0.212135
0.21218
0.21219
0.212189
0.212242
0.217977
0.218112
0.218106
0.218061
0.21801
0.217957
0.217903
0.217857
0.217857
0.217994
0.224133
0.224333
0.224295
0.224152
0.223964
0.223762
0.22358
0.223448
0.223419
0.223609
0.230512
0.230724
0.230606
0.230316
0.22994
0.229539
0.229181
0.22892
0.228823
0.229023
0.237206
0.237353
0.237085
0.236579
0.235942
0.235274
0.234677
0.234231
0.234013
0.234158
0.244334
0.244287
0.243775
0.24296
0.241973
0.240954
0.240042
0.239343
0.238936
0.238931
0.252039
0.251585
0.250696
0.249463
0.248027
0.246568
0.245262
0.244234
0.243551
0.243255
0.260504
0.259255
0.257826
0.256057
0.254077
0.252106
0.250339
0.24891
0.24785
0.247059
0.269846
0.267268
0.265051
0.262635
0.260056
0.257551
0.255301
0.25342
0.251866
0.250327
0.280145
0.275286
0.272029
0.268931
0.265804
0.262858
0.260198
0.257875
0.255721
0.253103
0.291025
0.282486
0.278036
0.27442
0.271003
0.267916
0.265098
0.262463
0.259644
0.255558
0.30252
0.28791
0.281965
0.278207
0.275068
0.272474
0.270048
0.26745
0.264011
0.258036
0.314796
0.28863
0.280839
0.278174
0.276747
0.275958
0.274997
0.273175
0.269391
0.261138
0.166891
0.162347
0.164323
0.16788
0.170979
0.173202
0.174416
0.174666
0.173993
0.172211
0.178006
0.172718
0.172751
0.174595
0.176577
0.178168
0.179098
0.179312
0.17881
0.177462
0.183575
0.180456
0.180188
0.181144
0.182389
0.18349
0.184173
0.184346
0.183992
0.183028
0.18903
0.187339
0.18706
0.187541
0.188306
0.189044
0.189528
0.189663
0.189429
0.188781
0.194615
0.193733
0.193534
0.193782
0.194251
0.194735
0.195068
0.195171
0.195031
0.194632
0.200302
0.199883
0.199774
0.199911
0.200195
0.200502
0.200723
0.200799
0.200728
0.20052
0.206094
0.205942
0.205901
0.205974
0.206133
0.20631
0.20644
0.206488
0.206465
0.206402
0.211977
0.212
0.211992
0.212012
0.212069
0.212134
0.212178
0.212189
0.21219
0.212241
0.217979
0.218109
0.218107
0.218061
0.21801
0.217956
0.217902
0.217857
0.21786
0.217992
0.224137
0.224328
0.224295
0.224153
0.223965
0.223762
0.22358
0.223448
0.223423
0.223606
0.230517
0.230719
0.230606
0.230317
0.22994
0.229539
0.229181
0.22892
0.228828
0.229018
0.237212
0.237348
0.237086
0.23658
0.235943
0.235274
0.234677
0.234231
0.234018
0.234153
0.244339
0.244286
0.243777
0.242962
0.241975
0.240955
0.240042
0.239342
0.238938
0.238926
0.252043
0.25159
0.2507
0.249466
0.248029
0.24657
0.245262
0.244232
0.243549
0.243251
0.260505
0.259273
0.257832
0.256061
0.25408
0.252108
0.250339
0.248907
0.247841
0.247058
0.269834
0.267305
0.265058
0.262638
0.26006
0.257553
0.255301
0.253415
0.251845
0.250332
0.280094
0.275355
0.272036
0.268932
0.26581
0.26286
0.260197
0.257867
0.255682
0.253118
0.290958
0.28266
0.27806
0.274422
0.271011
0.267917
0.265096
0.26245
0.259579
0.255587
0.302404
0.288235
0.28196
0.278165
0.275053
0.272462
0.270039
0.267429
0.263912
0.258085
0.313464
0.288524
0.280545
0.27799
0.276679
0.275925
0.274981
0.273145
0.269249
0.261214
0.252894
0.261518
0.266783
0.270894
0.274457
0.277703
0.279913
0.280087
0.276439
0.265963
0.223771
0.239612
0.250854
0.260411
0.269494
0.278144
0.285215
0.289042
0.28675
0.2739
0.206307
0.221651
0.23502
0.248522
0.262983
0.27795
0.291592
0.301162
0.302015
0.287482
0.1928
0.206641
0.220836
0.237257
0.256689
0.278507
0.300351
0.318209
0.324927
0.31065
0.182964
0.195611
0.210273
0.22902
0.253006
0.281955
0.31354
0.342756
0.359464
0.349872
0.177055
0.189379
0.204862
0.225922
0.254347
0.290721
0.333647
0.378099
0.411214
0.415257
0.174892
0.187952
0.205018
0.228882
0.262091
0.306523
0.362748
0.427456
0.486688
0.521134
0.175593
0.190129
0.209351
0.236441
0.274862
0.328257
0.400295
0.491057
0.59085
0.694682
0.177523
0.193186
0.213847
0.242985
0.285024
0.345863
0.433816
0.557115
0.725942
1.00579
0.178894
0.19406
0.213535
0.240696
0.280235
0.33951
0.432518
0.586784
0.873131
1.49024
0.253232
0.261051
0.266656
0.270884
0.274455
0.277712
0.279918
0.28012
0.276635
0.265851
0.224192
0.23954
0.25079
0.260377
0.269472
0.278138
0.285208
0.289078
0.287013
0.273748
0.206563
0.221669
0.234988
0.248481
0.262943
0.277923
0.291561
0.301196
0.302355
0.287286
0.19289
0.206626
0.220784
0.237189
0.256615
0.27844
0.300276
0.318225
0.325338
0.310412
0.182991
0.195578
0.210203
0.228923
0.252892
0.281832
0.313401
0.342732
0.359898
0.349617
0.177063
0.189342
0.204782
0.225802
0.254189
0.290522
0.333405
0.377981
0.41157
0.415209
0.174906
0.18793
0.204951
0.228759
0.261894
0.30621
0.362316
0.427122
0.486665
0.521623
0.175637
0.190163
0.209372
0.236442
0.274809
0.328056
0.399918
0.490713
0.589548
0.694362
0.177592
0.193299
0.214031
0.243276
0.285454
0.346423
0.434558
0.557718
0.722709
1.0035
0.178944
0.194099
0.213554
0.240699
0.280248
0.339585
0.432875
0.587219
0.869442
1.49949
0.253232
0.261051
0.266656
0.270884
0.274455
0.277712
0.279918
0.28012
0.276635
0.265851
0.224192
0.23954
0.25079
0.260377
0.269472
0.278138
0.285208
0.289078
0.287013
0.273748
0.206563
0.221669
0.234988
0.248481
0.262943
0.277923
0.291561
0.301196
0.302355
0.287286
0.19289
0.206626
0.220784
0.237189
0.256615
0.27844
0.300276
0.318225
0.325338
0.310412
0.182991
0.195578
0.210203
0.228923
0.252892
0.281832
0.313401
0.342732
0.359898
0.349617
0.177063
0.189342
0.204782
0.225802
0.254189
0.290522
0.333405
0.377981
0.41157
0.415209
0.174906
0.18793
0.204951
0.228759
0.261894
0.30621
0.362316
0.427122
0.486665
0.521623
0.175637
0.190163
0.209372
0.236442
0.274809
0.328056
0.399918
0.490713
0.589548
0.694362
0.177592
0.193299
0.214031
0.243276
0.285454
0.346423
0.434558
0.557718
0.722709
1.0035
0.178944
0.194099
0.213554
0.240699
0.280248
0.339585
0.432875
0.587219
0.869442
1.49949
0.252894
0.261518
0.266783
0.270894
0.274457
0.277703
0.279913
0.280087
0.276439
0.265963
0.223771
0.239612
0.250854
0.260411
0.269494
0.278144
0.285215
0.289042
0.28675
0.273901
0.206307
0.221651
0.23502
0.248522
0.262983
0.27795
0.291592
0.301162
0.302015
0.287482
0.1928
0.206641
0.220836
0.237257
0.256689
0.278507
0.300351
0.318209
0.324927
0.31065
0.182964
0.195611
0.210273
0.22902
0.253006
0.281954
0.31354
0.342756
0.359464
0.349872
0.177055
0.189379
0.204862
0.225922
0.254347
0.290721
0.333647
0.378099
0.411214
0.415257
0.174892
0.187952
0.205018
0.228882
0.262091
0.306523
0.362748
0.427456
0.486688
0.521134
0.175593
0.190129
0.209351
0.236441
0.274862
0.328257
0.400295
0.491057
0.59085
0.694682
0.177523
0.193186
0.213847
0.242985
0.285024
0.345863
0.433816
0.557115
0.725942
1.00579
0.178894
0.19406
0.213535
0.240696
0.280235
0.33951
0.432518
0.586784
0.873131
1.49024
-0.153507
-0.132858
-0.11484
-0.0982161
-0.0816106
-0.0648183
-0.0478324
-0.0306886
-0.013448
0.0038177
0.0210316
0.0381218
0.0550206
0.0716791
0.088123
0.104539
0.12141
0.139773
0.162928
0.200674
-0.139599
-0.126119
-0.111605
-0.0963603
-0.0804354
-0.0640402
-0.0473097
-0.0303411
-0.013219
0.0039819
0.021196
0.0383642
0.0554469
0.0724466
0.089435
0.106618
0.124394
0.143385
0.165102
0.193012
-0.136414
-0.124417
-0.110718
-0.0958619
-0.0801695
-0.0639042
-0.0472386
-0.0302947
-0.0131664
0.0040714
0.0213578
0.0386436
0.0558952
0.0731057
0.0903137
0.107636
0.125286
0.143559
0.163012
0.184557
-0.137621
-0.125312
-0.111432
-0.0964398
-0.0806424
-0.064279
-0.0475187
-0.0304813
-0.0132546
0.00409473
0.0215136
0.0389568
0.0563837
0.0737588
0.0910549
0.10826
0.125376
0.142404
0.159402
0.176477
-0.140337
-0.127347
-0.112973
-0.0975983
-0.0815062
-0.0649117
-0.0479659
-0.030773
-0.0134058
0.00408246
0.021648
0.0392473
0.0568278
0.0743186
0.0916221
0.108606
0.1251
0.140898
0.155828
0.169852
-0.142792
-0.129179
-0.114332
-0.0985911
-0.0822206
-0.0654143
-0.0483048
-0.0309803
-0.0134994
0.00409553
0.0217666
0.0394682
0.0571336
0.0746595
0.0918919
0.108617
0.124564
0.139435
0.153024
0.165388
-0.143322
-0.129463
-0.114476
-0.0986524
-0.0822326
-0.0653955
-0.0482644
-0.0309211
-0.0134201
0.00419743
0.0218917
0.0396099
0.0572714
0.0747503
0.0918617
0.108357
0.123938
0.138319
0.151359
0.163275
-0.141045
-0.127539
-0.112931
-0.0974532
-0.0813236
-0.0647166
-0.0477609
-0.030548
-0.0131432
0.00440143
0.0220349
0.039692
0.0572799
0.0746615
0.0916449
0.107985
0.123412
0.137702
0.15082
0.163122
-0.135974
-0.123597
-0.109961
-0.0952703
-0.0797501
-0.0635991
-0.0469768
-0.0300044
-0.0127738
0.00464191
0.0221765
0.0397495
0.0572587
0.0745658
0.0914861
0.107794
0.123257
0.137709
0.151183
0.164105
-0.127741
-0.117656
-0.105773
-0.0923795
-0.0777911
-0.0622931
-0.0461199
-0.0294523
-0.0124265
0.0048524
0.0222948
0.0398192
0.0573227
0.0746697
0.0916853
0.108156
0.123855
0.138603
0.152388
0.165531
-0.153886
-0.13274
-0.114825
-0.0982384
-0.0816232
-0.0648259
-0.0478377
-0.0306919
-0.0134497
0.00381734
0.0210322
0.0381225
0.0550206
0.0716762
0.0881133
0.104519
0.121387
0.139724
0.162598
0.200069
-0.139542
-0.125949
-0.111528
-0.0963235
-0.080409
-0.0640217
-0.0472971
-0.0303326
-0.0132134
0.00398528
0.0211984
0.0383669
0.0554521
0.0724574
0.0894543
0.106651
0.124454
0.143456
0.165002
0.192754
-0.136475
-0.124392
-0.110693
-0.0958436
-0.0801547
-0.0638936
-0.0472312
-0.0302896
-0.0131629
0.00407378
0.0213593
0.0386445
0.0558958
0.073106
0.0903123
0.107631
0.12528