/*--------------------------------*- C++ -*----------------------------------*\
| =========                 |                                                 |
| \\      /  F ield         | OpenFOAM: The Open Source CFD Toolbox           |
|  \\    /   O peration     | Version:  2.4.0                                 |
|   \\  /    A nd           | Web:      www.OpenFOAM.org                      |
|    \\/     M anipulation  |                                                 |
\*---------------------------------------------------------------------------*/
FoamFile
{
    version     2.0;
    format      ascii;
    class       surfaceScalarField;
    location    "2.9";
    object      phi;
}
// * * * * * * * * * * * * * * * * * * * * * * * * * * * * * * * * * * * * * //

dimensions      [0 3 -1 0 0 0 0];

internalField   nonuniform List<scalar> 
12720
(
1.51766e-07
-1.51382e-07
1.96474e-10
-5.44098e-07
6.94072e-07
1.7944e-09
-2.06755e-06
1.52083e-06
2.61763e-09
-4.17216e-06
2.10128e-06
3.33712e-09
-6.6227e-06
2.44677e-06
3.76907e-09
-9.22543e-06
2.59878e-06
3.95299e-09
-1.18208e-05
2.59143e-06
3.97476e-09
-1.42708e-05
2.44618e-06
3.80304e-09
-1.64547e-05
2.1804e-06
3.44505e-09
1.8228e-06
2.87549e-09
-1.82803e-05
-7.25179e-07
5.75178e-07
-1.37616e-09
-3.28758e-06
3.25602e-06
4.45753e-10
-7.47419e-06
5.70891e-06
-1.47027e-09
-1.28622e-05
7.49159e-06
-2.35411e-09
-1.90051e-05
8.59247e-06
-2.7954e-09
-2.54861e-05
9.08287e-06
-3.05463e-09
-3.19271e-05
9.03599e-06
-3.59006e-09
-3.7988e-05
8.50994e-06
-2.84927e-09
-4.33747e-05
7.56962e-06
-2.51677e-09
6.32284e-06
-2.17573e-09
-4.78726e-05
-1.6871e-06
2.26473e-06
-2.45827e-09
-6.10627e-06
7.67289e-06
2.28957e-09
-1.2663e-05
1.22655e-05
1.33359e-10
-2.07642e-05
1.55928e-05
-6.91394e-11
-2.98263e-05
1.76544e-05
1.39552e-10
-3.92942e-05
1.85507e-05
1.35366e-10
-4.86432e-05
1.83848e-05
1.59598e-10
-5.73826e-05
1.72491e-05
2.0199e-10
-6.50798e-05
1.52666e-05
2.61291e-10
1.26594e-05
1.59986e-10
-7.14165e-05
-2.47582e-06
4.74416e-06
-3.59808e-09
-8.46491e-06
1.36588e-05
3.20151e-09
-1.69862e-05
2.07868e-05
8.99998e-12
-2.72597e-05
2.58665e-05
-2.62089e-10
-3.85888e-05
2.89834e-05
1.02236e-10
-5.03222e-05
3.0284e-05
1.45042e-10
-6.18304e-05
2.98927e-05
1.86452e-10
-7.2501e-05
2.79194e-05
2.88557e-10
-8.17698e-05
2.4535e-05
4.83714e-10
2.00912e-05
4.23754e-10
-8.9202e-05
-3.03262e-06
7.78118e-06
-4.40275e-09
-1.01677e-05
2.07901e-05
3.75514e-09
-2.01239e-05
3.07434e-05
-4.06664e-10
-3.19646e-05
3.77081e-05
-9.0491e-10
-4.49053e-05
4.19246e-05
-5.43377e-10
-5.82278e-05
4.36071e-05
-5.18223e-10
-7.12256e-05
4.2891e-05
-4.61399e-10
-8.31796e-05
3.98737e-05
-2.67757e-10
-9.33796e-05
3.47346e-05
3.07421e-10
2.79312e-05
5.91601e-10
-0.00010122
-3.33411e-06
1.11201e-05
-4.77215e-09
-1.11114e-05
2.85632e-05
4.15645e-09
-2.18791e-05
4.15117e-05
-5.3797e-10
-3.46041e-05
5.04342e-05
-1.15618e-09
-4.84493e-05
5.57707e-05
-8.00828e-10
-6.26611e-05
5.78197e-05
-7.96536e-10
-7.64854e-05
5.6716e-05
-7.79094e-10
-8.91134e-05
5.25024e-05
-6.26265e-10
-9.96663e-05
4.52871e-05
5.22428e-10
3.5524e-05
1.63469e-09
-0.000107261
-3.37164e-06
1.44971e-05
-5.39596e-09
-1.12473e-05
3.64345e-05
4.27676e-09
-2.21412e-05
5.24062e-05
-5.76074e-10
-3.49935e-05
6.32878e-05
-1.2668e-09
-4.89549e-05
6.9733e-05
-9.66719e-10
-6.32703e-05
7.21361e-05
-1.00523e-09
-7.71784e-05
7.06252e-05
-1.1155e-09
-8.98205e-05
6.51458e-05
-1.33998e-09
-0.000100152
5.56178e-05
6.83104e-10
4.22183e-05
4.14413e-09
-0.00010685
-3.15242e-06
1.76539e-05
-4.40896e-09
-1.05825e-05
4.38606e-05
4.08507e-09
-2.08968e-05
6.2721e-05
-5.29518e-10
-3.30686e-05
7.54608e-05
-1.2347e-09
-4.6265e-05
8.29304e-05
-1.01129e-09
-5.97544e-05
8.56265e-05
-1.03056e-09
-7.28109e-05
8.36829e-05
-1.16901e-09
-8.4598e-05
7.69349e-05
-2.07754e-09
-9.39915e-05
6.50093e-05
2.00737e-09
4.72651e-05
1.44288e-08
-9.90527e-05
-2.7069e-06
2.03645e-05
-3.6997e-09
-9.20162e-06
5.03516e-05
3.69303e-09
-1.82751e-05
7.17949e-05
-3.67793e-10
-2.89679e-05
8.61547e-05
-1.0366e-09
-4.04618e-05
9.44252e-05
-9.53538e-10
-5.20314e-05
9.71972e-05
-1.03664e-09
-6.29859e-05
9.46388e-05
-1.39707e-09
-7.25638e-05
8.65177e-05
-4.88521e-09
-7.97804e-05
7.22273e-05
-1.44483e-09
4.9573e-05
3.23889e-08
-8.21208e-05
-2.09888e-06
-2.68807e-09
2.24661e-05
-7.2923e-06
3.18613e-09
5.55418e-05
-1.46066e-05
-6.07083e-11
7.91093e-05
-2.31527e-05
-5.91106e-10
9.47014e-05
-3.20824e-05
-6.3105e-10
0.000103356
-4.05743e-05
-9.32061e-10
0.00010569
-4.78135e-05
-1.98628e-09
0.00010188
-5.28859e-05
-1.21883e-08
9.16024e-05
-5.46835e-05
-2.8477e-08
7.40533e-05
9.70607e-09
-5.20279e-05
4.69077e-05
1.52922e-07
-1.52729e-07
4.95753e-12
-5.44814e-07
6.99518e-07
1.01996e-11
-2.06833e-06
1.52611e-06
1.31572e-11
-4.17229e-06
2.10729e-06
1.10089e-11
-6.62253e-06
2.454e-06
8.24655e-12
-9.22524e-06
2.60666e-06
5.72088e-12
-1.18209e-05
2.59958e-06
3.66642e-12
-1.4271e-05
2.45395e-06
2.11379e-12
-1.64551e-05
2.18752e-06
1.08774e-12
1.82876e-06
6.85436e-13
-1.8281e-05
-7.29977e-07
5.75857e-07
9.75463e-12
-3.29324e-06
3.26322e-06
1.24469e-11
-7.47918e-06
5.71057e-06
1.32559e-11
-1.28656e-05
7.49131e-06
1.08766e-11
-1.90066e-05
8.59227e-06
8.18164e-12
-2.5486e-05
9.08292e-06
5.64001e-12
-3.19262e-05
9.03626e-06
3.66421e-12
-3.79861e-05
8.51098e-06
2.10175e-12
-4.33724e-05
7.57133e-06
1.1792e-12
6.32442e-06
7.36846e-13
-4.78703e-05
-1.69253e-06
2.26591e-06
1.19468e-11
-6.10706e-06
7.68002e-06
1.25582e-11
-1.26638e-05
1.22675e-05
1.17247e-11
-2.07652e-05
1.55926e-05
9.08379e-12
-2.98268e-05
1.7654e-05
6.72366e-12
-3.92942e-05
1.85505e-05
4.80866e-12
-4.86429e-05
1.83851e-05
3.1793e-12
-5.73821e-05
1.72503e-05
1.96715e-12
-6.50795e-05
1.5269e-05
1.09288e-12
1.26617e-05
6.71069e-13
-7.14166e-05
-2.48265e-06
4.74495e-06
1.05175e-11
-8.46382e-06
1.36644e-05
1.094e-11
-1.6985e-05
2.07887e-05
9.67695e-12
-2.72594e-05
2.58667e-05
7.29156e-12
-3.85887e-05
2.89834e-05
5.55365e-12
-5.03222e-05
3.02841e-05
4.31888e-12
-6.18303e-05
2.98933e-05
3.09761e-12
-7.25008e-05
2.79212e-05
2.02457e-12
-8.17703e-05
2.4539e-05
1.18976e-12
2.00951e-05
7.64695e-13
-8.92034e-05
-3.04115e-06
7.78169e-06
7.93093e-12
-1.01664e-05
2.07933e-05
8.1006e-12
-2.01224e-05
3.07443e-05
7.11078e-12
-3.19643e-05
3.77077e-05
5.22713e-12
-4.49053e-05
4.19238e-05
4.10277e-12
-5.8228e-05
4.36063e-05
3.43557e-12
-7.12256e-05
4.28904e-05
2.56439e-12
-8.31792e-05
3.98746e-05
1.61168e-12
-9.33801e-05
3.47401e-05
8.33049e-13
2.79383e-05
4.60582e-13
-0.000101223
-3.34363e-06
1.11205e-05
5.37738e-12
-1.111e-05
2.85638e-05
5.56147e-12
-2.18775e-05
4.15113e-05
4.84708e-12
-3.4604e-05
5.0433e-05
3.4399e-12
-4.84499e-05
5.57689e-05
2.78184e-12
-6.2662e-05
5.78176e-05
2.48152e-12
-7.64861e-05
5.67137e-05
1.81839e-12
-8.9113e-05
5.25009e-05
9.38444e-13
-9.96666e-05
4.52942e-05
2.76842e-13
3.55386e-05
-2.32717e-14
-0.000107265
-3.38153e-06
1.44967e-05
3.56826e-12
-1.1246e-05
3.64325e-05
3.80237e-12
-2.21399e-05
5.24047e-05
3.31913e-12
-3.49941e-05
6.32859e-05
2.36508e-12
-4.89565e-05
6.97304e-05
1.98988e-12
-6.32726e-05
7.21328e-05
1.85089e-12
-7.71807e-05
7.06207e-05
1.25122e-12
-8.98206e-05
6.51394e-05
5.22981e-13
-0.000100151
5.56252e-05
9.15345e-14
4.22506e-05
-1.06893e-13
-0.000106859
-3.16134e-06
1.76536e-05
2.42037e-12
-1.05813e-05
4.38565e-05
2.64195e-12
-2.08958e-05
6.27187e-05
2.3604e-12
-3.30698e-05
7.54587e-05
1.81325e-12
-4.62678e-05
8.29274e-05
1.61624e-12
-5.97585e-05
8.56225e-05
1.52128e-12
-7.28155e-05
8.36765e-05
8.99797e-13
-8.45983e-05
7.69201e-05
2.96634e-13
-9.39791e-05
6.5008e-05
2.17763e-13
4.73476e-05
2.40672e-13
-9.90616e-05
-2.71431e-06
2.03642e-05
1.77046e-12
-9.20038e-06
5.03463e-05
1.89383e-12
-1.82745e-05
7.17924e-05
1.84102e-12
-2.89698e-05
8.6153e-05
1.54282e-12
-4.04666e-05
9.44231e-05
1.43037e-12
-5.20399e-05
9.71948e-05
1.15572e-12
-6.30003e-05
9.46355e-05
5.92875e-13
-7.25836e-05
8.64985e-05
2.79959e-13
-7.97566e-05
7.21796e-05
4.45635e-13
4.96904e-05
5.21533e-13
-8.2067e-05
-2.10426e-06
1.19576e-12
2.24658e-05
-7.29075e-06
1.3069e-12
5.5536e-05
-1.46053e-05
1.40668e-12
7.91068e-05
-2.31536e-05
1.29168e-12
9.47008e-05
-3.20872e-05
1.01487e-12
0.000103356
-4.05862e-05
6.16762e-13
0.000105693
-4.78423e-05
3.76492e-13
0.00010189
-5.29741e-05
4.92896e-13
9.16182e-05
-5.48241e-05
7.28746e-13
7.40011e-05
3.98308e-13
-5.18001e-05
4.66761e-05
1.52877e-07
-1.52773e-07
-9.94799e-11
-5.44849e-07
6.99495e-07
-1.75878e-09
-2.06835e-06
1.5261e-06
-2.59487e-09
-4.1723e-06
2.10728e-06
-3.32118e-09
-6.62253e-06
2.454e-06
-3.7586e-09
-9.22524e-06
2.60666e-06
-3.94549e-09
-1.18209e-05
2.59958e-06
-3.97016e-09
-1.4271e-05
2.45395e-06
-3.80065e-09
-1.64551e-05
2.18752e-06
-3.44387e-09
1.82876e-06
-2.87495e-09
-1.8281e-05
-7.30001e-07
5.75819e-07
1.41366e-09
-3.29327e-06
3.26319e-06
-4.19483e-10
-7.4792e-06
5.71055e-06
1.49169e-09
-1.28656e-05
7.4913e-06
2.37081e-09
-1.90066e-05
8.59227e-06
2.8069e-09
-2.5486e-05
9.08292e-06
3.06293e-09
-3.19262e-05
9.03626e-06
3.59626e-09
-3.79861e-05
8.51098e-06
2.85236e-09
-4.33724e-05
7.57133e-06
2.51867e-09
6.32442e-06
2.17702e-09
-4.78703e-05
-1.69254e-06
2.26589e-06
2.48274e-09
-6.10707e-06
7.68e-06
-2.2683e-09
-1.26638e-05
1.22675e-05
-1.15118e-10
-2.07652e-05
1.55926e-05
8.31021e-11
-2.98268e-05
1.7654e-05
-1.30205e-10
-3.92942e-05
1.85505e-05
-1.28503e-10
-4.86429e-05
1.83851e-05
-1.54943e-10
-5.7382e-05
1.72503e-05
-1.99121e-10
-6.50795e-05
1.5269e-05
-2.59584e-10
1.26617e-05
-1.58991e-10
-7.14166e-05
-2.48265e-06
4.74494e-06
3.61643e-09
-8.46382e-06
1.36644e-05
-3.18498e-09
-1.6985e-05
2.07887e-05
5.69813e-12
-2.72594e-05
2.58667e-05
2.73317e-10
-3.85887e-05
2.89834e-05
-9.46907e-11
-5.03222e-05
3.02841e-05
-1.3895e-10
-6.18302e-05
2.98933e-05
-1.81968e-10
-7.25008e-05
2.79212e-05
-2.85726e-10
-8.17703e-05
2.4539e-05
-4.82047e-10
2.00951e-05
-4.22721e-10
-8.92033e-05
-3.04115e-06
7.78168e-06
4.41673e-09
-1.01664e-05
2.07933e-05
-3.74283e-09
-2.01224e-05
3.07443e-05
4.18035e-10
-3.19643e-05
3.77077e-05
9.13763e-10
-4.49053e-05
4.19238e-05
5.49512e-10
-5.8228e-05
4.36063e-05
5.23536e-10
-7.12256e-05
4.28904e-05
4.65466e-10
-8.31792e-05
3.98746e-05
2.70234e-10
-9.33801e-05
3.47401e-05
-3.06174e-10
2.79383e-05
-5.90931e-10
-0.000101223
-3.34363e-06
1.11205e-05
4.78156e-09
-1.111e-05
2.85638e-05
-4.14854e-09
-2.18775e-05
4.15113e-05
5.45678e-10
-3.4604e-05
5.0433e-05
1.16204e-09
-4.84499e-05
5.57689e-05
8.04817e-10
-6.2662e-05
5.78176e-05
8.00135e-10
-7.6486e-05
5.67137e-05
7.81686e-10
-8.9113e-05
5.25009e-05
6.27336e-10
-9.96666e-05
4.52942e-05
-5.22495e-10
3.55386e-05
-1.63507e-09
-0.000107265
-3.38153e-06
1.44967e-05
5.40248e-09
-1.1246e-05
3.64325e-05
-4.27164e-09
-2.21399e-05
5.24047e-05
5.81353e-10
-3.49941e-05
6.32859e-05
1.27074e-09
-4.89565e-05
6.97304e-05
9.69347e-10
-6.32726e-05
7.21328e-05
1.00758e-09
-7.71807e-05
7.06206e-05
1.11688e-09
-8.98206e-05
6.51394e-05
1.33999e-09
-0.000100151
5.56252e-05
-6.83925e-10
4.22506e-05
-4.14489e-09
-0.000106859
-3.16134e-06
1.76536e-05
4.41348e-09
-1.05813e-05
4.38565e-05
-4.08137e-09
-2.08958e-05
6.27187e-05
5.33374e-10
-3.30698e-05
7.54586e-05
1.23762e-09
-4.62678e-05
8.29274e-05
1.01323e-09
-5.97585e-05
8.56224e-05
1.03212e-09
-7.28155e-05
8.36765e-05
1.16961e-09
-8.45983e-05
7.69201e-05
2.07713e-09
-9.39791e-05
6.5008e-05
-2.00805e-09
4.73476e-05
-1.44292e-08
-9.90616e-05
-2.71431e-06
2.03642e-05
3.70296e-09
-9.20038e-06
5.03463e-05
-3.69036e-09
-1.82744e-05
7.17924e-05
3.70738e-10
-2.89698e-05
8.6153e-05
1.03879e-09
-4.04666e-05
9.44231e-05
9.54894e-10
-5.20399e-05
9.71948e-05
1.03733e-09
-6.30003e-05
9.46355e-05
1.39693e-09
-7.25835e-05
8.64985e-05
4.8847e-09
-7.97566e-05
7.21796e-05
1.44457e-09
4.96904e-05
-3.23886e-08
-8.2067e-05
-2.10426e-06
2.69036e-09
2.24658e-05
-7.29075e-06
-3.18417e-09
5.5536e-05
-1.46053e-05
6.29691e-11
7.91068e-05
-2.31536e-05
5.92709e-10
9.47008e-05
-3.20872e-05
6.31783e-10
0.000103356
-4.05862e-05
9.31908e-10
0.000105693
-4.78422e-05
1.98568e-09
0.00010189
-5.29741e-05
1.2188e-08
9.16182e-05
-5.48241e-05
2.84775e-08
7.40011e-05
-9.70545e-09
-5.18001e-05
4.66761e-05
1.51521e-07
-1.51621e-07
-5.44218e-07
6.93986e-07
-2.06761e-06
1.5208e-06
-4.1722e-06
2.10126e-06
-6.62271e-06
2.44676e-06
-9.22544e-06
2.59878e-06
-1.18208e-05
2.59142e-06
-1.42708e-05
2.44618e-06
-1.64547e-05
2.1804e-06
1.8228e-06
-1.82803e-05
-7.25271e-07
5.75054e-07
-3.28765e-06
3.25595e-06
-7.47424e-06
5.70888e-06
-1.28622e-05
7.49157e-06
-1.90051e-05
8.59246e-06
-2.54861e-05
9.08287e-06
-3.19271e-05
9.03599e-06
-3.7988e-05
8.50993e-06
-4.33747e-05
7.56962e-06
6.32284e-06
-4.78725e-05
-1.68713e-06
2.26467e-06
-6.1063e-06
7.67284e-06
-1.2663e-05
1.22655e-05
-2.07642e-05
1.55928e-05
-2.98263e-05
1.76544e-05
-3.92942e-05
1.85507e-05
-4.86432e-05
1.83848e-05
-5.73825e-05
1.72491e-05
-6.50797e-05
1.52666e-05
1.26594e-05
-7.14165e-05
-2.47583e-06
4.74412e-06
-8.46492e-06
1.36587e-05
-1.69862e-05
2.07868e-05
-2.72597e-05
2.58665e-05
-3.85887e-05
2.89834e-05
-5.03222e-05
3.0284e-05
-6.18303e-05
2.98927e-05
-7.25009e-05
2.79194e-05
-8.17698e-05
2.45349e-05
2.00912e-05
-8.92019e-05
-3.03263e-06
7.78116e-06
-1.01677e-05
2.07901e-05
-2.01239e-05
3.07434e-05
-3.19646e-05
3.77081e-05
-4.49052e-05
4.19246e-05
-5.82278e-05
4.36071e-05
-7.12255e-05
4.28909e-05
-8.31796e-05
3.98737e-05
-9.33796e-05
3.47346e-05
2.79312e-05
-0.00010122
-3.33411e-06
1.112e-05
-1.11113e-05
2.85632e-05
-2.18791e-05
4.15117e-05
-3.46041e-05
5.04342e-05
-4.84493e-05
5.57706e-05
-6.26611e-05
5.78196e-05
-7.64853e-05
5.6716e-05
-8.91133e-05
5.25024e-05
-9.96663e-05
4.52871e-05
3.5524e-05
-0.000107261
-3.37164e-06
1.44971e-05
-1.12473e-05
3.64345e-05
-2.21412e-05
5.24062e-05
-3.49935e-05
6.32878e-05
-4.89549e-05
6.9733e-05
-6.32702e-05
7.2136e-05
-7.71784e-05
7.06252e-05
-8.98204e-05
6.51458e-05
-0.000100152
5.56178e-05
4.22183e-05
-0.00010685
-3.15242e-06
1.76539e-05
-1.05825e-05
4.38605e-05
-2.08968e-05
6.2721e-05
-3.30685e-05
7.54608e-05
-4.6265e-05
8.29304e-05
-5.97544e-05
8.56265e-05
-7.28109e-05
8.36829e-05
-8.4598e-05
7.69349e-05
-9.39915e-05
6.50093e-05
4.7265e-05
-9.90527e-05
-2.70689e-06
2.03645e-05
-9.20161e-06
5.03516e-05
-1.82751e-05
7.17949e-05
-2.89679e-05
8.61546e-05
-4.04618e-05
9.44252e-05
-5.20314e-05
9.71972e-05
-6.29859e-05
9.46388e-05
-7.25638e-05
8.65177e-05
-7.97804e-05
7.22273e-05
4.9573e-05
-8.21208e-05
-2.09887e-06
2.24661e-05
-7.2923e-06
5.55418e-05
-1.46066e-05
7.91092e-05
-2.31527e-05
9.47014e-05
-3.20824e-05
0.000103356
-4.05743e-05
0.00010569
-4.78135e-05
0.00010188
-5.28859e-05
9.16024e-05
-5.46835e-05
7.40533e-05
-5.20279e-05
4.69077e-05
-1.97065e-05
1.42401e-06
2.16151e-09
-2.07545e-05
1.04644e-06
1.51207e-09
-2.14868e-05
7.31382e-07
1.00121e-09
-2.19806e-05
4.93131e-07
6.32451e-10
-2.23088e-05
3.27848e-07
3.887e-10
-2.25325e-05
2.23424e-07
2.42042e-10
-2.26992e-05
1.66481e-07
1.65773e-10
-2.28451e-05
1.45787e-07
1.39817e-10
-2.29982e-05
1.5296e-07
1.5072e-10
-2.318e-05
1.81631e-07
1.89623e-10
-2.34061e-05
2.25856e-07
2.50554e-10
-2.36846e-05
2.78116e-07
3.27258e-10
-2.40121e-05
3.27144e-07
4.09809e-10
-2.43684e-05
3.55799e-07
4.82258e-10
-2.47085e-05
3.39589e-07
5.18226e-10
-2.49559e-05
2.46882e-07
4.74563e-10
-2.49996e-05
4.3442e-08
2.96766e-10
-2.46963e-05
-3.03247e-07
-4.78585e-11
-2.38946e-05
-8.01069e-07
-6.55044e-10
-1.4248e-06
-1.56942e-09
-2.24682e-05
-5.13935e-05
4.94689e-06
-1.9272e-09
-5.39974e-05
3.65198e-06
-1.61012e-09
-5.58379e-05
2.57312e-06
-1.27419e-09
-5.70987e-05
1.75486e-06
-9.74009e-10
-5.79527e-05
1.18258e-06
-7.28818e-10
-5.85438e-05
8.15125e-07
-5.48303e-10
-5.89842e-05
6.07247e-07
-4.32207e-10
-5.93582e-05
5.20183e-07
-3.73183e-10
-5.97287e-05
5.23822e-07
-3.60523e-10
-6.01408e-05
5.94104e-07
-3.82465e-10
-6.06225e-05
7.08054e-07
-4.24507e-10
-6.11817e-05
8.37701e-07
-4.66736e-10
-6.17977e-05
9.43632e-07
-4.82511e-10
-6.24105e-05
9.69105e-07
-4.36896e-10
-6.29072e-05
8.3651e-07
-2.86749e-10
-6.31097e-05
4.49379e-07
1.31192e-11
-6.27714e-05
-2.95351e-07
4.92637e-10
-6.15941e-05
-1.48165e-06
1.1397e-09
-5.92671e-05
-3.13e-06
1.91529e-09
-5.14715e-06
2.64481e-09
-5.55474e-05
-7.62759e-05
9.80646e-06
-2.35007e-10
-7.97892e-05
7.16566e-06
-4.13217e-10
-8.22209e-05
5.0053e-06
-4.54297e-10
-8.38578e-05
3.39227e-06
-4.32638e-10
-8.49515e-05
2.27662e-06
-3.70148e-10
-8.56996e-05
1.56351e-06
-2.95851e-10
-8.62489e-05
1.15674e-06
-2.28389e-10
-8.67055e-05
9.76933e-07
-1.75028e-10
-8.7145e-05
9.63472e-07
-1.36499e-10
-8.76191e-05
1.06834e-06
-1.10493e-10
-8.81572e-05
1.24629e-06
-9.24384e-11
-8.8763e-05
1.44357e-06
-7.63273e-11
-8.94054e-05
1.58608e-06
-5.55768e-11
-9.0005e-05
1.56867e-06
-2.19776e-11
-9.04168e-05
1.24834e-06
3.56599e-11
-9.04144e-05
4.46763e-07
1.26459e-10
-8.96809e-05
-1.02907e-06
2.4503e-10
-8.78227e-05
-3.3402e-06
3.83712e-10
-8.44175e-05
-6.53571e-06
5.26325e-10
-1.04479e-05
4.4764e-10
-7.91172e-05
-9.46518e-05
1.52567e-05
-3.75413e-10
-9.83864e-05
1.09008e-05
-6.08242e-10
-0.000100835
7.45423e-06
-6.04988e-10
-0.000102401
4.95934e-06
-5.38652e-10
-0.000103401
3.27727e-06
-4.29409e-10
-0.000104059
2.2214e-06
-3.18216e-10
-0.000104525
1.62336e-06
-2.25782e-10
-0.000104902
1.35357e-06
-1.55804e-10
-0.000105256
1.3179e-06
-1.05775e-10
-0.000105633
1.44473e-06
-7.20194e-11
-0.000106055
1.66896e-06
-5.04509e-11
-0.000106526
1.91484e-06
-3.69326e-11
-0.000107019
2.07849e-06
-2.78831e-11
-0.000107461
2.01115e-06
-1.77451e-11
-0.000107719
1.50628e-06
7.8393e-12
-0.00010757
2.97228e-07
6.4366e-11
-0.000106679
-1.91952e-06
1.33173e-10
-0.000104595
-5.42496e-06
2.62751e-10
-0.000100776
-1.0355e-05
5.10003e-10
-1.6514e-05
4.49932e-10
-9.47104e-05
-0.000106492
2.05292e-05
-1.0268e-09
-0.00010972
1.41304e-05
-1.15181e-09
-0.000111592
9.3268e-06
-9.33271e-10
-0.000112646
6.01465e-06
-7.30162e-10
-0.00011324
3.87105e-06
-5.14661e-10
-0.000113585
2.5672e-06
-3.38716e-10
-0.000113805
1.84356e-06
-2.16492e-10
-0.000113969
1.51791e-06
-1.37479e-10
-0.000114119
1.4673e-06
-8.97825e-11
-0.000114278
1.60417e-06
-6.44757e-11
-0.000114462
1.85314e-06
-5.5085e-11
-0.000114676
2.12861e-06
-5.70702e-11
-0.000114909
2.31222e-06
-6.73825e-11
-0.000115128
2.22957e-06
-7.97888e-11
-0.000115249
1.62767e-06
-6.91825e-11
-0.00011511
1.58093e-07
-6.8448e-13
-0.00011442
-2.60969e-06
6.71947e-11
-0.000112705
-7.14042e-06
2.59524e-10
-0.000109285
-1.37756e-05
8.95222e-10
-2.24364e-05
1.28065e-09
-0.000103364
-0.000111501
2.47717e-05
-2.19736e-09
-0.000113437
1.6068e-05
-1.87465e-09
-0.000114152
1.00434e-05
-1.17419e-09
-0.000114317
6.17967e-06
-7.86224e-10
-0.00011427
3.82513e-06
-4.62707e-10
-0.000114162
2.45919e-06
-2.44307e-10
-0.000114045
1.72688e-06
-1.21159e-10
-0.000113932
1.40506e-06
-5.57797e-11
-0.000113822
1.35666e-06
-2.37266e-11
-0.00011371
1.49235e-06
-1.15615e-11
-0.000113598
1.7409e-06
-1.23916e-11
-0.000113493
2.02386e-06
-2.36274e-11
-0.000113411
2.23065e-06
-4.54667e-11
-0.000113372
2.19034e-06
-7.69456e-11
-0.000113382
1.6381e-06
-9.49793e-11
-0.000113399
1.74914e-07
-5.49965e-11
-0.000113255
-2.75384e-06
-2.76886e-11
-0.000112536
-7.85906e-06
1.45585e-10
-0.000110436
-1.58772e-05
1.53872e-09
-2.71801e-05
3.24988e-09
-0.000105696
-0.000109012
2.69395e-05
-5.85018e-09
-0.000108806
1.58659e-05
-3.86089e-09
-0.000107879
9.1183e-06
-1.78375e-09
-0.000106933
5.23413e-06
-9.29744e-10
-0.000106172
3.06501e-06
-3.94882e-10
-0.000105603
1.89024e-06
-1.2203e-10
-0.000105169
1.29287e-06
-1.49507e-11
-0.000104807
1.04311e-06
2.02679e-11
-0.000104466
1.01516e-06
2.47561e-11
-0.000104109
1.13585e-06
1.49192e-11
-0.000103721
1.35253e-06
-3.49439e-12
-0.000103307
1.60973e-06
-2.97985e-11
-0.000102903
1.8267e-06
-6.52614e-11
-0.000102582
1.86984e-06
-1.13196e-10
-0.000102456
1.51261e-06
-1.50079e-10
-0.000102654
3.72385e-07
-7.79241e-11
-0.000103236
-2.17208e-06
9.4601e-11
-0.000104016
-7.07897e-06
4.68306e-10
-0.0001042
-1.56972e-05
3.71565e-09
-2.95083e-05
8.92991e-09
-0.000101881
-9.76642e-05
2.55609e-05
-9.93948e-09
-9.45147e-05
1.27204e-05
-4.03534e-09
-9.17717e-05
6.37611e-06
-8.18228e-10
-8.98247e-05
3.28743e-06
-3.11479e-10
-8.8534e-05
1.77424e-06
4.01581e-11
-8.76792e-05
1.03531e-06
1.63843e-10
-8.70759e-05
6.89451e-07
1.54815e-10
-8.65912e-05
5.58254e-07
1.27409e-10
-8.61337e-05
5.57553e-07
1.05716e-10
-8.56432e-05
6.45217e-07
9.03687e-11
-8.50859e-05
7.95214e-07
7.77393e-11
-8.44582e-05
9.81896e-07
6.19916e-11
-8.37974e-05
1.16595e-06
3.38403e-11
-8.3203e-05
1.27538e-06
-3.30281e-11
-8.28622e-05
1.17202e-06
-1.31488e-10
-8.30736e-05
5.83739e-07
-4.35515e-11
-8.42097e-05
-1.0361e-06
1.24468e-10
-8.65825e-05
-4.7057e-06
-4.57754e-10
-8.98598e-05
-1.24231e-05
3.28661e-09
-2.77863e-05
1.42711e-08
-9.15961e-05
-7.46039e-05
1.80564e-05
-1.24219e-08
-6.83269e-05
6.43792e-06
5.50286e-09
-6.44642e-05
2.50727e-06
6.15661e-09
-6.22402e-05
1.06083e-06
2.62741e-09
-6.09604e-05
4.93015e-07
1.35861e-09
-6.01894e-05
2.63556e-07
8.23914e-10
-5.96737e-05
1.73193e-07
5.17353e-10
-5.92636e-05
1.47753e-07
3.91701e-10
-5.88662e-05
1.59742e-07
3.76384e-10
-5.84201e-05
1.98776e-07
4.2355e-10
-5.78859e-05
2.60412e-07
5.08401e-10
-5.72457e-05
3.41098e-07
6.09509e-10
-5.65147e-05
4.34304e-07
6.89066e-10
-5.57645e-05
5.24504e-07
6.49432e-10
-5.51665e-05
5.73666e-07
3.65792e-10
-5.50761e-05
4.93435e-07
-9.58308e-11
-5.60717e-05
-3.88313e-08
-1.65873e-09
-5.9189e-05
-1.58074e-06
-7.63931e-09
-6.55126e-05
-6.0892e-06
-1.03579e-08
-1.92751e-05
1.54466e-08
-7.40392e-05
-3.39026e-05
-6.88756e-08
-2.7453e-05
-1.16942e-08
-2.49449e-05
-8.40532e-10
-2.38822e-05
-1.87862e-09
-2.33879e-05
-1.22044e-09
-2.31238e-05
-5.73061e-10
-2.29503e-05
-3.24326e-10
-2.28023e-05
-2.29856e-10
-2.26424e-05
-2.03624e-10
-2.24434e-05
-2.23963e-10
-2.21827e-05
-2.7709e-10
-2.18412e-05
-3.4958e-10
-2.14065e-05
-4.22579e-10
-2.08815e-05
-4.62871e-10
-2.03075e-05
-3.54914e-10
-1.98143e-05
2.14608e-10
-1.98539e-05
7.70915e-10
-2.14321e-05
-2.53984e-09
-2.75263e-05
5.07084e-09
8.70354e-08
-4.68885e-05
-1.97071e-05
1.42831e-06
6.16535e-13
-2.0755e-05
1.04935e-06
3.93861e-13
-2.14872e-05
7.33259e-07
1.50786e-13
-2.19809e-05
4.94282e-07
7.48251e-14
-2.2309e-05
3.28537e-07
7.72787e-14
-2.25326e-05
2.23852e-07
4.97747e-14
-2.26992e-05
1.6679e-07
4.83199e-14
-2.28452e-05
1.46074e-07
1.90995e-13
-2.29983e-05
1.53293e-07
1.95453e-13
-2.31802e-05
1.8206e-07
6.98422e-14
-2.34064e-05
2.26414e-07
1.03388e-13
-2.36849e-05
2.78822e-07
1.14265e-13
-2.40124e-05
3.2799e-07
-2.37705e-14
-2.43687e-05
3.56742e-07
-1.02451e-13
-2.47087e-05
3.40539e-07
-2.39376e-14
-2.49559e-05
2.47698e-07
6.97551e-14
-2.49993e-05
4.36824e-08
1.00381e-13
-2.46959e-05
-3.03469e-07
9.02546e-14
-2.38942e-05
-8.02381e-07
7.50618e-14
-1.42782e-06
9.57175e-14
-2.24679e-05
-5.13911e-05
4.94716e-06
5.36086e-13
-5.3995e-05
3.65164e-06
2.9732e-13
-5.58357e-05
2.57268e-06
4.37372e-14
-5.70968e-05
1.75447e-06
-5.88197e-14
-5.79513e-05
1.18228e-06
-5.68726e-14
-5.85429e-05
8.14934e-07
-8.37434e-14
-5.89837e-05
6.07129e-07
-1.93585e-13
-5.93581e-05
5.201e-07
-1.31478e-13
-5.97289e-05
5.23739e-07
-8.59709e-14
-6.01412e-05
5.93982e-07
-1.70572e-13
-6.06231e-05
7.07855e-07
-1.47618e-13
-6.11821e-05
8.37389e-07
-8.25855e-14
-6.17978e-05
9.43183e-07
-7.8317e-14
-6.241e-05
9.68527e-07
-4.61105e-14
-6.29056e-05
8.35884e-07
4.96996e-14
-6.31068e-05
4.48877e-07
1.6732e-13
-6.27671e-05
-2.95491e-07
2.47785e-13
-6.15886e-05
-1.48088e-06
2.90318e-13
-5.9261e-05
-3.12803e-06
3.64427e-13
-5.14463e-06
4.66411e-13
-5.55416e-05
-7.62752e-05
9.80557e-06
5.04883e-13
-7.97878e-05
7.16381e-06
2.72753e-13
-8.22193e-05
5.00367e-06
-1.66961e-14
-8.38563e-05
3.39105e-06
-1.70404e-13
-8.49502e-05
2.27584e-06
-1.72335e-13
-8.56986e-05
1.56307e-06
-1.98329e-13
-8.62482e-05
1.15652e-06
-3.2357e-13
-8.67051e-05
9.76815e-07
-1.77077e-13
-8.71449e-05
9.63376e-07
-1.4031e-13
-8.76192e-05
1.06819e-06
-3.35573e-13
-8.81575e-05
1.24602e-06
-3.51021e-13
-8.87633e-05
1.44311e-06
-2.05971e-13
-8.94055e-05
1.58537e-06
-1.36186e-13
-9.00047e-05
1.56771e-06
-1.42942e-13
-9.0416e-05
1.24722e-06
-1.38078e-13
-9.04128e-05
4.45755e-07
-9.06678e-14
-8.96785e-05
-1.02956e-06
1.64456e-14
-8.78196e-05
-3.33933e-06
2.01211e-13
-8.44145e-05
-6.53263e-06
4.35316e-13
-1.04439e-05
6.62162e-13
-7.91148e-05
-9.46517e-05
1.52535e-05
6.13311e-13
-9.83849e-05
1.08964e-05
4.27115e-13
-0.000100833
7.45093e-06
1.62179e-13
-0.000102399
4.95712e-06
-6.37912e-14
-0.0001034
3.27595e-06
-9.32364e-14
-0.000104058
2.22072e-06
-2.65585e-14
-0.000104525
1.62306e-06
-1.09855e-13
-0.000104901
1.35346e-06
3.80202e-14
-0.000105256
1.31784e-06
8.95256e-14
-0.000105633
1.44463e-06
-1.10646e-13
-0.000106055
1.66873e-06
-1.76774e-13
-0.000106527
1.91438e-06
-1.26271e-13
-0.000107019
2.07771e-06
-1.32521e-13
-0.000107461
2.01001e-06
-2.34486e-13
-0.000107719
1.50485e-06
-3.1062e-13
-0.000107569
2.95897e-07
-2.79561e-13
-0.000106678
-1.92051e-06
-1.31808e-13
-0.000104593
-5.42423e-06
6.32079e-14
-0.000100774
-1.03506e-05
2.10144e-13
-1.65079e-05
2.76835e-13
-9.47098e-05
-0.000106491
2.05206e-05
3.98497e-13
-0.000109717
1.41217e-05
3.55081e-13
-0.000111589
9.32143e-06
2.5943e-13
-0.000112644
6.01148e-06
-1.464e-15
-0.000113238
3.86939e-06
-3.3441e-14
-0.000113584
2.56646e-06
2.10291e-14
-0.000113804
1.84329e-06
-4.57017e-14
-0.000113969
1.51786e-06
7.31085e-14
-0.000114118
1.4673e-06
8.29514e-14
-0.000114278
1.60412e-06
-1.04873e-13
-0.000114462
1.85294e-06
-1.79487e-13
-0.000114676
2.12815e-06
-1.38709e-13
-0.00011491
2.31139e-06
-1.35254e-13
-0.000115128
2.22825e-06
-1.37e-13
-0.000115249
1.62586e-06
-5.152e-14
-0.00011511
1.56503e-07
1.83796e-13
-0.000114419
-2.61148e-06
3.8629e-13
-0.000112702
-7.14022e-06
4.02992e-13
-0.000109283
-1.37689e-05
2.13593e-13
-2.24254e-05
-8.12654e-14
-0.000103364
-0.000111498
2.47515e-05
-1.10823e-13
-0.000113431
1.60528e-05
-6.0053e-14
-0.000114148
1.00366e-05
1.18966e-13
-0.000114313
6.17644e-06
-1.09577e-13
-0.000114268
3.82379e-06
-6.6403e-14
-0.000114161
2.45881e-06
2.14082e-14
-0.000114045
1.72687e-06
9.77843e-14
-0.000113932
1.40517e-06
2.12075e-13
-0.000113821
1.35676e-06
1.35326e-13
-0.00011371
1.49237e-06
-9.07263e-14
-0.000113597
1.74076e-06
-2.29255e-13
-0.000113493
2.02347e-06
-2.45239e-13
-0.000113411
2.22987e-06
-1.94585e-13
-0.000113372
2.18899e-06
-3.6986e-14
-0.000113382
1.63606e-06
2.43403e-13
-0.000113399
1.72957e-07
4.54828e-13
-0.000113254
-2.75683e-06
3.98218e-13
-0.000112533
-7.86037e-06
5.46823e-14
-0.000110434
-1.58671e-05
-3.68407e-13
-2.71572e-05
-6.39694e-13
-0.000105699
-0.000109005
2.68918e-05
-3.20594e-13
-0.000108796
1.58401e-05
-2.51318e-13
-0.000107873
9.11141e-06
1.27358e-13
-0.000106929
5.23223e-06
-4.29745e-14
-0.000106171
3.06474e-06
-1.69639e-13
-0.000105603
1.89052e-06
-1.93409e-13
-0.000105169
1.29319e-06
8.22916e-15
-0.000104807
1.04335e-06
2.53362e-13
-0.000104466
1.01531e-06
2.0523e-13
-0.000104109
1.13587e-06
-4.43575e-14
-0.000103721
1.3524e-06
-2.41696e-13
-0.000103307
1.60936e-06
-2.60581e-13
-0.000102903
1.82596e-06
-1.12456e-13
-0.000102582
1.86849e-06
1.67644e-13
-0.000102457
1.51041e-06
3.66197e-13
-0.000102654
3.69769e-07
2.15337e-13
-0.000103234
-2.17616e-06
-2.79746e-13
-0.000104012
-7.08209e-06
-6.61434e-13
-0.000104196
-1.56798e-05
-6.21925e-13
-2.94538e-05
-4.04338e-13
-0.00010189
-9.76499e-05
2.54701e-05
-2.35123e-14
-9.45045e-05
1.26906e-05
-6.69531e-14
-9.17684e-05
6.37455e-06
1.60524e-13
-8.98246e-05
3.28812e-06
-2.61434e-14
-8.85347e-05
1.77487e-06
-4.22579e-13
-8.76799e-05
1.03585e-06
-6.30782e-13
-8.70763e-05
6.89799e-07
-3.93248e-13
-8.65913e-05
5.58444e-07
-4.00902e-14
-8.61335e-05
5.57646e-07
2.75047e-14
-8.56428e-05
6.45236e-07
-1.47065e-13
-8.50855e-05
7.95154e-07
-2.53471e-13
-8.44578e-05
9.81722e-07
-1.74554e-13
-8.37974e-05
1.16558e-06
1.00659e-13
-8.32035e-05
1.27462e-06
3.40589e-13
-8.28638e-05
1.17056e-06
2.00889e-13
-8.30756e-05
5.81545e-07
-4.03353e-13
-8.42134e-05
-1.03825e-06
-9.11068e-13
-8.65852e-05
-4.71071e-06
-6.72877e-13
-8.98576e-05
-1.24041e-05
-9.63498e-14
-2.76853e-05
7.38269e-14
-9.16119e-05
-7.45856e-05
1.79763e-05
3.88487e-13
-6.83346e-05
6.44511e-06
1.2506e-13
-6.44731e-05
2.51916e-06
5.19115e-13
-6.22467e-05
1.06444e-06
6.08341e-13
-6.09642e-05
4.93717e-07
-8.00372e-14
-6.01913e-05
2.63789e-07
-4.51991e-13
-5.96744e-05
1.73387e-07
-3.50173e-13
-5.92636e-05
1.47997e-07
-7.78976e-14
-5.88656e-05
1.60091e-07
-2.88937e-14
-5.84193e-05
1.99283e-07
-1.13989e-13
-5.78847e-05
2.61142e-07
-1.37099e-13
-5.72445e-05
3.42127e-07
2.80632e-14
-5.6514e-05
4.35724e-07
3.3843e-13
-5.57652e-05
5.26434e-07
3.27897e-13
-5.51703e-05
5.76061e-07
-2.37862e-13
-5.50825e-05
4.93638e-07
-9.36332e-13
-5.60868e-05
-3.55809e-08
-9.71668e-13
-5.92154e-05
-1.58975e-06
-3.57667e-13
-6.55285e-05
-6.10146e-06
-1.41622e-13
-1.92112e-05
-8.12752e-13
-7.39871e-05
-3.38927e-05
6.04546e-13
-2.74593e-05
9.7406e-15
-2.4941e-05
-2.02825e-13
-2.38784e-05
1.52375e-13
-2.33859e-05
-1.08357e-14
-2.31227e-05
-1.98668e-13
-2.29496e-05
-1.20226e-13
-2.28019e-05
1.7108e-14
-2.2642e-05
2.91394e-14
-2.24429e-05
-1.99655e-14
-2.2182e-05
4.53507e-14
-2.18403e-05
2.87807e-13
-2.1405e-05
4.46461e-13
-2.0879e-05
1.42399e-13
-2.03033e-05
-5.3491e-13
-1.98094e-05
-9.00817e-13
-1.98442e-05
-7.29952e-13
-2.14365e-05
-6.0084e-13
-2.75329e-05
-8.40541e-13
-1.31646e-12
-4.66571e-05
-1.97071e-05
1.42831e-06
-2.16112e-09
-2.0755e-05
1.04935e-06
-1.51178e-09
-2.14872e-05
7.33259e-07
-1.00114e-09
-2.19809e-05
4.94282e-07
-6.32476e-10
-2.2309e-05
3.28537e-07
-3.88689e-10
-2.25326e-05
2.23852e-07
-2.4202e-10
-2.26992e-05
1.6679e-07
-1.65797e-10
-2.28452e-05
1.46074e-07
-1.3996e-10
-2.29983e-05
1.53292e-07
-1.5087e-10
-2.31802e-05
1.8206e-07
-1.89618e-10
-2.34064e-05
2.26414e-07
-2.50368e-10
-2.36849e-05
2.78822e-07
-3.27085e-10
-2.40124e-05
3.2799e-07
-4.09921e-10
-2.43687e-05
3.56742e-07
-4.82546e-10
-2.47087e-05
3.40539e-07
-5.18338e-10
-2.49559e-05
2.47698e-07
-4.7433e-10
-2.49993e-05
4.36826e-08
-2.96216e-10
-2.46959e-05
-3.03468e-07
4.86551e-11
-2.38942e-05
-8.0238e-07
6.56059e-10
-1.42782e-06
1.57065e-09
-2.24679e-05
-5.1391e-05
4.94716e-06
1.92805e-09
-5.39949e-05
3.65164e-06
1.61061e-09
-5.58356e-05
2.57268e-06
1.27433e-09
-5.70968e-05
1.75447e-06
9.73945e-10
-5.79513e-05
1.18228e-06
7.28725e-10
-5.85429e-05
8.14933e-07
5.4822e-10
-5.89837e-05
6.07129e-07
4.32214e-10
-5.93581e-05
5.201e-07
3.73295e-10