/*--------------------------------*- C++ -*----------------------------------*\
| =========                 |                                                 |
| \\      /  F ield         | OpenFOAM: The Open Source CFD Toolbox           |
|  \\    /   O peration     | Version:  2.4.0                                 |
|   \\  /    A nd           | Web:      www.OpenFOAM.org                      |
|    \\/     M anipulation  |                                                 |
\*---------------------------------------------------------------------------*/
FoamFile
{
    version     2.0;
    format      ascii;
    class       volVectorField;
    location    "2.9";
    object      U;
}
// * * * * * * * * * * * * * * * * * * * * * * * * * * * * * * * * * * * * * //

dimensions      [0 1 -1 0 0 0 0];

internalField   nonuniform List<vector> 
4800
(
(0.000304062 -0.000306948 4.61915e-07)
(1.16598e-05 0.000159181 0.000217178)
(-0.00184849 0.000664817 0.000443203)
(-0.00483348 0.00100614 0.000609894)
(-0.00854859 0.00119959 0.000673504)
(-0.0126537 0.00128284 0.000613746)
(-0.0168667 0.00128332 0.000424407)
(-0.0209505 0.00121499 0.000106054)
(-0.0246961 0.00108508 -0.000335223)
(-0.027927 0.00090566 -0.00088646)
(-0.000184238 -1.19256e-05 -0.000215395)
(-0.00248206 0.00239323 5.9061e-06)
(-0.00804942 0.0047351 0.000173406)
(-0.0158986 0.0064222 0.000272352)
(-0.0252877 0.00745004 0.000284721)
(-0.0355404 0.00791162 0.000194639)
(-0.0460189 0.00789331 -4.53486e-06)
(-0.0561455 0.00745509 -0.000315122)
(-0.0654042 0.00665244 -0.000735719)
(-0.0733706 0.0055749 -0.00125971)
(-0.000777851 0.0019759 -0.000446768)
(-0.00520058 0.00807885 -0.000154628)
(-0.0142514 0.0135055 1.37598e-05)
(-0.0262531 0.0174717 9.11734e-05)
(-0.0402068 0.0199388 8.6161e-05)
(-0.0552451 0.0210373 -1.01349e-05)
(-0.070503 0.0209097 -0.000201979)
(-0.0851605 0.0196785 -0.000493145)
(-0.0984627 0.0174913 -0.00088668)
(-0.109776 0.014598 -0.00138214)
(-0.00125297 0.00538196 -0.000602862)
(-0.00746528 0.016557 -0.0002249)
(-0.0194559 0.0257887 -3.26586e-05)
(-0.0348435 0.0324458 4.68428e-05)
(-0.0523911 0.0365641 4.40853e-05)
(-0.0710979 0.0383315 -4.38205e-05)
(-0.0899445 0.0379326 -0.000219452)
(-0.107929 0.0355372 -0.000489174)
(-0.124088 0.0313873 -0.000862268)
(-0.137565 0.0259367 -0.00134694)
(-0.00157809 0.0098742 -0.00060925)
(-0.0090817 0.0272231 -0.00015682)
(-0.0232304 0.0407905 6.08133e-05)
(-0.0410812 0.0503827 0.000152749)
(-0.0612028 0.0562369 0.000165415)
(-0.0825005 0.0586337 9.94147e-05)
(-0.103849 0.0577853 -4.86877e-05)
(-0.124107 0.053872 -0.000290731)
(-0.142109 0.0471948 -0.000646068)
(-0.156706 0.038412 -0.0011384)
(-0.00174757 0.0150619 -0.00041678)
(-0.00996386 0.0393417 9.1127e-05)
(-0.0253327 0.0576194 0.000329803)
(-0.0445785 0.0703106 0.000441418)
(-0.0661502 0.0779483 0.000481903)
(-0.0889014 0.0809384 0.000452664)
(-0.111651 0.0795024 0.00034617)
(-0.133164 0.0737724 0.000141243)
(-0.152092 0.0640197 -0.000197133)
(-0.166868 0.0510218 -0.000723069)
(-0.00176189 0.0205231 -1.77457e-06)
(-0.0100776 0.0520613 0.00053967)
(-0.0256412 0.0752166 0.00079185)
(-0.0451023 0.0910747 0.000928262)
(-0.0668748 0.100512 0.00100841)
(-0.0898068 0.104082 0.00103245)
(-0.112718 0.101995 0.000985774)
(-0.134355 0.0942611 0.000834009)
(-0.153271 0.0809621 0.000520627)
(-0.16734 0.0627246 -6.9537e-05)
(-0.00162851 0.0258331 0.000636051)
(-0.00944004 0.0644951 0.00118919)
(-0.0241605 0.092449 0.00144608)
(-0.0426035 0.111408 0.00161084)
(-0.0632172 0.12259 0.00174177)
(-0.0848713 0.126707 0.00183718)
(-0.106428 0.123962 0.001874)
(-0.126712 0.114175 0.00180263)
(-0.144411 0.0970313 0.00154435)
(-0.156802 0.0723968 0.000867112)
(-0.00136726 0.0305947 0.00147451)
(-0.00813952 0.0757943 0.00202024)
(-0.0210687 0.108194 0.00227285)
(-0.0373143 0.129996 0.00246715)
(-0.0553856 0.142706 0.00265689)
(-0.0741457 0.147207 0.00283989)
(-0.0924651 0.143742 0.00298539)
(-0.10926 0.131988 0.00302794)
(-0.123737 0.11118 0.00287854)
(-0.133013 0.0795806 0.00209987)
(-0.00101741 0.0344853 0.00247135)
(-0.0063607 0.0852455 0.00299603)
(-0.016777 0.121464 0.00323559)
(-0.0298772 0.145601 0.00345648)
(-0.0442064 0.159334 0.00370675)
(-0.058507 0.163677 0.00398868)
(-0.0714396 0.158963 0.00427338)
(-0.0816233 0.144857 0.00449155)
(-0.0887683 0.120459 0.0046115)
(-0.0918599 0.0830479 0.00401075)
(0.000308834 -0.000311649 1.53192e-07)
(1.8501e-05 0.000153244 1.40609e-06)
(-0.00184486 0.000650847 2.04784e-06)
(-0.0048309 0.000986459 2.60692e-06)
(-0.00854709 0.00117677 2.94175e-06)
(-0.0126531 0.00125853 3.08335e-06)
(-0.0168669 0.00125908 3.09886e-06)
(-0.0209517 0.00119194 2.96397e-06)
(-0.0246984 0.0010644 2.68436e-06)
(-0.0279304 0.000888027 2.24043e-06)
(-0.000176955 -1.94883e-05 -1.06411e-06)
(-0.00247915 0.00239114 3.55224e-07)
(-0.00805699 0.00472388 -1.13473e-06)
(-0.0159033 0.00640589 -1.82369e-06)
(-0.0252899 0.00743191 -2.16853e-06)
(-0.0355408 0.00789265 -2.37183e-06)
(-0.046018 0.00787447 -2.31838e-06)
(-0.0561438 0.00743743 -2.21459e-06)
(-0.0654024 0.00663684 -1.95664e-06)
(-0.0733695 0.00556143 -1.6917e-06)
(-0.000761914 0.00197026 -1.90656e-06)
(-0.0051894 0.00808537 1.78963e-06)
(-0.0142583 0.0135086 1.11822e-07)
(-0.0262553 0.017475 -4.75102e-08)
(-0.0402069 0.0199439 1.13277e-07)
(-0.0552448 0.0210434 1.08734e-07)
(-0.0705022 0.0209161 1.26455e-07)
(-0.0851595 0.0196852 1.58535e-07)
(-0.0984626 0.0174982 2.04022e-07)
(-0.109778 0.0146037 1.24945e-07)
(-0.0012301 0.00537713 -2.79529e-06)
(-0.00744902 0.0165611 2.49797e-06)
(-0.0194651 0.0257878 1.38288e-08)
(-0.0348455 0.0324431 -1.98725e-07)
(-0.0523901 0.0365619 8.35107e-08)
(-0.0710971 0.0383296 1.15967e-07)
(-0.0899432 0.0379312 1.47312e-07)
(-0.107927 0.0355368 2.25943e-07)
(-0.124088 0.0313892 3.77117e-07)
(-0.13757 0.0259389 3.3018e-07)
(-0.0015507 0.00987127 -3.42398e-06)
(-0.00906328 0.0272255 2.92653e-06)
(-0.023243 0.0407886 -3.11248e-07)
(-0.0410843 0.0503786 -7.00151e-07)
(-0.0612019 0.0562324 -4.19683e-07)
(-0.0824995 0.058629 -4.00529e-07)
(-0.103847 0.0577808 -3.56947e-07)
(-0.124103 0.0538688 -2.0704e-07)
(-0.142106 0.0471962 2.39743e-07)
(-0.156713 0.0384155 4.60496e-07)
(-0.00171778 0.0150614 -3.71356e-06)
(-0.00994458 0.0393432 3.23684e-06)
(-0.0253477 0.0576185 -4.14979e-07)
(-0.0445828 0.0703081 -8.96836e-07)
(-0.0661497 0.0779452 -6.20826e-07)
(-0.0889006 0.0809348 -6.17641e-07)
(-0.111649 0.0794983 -6.04547e-07)
(-0.133157 0.0737689 -4.86338e-07)
(-0.152085 0.0640243 4.0658e-07)
(-0.166882 0.0510337 1.27141e-06)
(-0.00173204 0.0205244 -3.63052e-06)
(-0.0100589 0.0520615 3.32914e-06)
(-0.0256574 0.0752165 -4.45693e-07)
(-0.0451075 0.091074 -9.83576e-07)
(-0.066875 0.100511 -7.50344e-07)
(-0.0898068 0.104079 -7.80344e-07)
(-0.112716 0.101992 -8.66567e-07)
(-0.134342 0.0942564 -1.04179e-06)
(-0.153253 0.0809728 5.31376e-07)
(-0.16737 0.0627629 3.22313e-06)
(-0.00160027 0.025836 -3.43268e-06)
(-0.00942256 0.0644943 3.17921e-06)
(-0.0241764 0.0924499 -4.10121e-07)
(-0.0426091 0.111409 -9.58935e-07)
(-0.0632181 0.12259 -7.8523e-07)
(-0.0848724 0.126706 -8.00333e-07)
(-0.106428 0.123957 -9.0851e-07)
(-0.12669 0.114159 -1.61563e-06)
(-0.144358 0.0970273 1.56146e-06)
(-0.156849 0.0724578 1.12226e-05)
(-0.00134261 0.0305996 -2.88064e-06)
(-0.0081244 0.0757931 2.87374e-06)
(-0.0210831 0.108197 -2.84683e-07)
(-0.0373201 0.129999 -8.04999e-07)
(-0.0553877 0.142709 -7.40496e-07)
(-0.0741503 0.14721 -8.05353e-07)
(-0.0924763 0.14374 -1.08614e-06)
(-0.109242 0.131955 -3.79938e-06)
(-0.123631 0.111104 -1.1234e-06)
(-0.133062 0.0795503 2.51918e-05)
(-0.00099766 0.0344913 -2.09306e-06)
(-0.00634848 0.0852441 2.47904e-06)
(-0.0167883 0.121468 -4.615e-08)
(-0.0298813 0.145609 -4.58691e-07)
(-0.0442079 0.159347 -4.90005e-07)
(-0.0585138 0.1637 -7.24443e-07)
(-0.0714729 0.159006 -1.54458e-06)
(-0.0816648 0.144922 -9.4794e-06)
(-0.0886792 0.120521 -2.21482e-05)
(-0.0919388 0.0831666 7.54951e-06)
(0.000308785 -0.000311696 -7.22248e-08)
(1.84245e-05 0.00015322 -1.36165e-06)
(-0.00184491 0.000650837 -2.01242e-06)
(-0.00483093 0.000986454 -2.57954e-06)
(-0.0085471 0.00117677 -2.92191e-06)
(-0.0126531 0.00125852 -3.06915e-06)
(-0.0168669 0.00125908 -3.08981e-06)
(-0.0209517 0.00119194 -2.9589e-06)
(-0.0246984 0.0010644 -2.68175e-06)
(-0.0279304 0.000888027 -2.23886e-06)
(-0.000176981 -1.95653e-05 1.10902e-06)
(-0.00247919 0.0023911 -3.17737e-07)
(-0.00805702 0.00472386 1.16901e-06)
(-0.0159033 0.00640588 1.85125e-06)
(-0.0252899 0.00743191 2.18881e-06)
(-0.0355408 0.00789265 2.38628e-06)
(-0.0460179 0.00787447 2.32762e-06)
(-0.0561438 0.00743743 2.22001e-06)
(-0.0654023 0.00663684 1.95981e-06)
(-0.0733695 0.00556143 1.69377e-06)
(-0.000761923 0.00197021 1.94222e-06)
(-0.00518941 0.00808533 -1.75538e-06)
(-0.0142584 0.0135086 -8.14373e-08)
(-0.0262553 0.017475 7.08999e-08)
(-0.0402069 0.0199439 -9.65337e-08)
(-0.0552448 0.0210434 -9.64972e-08)
(-0.0705022 0.0209161 -1.18188e-07)
(-0.0851595 0.0196852 -1.5344e-07)
(-0.0984626 0.0174982 -2.01103e-07)
(-0.109778 0.0146037 -1.23148e-07)
(-0.0012301 0.0053771 2.82443e-06)
(-0.00744903 0.0165611 -2.4693e-06)
(-0.0194651 0.0257878 1.12607e-08)
(-0.0348455 0.0324431 2.17702e-07)
(-0.0523901 0.0365619 -6.96547e-08)
(-0.0710971 0.0383296 -1.04916e-07)
(-0.0899431 0.0379311 -1.39237e-07)
(-0.107927 0.0355368 -2.20722e-07)
(-0.124088 0.0313892 -3.74031e-07)
(-0.13757 0.0259389 -3.2819e-07)
(-0.00155071 0.00987126 3.44593e-06)
(-0.00906328 0.0272255 -2.90522e-06)
(-0.023243 0.0407886 3.30184e-07)
(-0.0410843 0.0503786 7.14372e-07)
(-0.0612019 0.0562324 4.30342e-07)
(-0.0824995 0.058629 4.09728e-07)
(-0.103847 0.0577808 3.63948e-07)
(-0.124103 0.0538688 2.11398e-07)
(-0.142106 0.0471961 -2.37498e-07)
(-0.156713 0.0384155 -4.59251e-07)
(-0.00171778 0.0150614 3.72829e-06)
(-0.00994458 0.0393432 -3.22259e-06)
(-0.0253477 0.0576185 4.27857e-07)
(-0.0445827 0.0703081 9.06223e-07)
(-0.0661497 0.0779452 6.28009e-07)
(-0.0889005 0.0809348 6.24215e-07)
(-0.111649 0.0794983 6.09393e-07)
(-0.133157 0.0737689 4.88685e-07)
(-0.152085 0.0640243 -4.06137e-07)
(-0.166882 0.0510337 -1.27174e-06)
(-0.00173204 0.0205244 3.6403e-06)
(-0.0100589 0.0520615 -3.31962e-06)
(-0.0256574 0.0752164 4.54528e-07)
(-0.0451074 0.091074 9.90063e-07)
(-0.066875 0.100511 7.55486e-07)
(-0.0898067 0.104079 7.85174e-07)
(-0.112716 0.101992 8.6973e-07)
(-0.134342 0.0942564 1.04263e-06)
(-0.153253 0.0809728 -5.31868e-07)
(-0.16737 0.0627629 -3.22389e-06)
(-0.00160027 0.025836 3.43953e-06)
(-0.00942256 0.0644943 -3.17247e-06)
(-0.0241764 0.0924499 4.16573e-07)
(-0.0426091 0.111409 9.63977e-07)
(-0.0632181 0.12259 7.89392e-07)
(-0.0848724 0.126706 8.0398e-07)
(-0.106428 0.123957 9.10414e-07)
(-0.12669 0.114159 1.61578e-06)
(-0.144358 0.0970273 -1.56165e-06)
(-0.156849 0.0724578 -1.12225e-05)
(-0.00134261 0.0305996 2.88564e-06)
(-0.0081244 0.0757931 -2.8689e-06)
(-0.0210831 0.108197 2.89729e-07)
(-0.0373201 0.129999 8.09197e-07)
(-0.0553877 0.142709 7.43839e-07)
(-0.0741503 0.14721 8.07739e-07)
(-0.0924762 0.14374 1.08698e-06)
(-0.109242 0.131955 3.79943e-06)
(-0.123631 0.111104 1.12391e-06)
(-0.133062 0.0795503 -2.51907e-05)
(-0.00099766 0.0344913 2.09646e-06)
(-0.00634848 0.0852441 -2.47564e-06)
(-0.0167883 0.121468 5.00435e-08)
(-0.0298813 0.145609 4.62053e-07)
(-0.0442079 0.159347 4.92199e-07)
(-0.0585138 0.1637 7.25311e-07)
(-0.0714729 0.159006 1.54472e-06)
(-0.0816648 0.144922 9.47996e-06)
(-0.0886792 0.120521 2.21497e-05)
(-0.0919388 0.0831666 -7.54834e-06)
(0.000303828 -0.000307177 -5.47035e-07)
(1.13219e-05 0.000159094 -0.000217224)
(-0.00184864 0.000664789 -0.000443241)
(-0.00483356 0.00100613 -0.000609923)
(-0.00854863 0.00119959 -0.000673525)
(-0.0126537 0.00128284 -0.000613761)
(-0.0168667 0.00128331 -0.000424417)
(-0.0209505 0.00121499 -0.000106059)
(-0.0246961 0.00108508 0.00033522)
(-0.027927 0.00090566 0.000886459)
(-0.000184331 -1.22598e-05 0.000215348)
(-0.00248221 0.00239308 -5.94573e-06)
(-0.00804951 0.00473504 -0.000173442)
(-0.0158986 0.00642218 -0.000272381)
(-0.0252877 0.00745002 -0.000284743)
(-0.0355404 0.00791161 -0.000194654)
(-0.0460188 0.00789331 4.52509e-06)
(-0.0561455 0.00745509 0.000315117)
(-0.0654042 0.00665244 0.000735716)
(-0.0733705 0.0055749 0.00125971)
(-0.000777881 0.00197574 0.00044673)
(-0.00520064 0.00807875 0.000154591)
(-0.0142514 0.0135054 -1.37919e-05)
(-0.0262531 0.0174717 -9.11981e-05)
(-0.0402068 0.0199388 -8.61787e-05)
(-0.0552451 0.0210373 1.01219e-05)
(-0.0705029 0.0209097 0.00020197)
(-0.0851605 0.0196785 0.00049314)
(-0.0984626 0.0174913 0.000886677)
(-0.109776 0.014598 0.00138214)
(-0.00125298 0.00538188 0.000602831)
(-0.0074653 0.016557 0.000224869)
(-0.0194559 0.0257886 3.2632e-05)
(-0.0348435 0.0324457 -4.68629e-05)
(-0.052391 0.0365641 -4.41e-05)
(-0.0710979 0.0383314 4.38089e-05)
(-0.0899444 0.0379326 0.000219443)
(-0.107929 0.0355371 0.000489168)
(-0.124088 0.0313873 0.000862265)
(-0.137565 0.0259367 0.00134694)
(-0.0015781 0.00987415 0.000609227)
(-0.0090817 0.0272231 0.000156798)
(-0.0232304 0.0407905 -6.08333e-05)
(-0.0410811 0.0503827 -0.000152764)
(-0.0612028 0.0562369 -0.000165426)
(-0.0825005 0.0586336 -9.94244e-05)
(-0.103849 0.0577853 4.86803e-05)
(-0.124107 0.053872 0.000290726)
(-0.142108 0.0471948 0.000646065)
(-0.156705 0.038412 0.0011384)
(-0.00174757 0.0150619 0.000416765)
(-0.00996386 0.0393416 -9.11421e-05)
(-0.0253326 0.0576194 -0.000329817)
(-0.0445785 0.0703105 -0.000441427)
(-0.0661501 0.0779483 -0.000481911)
(-0.0889013 0.0809383 -0.000452671)
(-0.111651 0.0795023 -0.000346175)
(-0.133164 0.0737724 -0.000141246)
(-0.152092 0.0640197 0.000197133)
(-0.166868 0.0510218 0.00072307)
(-0.00176189 0.0205231 1.76426e-06)
(-0.0100776 0.0520612 -0.00053968)
(-0.0256412 0.0752165 -0.000791859)
(-0.0451023 0.0910747 -0.000928269)
(-0.0668747 0.100512 -0.00100842)
(-0.0898067 0.104082 -0.00103245)
(-0.112718 0.101995 -0.000985777)
(-0.134355 0.0942611 -0.00083401)
(-0.15327 0.0809621 -0.000520627)
(-0.16734 0.0627246 6.95378e-05)
(-0.00162851 0.0258331 -0.000636059)
(-0.00944003 0.0644951 -0.0011892)
(-0.0241604 0.092449 -0.00144609)
(-0.0426034 0.111408 -0.00161085)
(-0.0632172 0.122589 -0.00174177)
(-0.0848713 0.126707 -0.00183719)
(-0.106428 0.123962 -0.001874)
(-0.126712 0.114175 -0.00180263)
(-0.144411 0.0970313 -0.00154435)
(-0.156802 0.0723968 -0.000867112)
(-0.00136726 0.0305947 -0.00147452)
(-0.00813951 0.0757942 -0.00202025)
(-0.0210687 0.108194 -0.00227286)
(-0.0373143 0.129996 -0.00246716)
(-0.0553855 0.142705 -0.00265689)
(-0.0741457 0.147207 -0.00283989)
(-0.0924651 0.143742 -0.00298539)
(-0.10926 0.131988 -0.00302794)
(-0.123737 0.11118 -0.00287854)
(-0.133013 0.0795806 -0.00209987)
(-0.00101741 0.0344853 -0.00247135)
(-0.0063607 0.0852454 -0.00299604)
(-0.016777 0.121464 -0.00323559)
(-0.0298771 0.145601 -0.00345648)
(-0.0442064 0.159334 -0.00370675)
(-0.058507 0.163677 -0.00398868)
(-0.0714396 0.158963 -0.00427338)
(-0.0816233 0.144857 -0.00449155)
(-0.0887683 0.120459 -0.0046115)
(-0.0918599 0.0830479 -0.00401075)
(-0.0305311 0.000702164 -0.00152693)
(-0.0324945 0.000508673 -0.0022312)
(-0.0338932 0.000348033 -0.00297636)
(-0.0348471 0.000228059 -0.00374519)
(-0.0354806 0.00014651 -0.00452629)
(-0.0359028 9.66805e-05 -0.00531301)
(-0.0362001 7.13923e-05 -0.0061022)
(-0.0364389 6.49144e-05 -0.00689312)
(-0.0366696 7.33311e-05 -0.00768686)
(-0.0369314 9.40505e-05 -0.00848613)
(-0.0372541 0.000124867 -0.00929525)
(-0.0376577 0.000162768 -0.0101203)
(-0.0381475 0.000202575 -0.0109694)
(-0.038707 0.000235518 -0.0118518)
(-0.039286 0.000248034 -0.0127778)
(-0.0397892 0.000221422 -0.0137567)
(-0.0400659 0.000133683 -0.0147937)
(-0.0399083 -3.47503e-05 -0.0158863)
(-0.0390707 -0.000295671 -0.0170188)
(-0.037316 -0.000637311 -0.0181592)
(-0.0797872 0.00437407 -0.00187332)
(-0.0846396 0.00323421 -0.0025567)
(-0.0881253 0.00227799 -0.00329136)
(-0.0905354 0.00154964 -0.004062)
(-0.0921659 0.00103978 -0.00485687)
(-0.0932736 0.000713766 -0.00566773)
(-0.0940621 0.000532219 -0.00648944)
(-0.0946863 0.000461242 -0.00731937)
(-0.0952621 0.0004748 -0.00815698)
(-0.0958749 0.00055251 -0.00900358)
(-0.0965836 0.000675074 -0.00986216)
(-0.097419 0.0008185 -0.0107373)
(-0.0983745 0.000947831 -0.011635)
(-0.0993905 0.00101125 -0.0125621)
(-0.100333 0.000936235 -0.0135257)
(-0.100974 0.000630932 -0.0145315)
(-0.100969 -4.56046e-06 -0.0155819)
(-0.0998746 -0.00105237 -0.0166722)
(-0.0971787 -0.00253885 -0.0177885)
(-0.0924026 -0.00438168 -0.0189035)
(-0.118722 0.0114102 -0.00197026)
(-0.12533 0.0084192 -0.0026308)
(-0.12997 0.00593371 -0.00334627)
(-0.133116 0.0040513 -0.00410202)
(-0.135213 0.00273469 -0.0048861)
(-0.136621 0.00188727 -0.00568972)
(-0.137612 0.00140399 -0.00650696)
(-0.138382 0.00119508 -0.00733434)
(-0.139076 0.00119052 -0.00817045)
(-0.139792 0.00133397 -0.00901563)
(-0.140595 0.00157163 -0.00987177)
(-0.141516 0.00183871 -0.0107421)
(-0.142535 0.00204521 -0.0116312)
(-0.143572 0.00206314 -0.0125442)
(-0.144453 0.0017191 -0.0134867)
(-0.144886 0.000798991 -0.0144638)
(-0.144437 -0.000924788 -0.0154782)
(-0.142526 -0.00363537 -0.0165281)
(-0.138471 -0.00737626 -0.0176042)
(-0.131599 -0.0119374 -0.018686)
(-0.147831 0.0199809 -0.00193772)
(-0.155019 0.0145113 -0.00260471)
(-0.15979 0.0100788 -0.00332738)
(-0.162859 0.00679766 -0.00408999)
(-0.164809 0.00454421 -0.00487984)
(-0.166065 0.00311031 -0.00568792)
(-0.166918 0.00229233 -0.0065083)
(-0.167561 0.00192563 -0.00733744)
(-0.168125 0.00188612 -0.00817364)
(-0.168697 0.00207641 -0.00901665)
(-0.169331 0.0024057 -0.00986746)
(-0.170051 0.002767 -0.0107282)
(-0.170841 0.00301387 -0.0116018)
(-0.171628 0.00293887 -0.0124924)
(-0.172258 0.00225938 -0.0134049)
(-0.172453 0.000620895 -0.0143449)
(-0.171777 -0.00236466 -0.015318)
(-0.169596 -0.00702844 -0.0163283)
(-0.16509 -0.0134857 -0.0173752)
(-0.157334 -0.0214192 -0.0184486)
(-0.1671 0.0288528 -0.00176867)
(-0.173623 0.0203577 -0.00247734)
(-0.17745 0.0137521 -0.00323662)
(-0.17962 0.00904897 -0.00402906)
(-0.180834 0.00592335 -0.00484135)
(-0.181525 0.00398315 -0.00566534)
(-0.181943 0.0028915 -0.00649633)
(-0.182231 0.00239775 -0.00733168)
(-0.18247 0.00232454 -0.00817012)
(-0.18271 0.00254015 -0.00901123)
(-0.182981 0.00292708 -0.00985525)
(-0.1833 0.00335004 -0.010703)
(-0.183667 0.00362337 -0.011556)
(-0.184051 0.00347911 -0.0124167)
(-0.18437 0.00254026 -0.0132894)
(-0.184444 0.000310884 -0.0141805)
(-0.18393 -0.00379283 -0.0150995)
(-0.182236 -0.0103334 -0.016059)
(-0.178436 -0.0196324 -0.0170719)
(-0.171232 -0.0313974 -0.0181483)
(-0.176136 0.036808 -0.0014561)
(-0.180599 0.0247935 -0.00225624)
(-0.182372 0.0160268 -0.00308676)
(-0.182896 0.0101426 -0.00393239)
(-0.182909 0.00642325 -0.0047818)
(-0.182753 0.0042039 -0.00563052)
(-0.182564 0.00298926 -0.00647724)
(-0.18238 0.00244701 -0.00732163)
(-0.182203 0.00236145 -0.00816364)
(-0.182026 0.00258461 -0.00900309)
(-0.181845 0.00299301 -0.00983957)
(-0.181667 0.00344821 -0.0106725)
(-0.181511 0.00375734 -0.0115016)
(-0.181409 0.00363072 -0.0123273)
(-0.181392 0.00263715 -0.0131518)
(-0.181454 0.000163943 -0.013982)
(-0.181461 -0.00459245 -0.0148313)
(-0.181011 -0.01254 -0.0157215)
(-0.17919 -0.0244514 -0.0166842)
(-0.174209 -0.040392 -0.0177686)
(-0.174004 0.0423589 -0.0010203)
(-0.17476 0.0264943 -0.00198023)
(-0.173422 0.0160061 -0.0029166)
(-0.17179 0.00955655 -0.00383201)
(-0.170403 0.00576775 -0.0047248)
(-0.169357 0.00363515 -0.00559969)
(-0.168579 0.00251846 -0.00646183)
(-0.167965 0.0020378 -0.00731457)
(-0.167419 0.00197173 -0.00815963)
(-0.16687 0.0021834 -0.00899722)
(-0.166276 0.00256873 -0.00982623)
(-0.165626 0.00301528 -0.0106445)
(-0.164951 0.00336195 -0.0114494)
(-0.164336 0.00335151 -0.0122383)
(-0.163934 0.00256825 -0.0130105)
(-0.163954 0.000354974 -0.0137701)
(-0.164591 -0.00427702 -0.014533)
(-0.165861 -0.0126668 -0.0153291)
(-0.167202 -0.0263873 -0.0162121)
(-0.166377 -0.0465796 -0.0173035)
(-0.158721 0.0433456 -0.000518414)
(-0.153833 0.0238669 -0.00172152)
(-0.148719 0.0129435 -0.00278564)
(-0.14499 0.00707553 -0.003771)
(-0.142487 0.00398242 -0.00469857)
(-0.140847 0.00238536 -0.00559026)
(-0.139739 0.0016041 -0.0064606)
(-0.138909 0.00129084 -0.00731703)
(-0.138183 0.00126837 -0.00816272)
(-0.137441 0.00144108 -0.00899786)
(-0.13661 0.00174526 -0.00982037)
(-0.135656 0.00211597 -0.0106263)
(-0.134599 0.00245602 -0.01141)
(-0.133542 0.00259564 -0.0121653)
(-0.132706 0.0022273 -0.0128864)
(-0.132479 0.000790659 -0.0135723)
(-0.133412 -0.00271715 -0.0142381)
(-0.136188 -0.00996853 -0.0149165)
(-0.141287 -0.0236481 -0.0156771)
(-0.146782 -0.047392 -0.0167535)
(-0.125873 0.0372584 -0.000239734)
(-0.113623 0.0160035 -0.0017124)
(-0.105465 0.00707032 -0.00282363)
(-0.100911 0.00328377 -0.00381618)
(-0.0983161 0.00163212 -0.00473627)
(-0.0967903 0.000902507 -0.00561838)
(-0.095829 0.000590044 -0.00648188)
(-0.0951303 0.000485864 -0.00733427)
(-0.0945111 0.000503607 -0.00817761)
(-0.093854 0.000606227 -0.00901073)
(-0.0930796 0.000774789 -0.00982989)
(-0.0921398 0.000992454 -0.0106289)
(-0.0910265 0.00123123 -0.011399)
(-0.0897971 0.00143232 -0.0121289)
(-0.0886301 0.00146591 -0.0128054)
(-0.0879153 0.00103977 -0.0134176)
(-0.0883326 -0.000522291 -0.0139733)
(-0.0911847 -0.00483067 -0.0144778)
(-0.0989378 -0.0154312 -0.0149751)
(-0.112669 -0.0403005 -0.0158585)
(-0.064091 0.0228406 -0.000887646)
(-0.0478097 0.00658218 -0.00235075)
(-0.0411431 0.00200523 -0.00310308)
(-0.0387303 0.000643058 -0.00385084)
(-0.0376849 0.00022065 -0.00461519)
(-0.0371524 9.1468e-05 -0.00539257)
(-0.036836 5.69175e-05 -0.00618066)
(-0.0365972 5.63093e-05 -0.00697426)
(-0.0363624 7.27973e-05 -0.00776836)
(-0.0360836 0.000103069 -0.00855798)
(-0.035722 0.000147918 -0.00933696)
(-0.0352438 0.000209261 -0.0100968)
(-0.0346212 0.000288549 -0.0108254)
(-0.033841 0.000383491 -0.0115051)
(-0.0329258 0.000477746 -0.012111)
(-0.0319851 0.000509371 -0.0126076)
(-0.0313601 0.000255167 -0.0129477)
(-0.032007 -0.00113675 -0.0130952)
(-0.0375945 -0.00637788 -0.0129303)
(-0.0561834 -0.0255441 -0.0130822)
(-0.0305348 0.000687717 1.6842e-06)
(-0.0324976 0.000497473 1.17814e-06)
(-0.0338955 0.000339763 7.80011e-07)
(-0.0348485 0.000222158 4.92711e-07)
(-0.0354815 0.000142373 3.02856e-07)
(-0.0359032 9.37466e-05 1.88605e-07)
(-0.0362002 6.91853e-05 1.29191e-07)
(-0.0364388 6.30506e-05 1.09088e-07)
(-0.0366694 7.15116e-05 1.17588e-07)
(-0.036931 9.20509e-05 1.47786e-07)
(-0.0372537 0.000122538 1.95264e-07)
(-0.0376572 0.000160052 2.55028e-07)
(-0.038147 0.000199541 3.19213e-07)
(-0.0387064 0.000232415 3.7558e-07)
(-0.0392856 0.000245354 4.03655e-07)
(-0.0397893 0.000219951 3.69715e-07)
(-0.0400667 0.00013448 2.31227e-07)
(-0.0399103 -3.05059e-05 -3.727e-08)
(-0.0390745 -0.000286728 -5.10293e-07)
(-0.0373215 -0.00062293 -1.22255e-06)
(-0.0797863 0.00436212 -1.49852e-06)
(-0.0846382 0.00322442 -1.25209e-06)
(-0.0881235 0.00227051 -9.91015e-07)
(-0.0905335 0.00154417 -7.5761e-07)
(-0.0921643 0.00103591 -5.66892e-07)
(-0.0932723 0.000711048 -4.26507e-07)
(-0.0940612 0.000530254 -3.36307e-07)
(-0.0946858 0.000459697 -2.90358e-07)
(-0.095262 0.000473409 -2.80476e-07)
(-0.0958749 0.000551069 -2.97609e-07)
(-0.0965836 0.00067343 -3.3029e-07)
(-0.0974189 0.000816562 -3.63074e-07)
(-0.0983739 0.000945593 -3.75342e-07)
(-0.0993892 0.00100883 -3.39835e-07)
(-0.100331 0.000933956 -2.22964e-07)
(-0.10097 0.000629357 1.03537e-08)
(-0.100965 -4.62474e-06 3.8336e-07)
(-0.0998696 -0.00104993 8.86674e-07)
(-0.0971743 -0.00253286 1.48997e-06)
(-0.0924 -0.00437206 2.05746e-06)
(-0.118725 0.0114122 -1.82383e-07)
(-0.125331 0.00841961 -3.21186e-07)
(-0.129969 0.00593369 -3.53366e-07)
(-0.133115 0.0040512 -3.36631e-07)
(-0.135212 0.00273469 -2.88031e-07)
(-0.13662 0.00188743 -2.30265e-07)
(-0.137611 0.00140433 -1.77895e-07)
(-0.138382 0.0011956 -1.36283e-07)
(-0.139075 0.00119122 -1.06266e-07)
(-0.139791 0.00133485 -8.61911e-08)
(-0.140595 0.00157267 -7.21586e-08)
(-0.141515 0.00183983 -5.9512e-08)
(-0.142535 0.00204626 -4.3325e-08)
(-0.143571 0.00206391 -1.72004e-08)
(-0.144451 0.00171935 2.76241e-08)
(-0.144884 0.000798457 9.8262e-08)
(-0.144434 -0.00092637 1.9055e-07)
(-0.142523 -0.00363795 2.98551e-07)
(-0.13847 -0.00737972 4.09654e-07)
(-0.131602 -0.0119432 3.48628e-07)
(-0.147836 0.0199775 -2.91502e-07)
(-0.15502 0.0145074 -4.72736e-07)
(-0.159789 0.0100762 -4.70417e-07)
(-0.162857 0.00679627 -4.19007e-07)
(-0.164807 0.00454368 -3.34066e-07)
(-0.166064 0.00311031 -2.47529e-07)
(-0.166916 0.00229262 -1.7569e-07)
(-0.16756 0.00192606 -1.21144e-07)
(-0.168124 0.0018866 -8.21922e-08)
(-0.168696 0.0020769 -5.61036e-08)
(-0.169331 0.00240615 -3.93843e-08)
(-0.170051 0.00276735 -2.88088e-08)
(-0.17084 0.00301403 -2.17801e-08)
(-0.171627 0.00293874 -1.3988e-08)
(-0.172257 0.00225892 5.828e-09)
(-0.172452 0.000620192 4.98093e-08)
(-0.171775 -0.00236545 1.03453e-07)
(-0.169594 -0.00702842 2.04404e-07)
(-0.165089 -0.0134833 3.96837e-07)
(-0.15734 -0.0214164 3.50168e-07)
(-0.167109 0.0288439 -7.98308e-07)
(-0.173623 0.0203502 -8.95567e-07)
(-0.177447 0.0137485 -7.25676e-07)
(-0.179617 0.00904763 -5.67905e-07)
(-0.180831 0.00592332 -4.00318e-07)
(-0.181523 0.00398371 -2.63435e-07)
(-0.181942 0.00289223 -1.68415e-07)
(-0.18223 0.00239844 -1.0687e-07)
(-0.182469 0.00232514 -6.97744e-08)
(-0.18271 0.00254062 -5.02401e-08)
(-0.182981 0.00292742 -4.29832e-08)
(-0.1833 0.00335022 -4.44886e-08)
(-0.183667 0.00362334 -5.25182e-08)
(-0.18405 0.00347881 -6.21885e-08)
(-0.184369 0.00253973 -5.38588e-08)
(-0.184442 0.000310346 -3.85337e-10)
(-0.183927 -0.00379289 5.26064e-08)
(-0.182231 -0.0103313 2.02241e-07)
(-0.178433 -0.0196238 6.9653e-07)
(-0.171242 -0.0313846 9.9606e-07)
(-0.176152 0.0367901 -1.70915e-06)
(-0.180594 0.0247814 -1.4581e-06)
(-0.182365 0.0160232 -9.13158e-07)
(-0.182891 0.0101424 -6.11594e-07)
(-0.182905 0.00642439 -3.59936e-07)
(-0.182751 0.00420536 -1.90003e-07)
(-0.182563 0.00299056 -9.41563e-08)
(-0.182379 0.00244805 -4.32032e-08)
(-0.182202 0.00236224 -1.83439e-08)
(-0.182025 0.00258522 -9.07058e-09)
(-0.181845 0.00299348 -9.81787e-09)
(-0.181667 0.00344855 -1.85796e-08)
(-0.181511 0.0037575 -3.55412e-08)
(-0.181409 0.00363062 -5.98937e-08)
(-0.181392 0.00263679 -7.36761e-08)
(-0.181452 0.000163633 -4.23628e-08)
(-0.181456 -0.00459191 -2.11306e-08)
(-0.181 -0.0125361 1.13389e-07)
(-0.17918 -0.0244351 1.1966e-06)
(-0.174226 -0.0403646 2.52723e-06)
(-0.174037 0.0423341 -4.5504e-06)
(-0.174745 0.0264862 -3.00312e-06)
(-0.173407 0.0160098 -1.38726e-06)
(-0.171782 0.00956088 -7.23185e-07)
(-0.170399 0.00577128 -3.07267e-07)
(-0.169355 0.00363776 -9.50632e-08)
(-0.168578 0.00252026 -1.15898e-08)
(-0.167964 0.00203907 1.60032e-08)
(-0.167418 0.00197272 1.94339e-08)
(-0.16687 0.00218428 1.15668e-08)
(-0.166276 0.0025696 -2.91121e-09)
(-0.165626 0.00301616 -2.34037e-08)
(-0.164951 0.00336278 -5.08635e-08)
(-0.164336 0.00335206 -8.78975e-08)
(-0.163933 0.00256825 -1.16389e-07)
(-0.163952 0.000354404 -6.03556e-08)
(-0.164584 -0.00427855 7.34591e-08)
(-0.165841 -0.0126693 3.63804e-07)
(-0.167176 -0.0263759 2.88953e-06)
(-0.166409 -0.0465442 6.9452e-06)
(-0.158781 0.0433045 -7.73073e-06)
(-0.153801 0.0238772 -3.13862e-06)
(-0.148701 0.0129652 -6.36274e-07)
(-0.144986 0.00708779 -2.42292e-07)
(-0.142485 0.00398867 3.08719e-08)
(-0.140847 0.00238875 1.26932e-07)
(-0.139739 0.00160604 1.2012e-07)
(-0.13891 0.00129218 9.90886e-08)
(-0.138183 0.0012696 8.22466e-08)
(-0.137441 0.00144247 7.01692e-08)
(-0.13661 0.00174697 6.02381e-08)
(-0.135656 0.00211804 4.80536e-08)
(-0.1346 0.00245835 2.63937e-08)
(-0.133543 0.00259782 -2.53892e-08)
(-0.132707 0.00222844 -1.02047e-07)
(-0.13248 0.000789238 -3.41048e-08)
(-0.133411 -0.00272562 9.61617e-08)
(-0.136167 -0.00999092 -3.56495e-07)
(-0.141242 -0.0236613 2.55629e-06)
(-0.146841 -0.0473363 1.10999e-05)
(-0.125946 0.0370622 -9.66117e-06)
(-0.113555 0.0159441 4.28016e-06)
(-0.105453 0.00705933 4.78893e-06)
(-0.10092 0.00327662 2.04403e-06)
(-0.0983215 0.0016268 1.0566e-06)
(-0.0967929 0.000899194 6.40429e-07)
(-0.0958304 0.000587869 4.02106e-07)
(-0.0951308 0.000484241 3.04594e-07)
(-0.0945111 0.000502197 2.9272e-07)
(-0.0938536 0.0006048 3.29311e-07)
(-0.093079 0.000773198 3.95279e-07)
(-0.0921395 0.000990647 4.74083e-07)
(-0.0910268 0.00122929 5.36204e-07)
(-0.0897988 0.00143062 5.0541e-07)
(-0.0886337 0.0014652 2.84395e-07)
(-0.087924 0.00104102 -7.51945e-08)
(-0.0883516 -0.00051899 -1.29082e-06)
(-0.0911812 -0.00482342 -5.94185e-06)
(-0.0988482 -0.0153671 -8.05608e-06)
(-0.112721 -0.0400456 1.20135e-05)
(-0.0641335 0.022696 -5.36499e-05)
(-0.0476513 0.00651355 -9.10917e-06)
(-0.0410983 0.00197758 -6.54891e-07)
(-0.038726 0.00062745 -1.46322e-06)
(-0.037682 0.000211563 -9.5067e-07)
(-0.0371503 8.63563e-05 -4.46541e-07)
(-0.0368352 5.38054e-05 -2.52727e-07)
(-0.0365969 5.40426e-05 -1.79033e-07)
(-0.0363624 7.07383e-05 -1.58598e-07)
(-0.0360838 0.000100834 -1.74487e-07)
(-0.0357223 0.00014527 -2.15812e-07)
(-0.0352441 0.000206104 -2.72069e-07)
(-0.0346216 0.000285014 -3.2877e-07)
(-0.0338411 0.000380162 -3.6036e-07)
(-0.0329247 0.000475964 -2.76801e-07)
(-0.0319842 0.000511352 1.66515e-07)
(-0.0313626 0.000264485 5.99973e-07)
(-0.0319654 -0.00111326 -1.97881e-06)
(-0.0373797 -0.00630414 3.94929e-06)
(-0.0561704 -0.0253503 6.7795e-05)
(-0.0305348 0.000687717 -1.68291e-06)
(-0.0324976 0.000497473 -1.17729e-06)
(-0.0338955 0.000339763 -7.79712e-07)
(-0.0348485 0.000222158 -4.92601e-07)
(-0.0354815 0.000142373 -3.02689e-07)
(-0.0359032 9.37465e-05 -1.88454e-07)
(-0.0362002 6.91852e-05 -1.29084e-07)
(-0.0364388 6.30505e-05 -1.08844e-07)
(-0.0366694 7.15114e-05 -1.17334e-07)
(-0.036931 9.20507e-05 -1.47623e-07)
(-0.0372537 0.000122538 -1.94927e-07)
(-0.0376572 0.000160052 -2.54671e-07)
(-0.0381469 0.000199541 -3.19314e-07)
(-0.0387064 0.000232415 -3.75952e-07)
(-0.0392856 0.000245354 -4.03774e-07)
(-0.0397892 0.000219951 -3.69423e-07)
(-0.0400667 0.00013448 -2.30675e-07)
(-0.0399103 -3.05057e-05 3.7909e-08)
(-0.0390745 -0.000286727 5.10987e-07)
(-0.0373215 -0.00062293 1.2234e-06)
(-0.0797863 0.00436212 1.5e-06)
(-0.0846382 0.00322442 1.25292e-06)
(-0.0881234 0.00227051 9.91172e-07)
(-0.0905335 0.00154417 7.57466e-07)
(-0.0921643 0.0010359 5.66752e-07)
(-0.0932723 0.000711048 4.26344e-07)