/*--------------------------------*- C++ -*----------------------------------*\
| =========                 |                                                 |
| \\      /  F ield         | OpenFOAM: The Open Source CFD Toolbox           |
|  \\    /   O peration     | Version:  2.4.0                                 |
|   \\  /    A nd           | Web:      www.OpenFOAM.org                      |
|    \\/     M anipulation  |                                                 |
\*---------------------------------------------------------------------------*/
FoamFile
{
    version     2.0;
    format      ascii;
    class       volScalarField;
    location    "0.0043";
    object      T;
}
// * * * * * * * * * * * * * * * * * * * * * * * * * * * * * * * * * * * * * //

dimensions      [0 0 0 1 0 0 0];

internalField   nonuniform List<scalar> 
4800
(
100.193
100.58
100.967
101.353
101.737
102.116
102.486
102.843
103.181
103.492
100.58
101.741
102.902
104.062
105.216
106.356
107.473
108.55
109.569
110.509
100.967
102.902
104.839
106.776
108.707
110.621
112.5
114.315
116.035
117.622
101.353
104.062
106.776
109.496
112.216
114.922
117.589
120.177
122.635
124.903
101.737
105.216
108.707
112.216
115.74
119.263
122.756
126.168
129.425
132.433
102.116
106.357
110.622
114.922
119.263
123.634
128.005
132.316
136.465
140.308
102.487
107.473
112.5
117.589
122.757
128.006
133.315
138.625
143.81
148.654
102.844
108.551
114.316
120.178
126.169
132.317
138.626
145.06
151.495
157.635
103.181
109.57
116.037
122.637
129.427
136.466
143.811
151.496
159.475
167.455
103.493
110.51
117.625
124.906
132.436
140.311
148.657
157.637
167.456
178.218
100.193
100.58
100.967
101.353
101.737
102.116
102.486
102.843
103.181
103.492
100.58
101.741
102.902
104.062
105.216
106.356
107.473
108.55
109.569
110.509
100.967
102.902
104.839
106.776
108.707
110.621
112.5
114.315
116.035
117.622
101.353
104.062
106.776
109.496
112.216
114.922
117.589
120.177
122.635
124.903
101.737
105.216
108.707
112.216
115.74
119.263
122.756
126.168
129.425
132.433
102.116
106.357
110.622
114.922
119.263
123.634
128.005
132.316
136.465
140.308
102.487
107.473
112.5
117.589
122.757
128.006
133.316
138.625
143.81
148.654
102.844
108.551
114.316
120.178
126.17
132.317
138.626
145.061
151.495
157.636
103.181
109.57
116.037
122.637
129.427
136.467
143.811
151.496
159.476
167.455
103.493
110.511
117.625
124.907
132.437
140.312
148.657
157.638
167.457
178.219
100.193
100.58
100.967
101.353
101.737
102.116
102.486
102.843
103.181
103.492
100.58
101.741
102.902
104.062
105.216
106.356
107.473
108.55
109.569
110.509
100.967
102.902
104.839
106.776
108.707
110.621
112.5
114.315
116.035
117.622
101.353
104.062
106.776
109.496
112.216
114.922
117.589
120.177
122.635
124.903
101.737
105.216
108.707
112.216
115.74
119.263
122.756
126.168
129.425
132.433
102.116
106.357
110.622
114.922
119.263
123.634
128.005
132.316
136.465
140.308
102.487
107.473
112.5
117.589
122.757
128.006
133.316
138.625
143.81
148.654
102.844
108.551
114.316
120.178
126.17
132.317
138.626
145.061
151.495
157.636
103.181
109.57
116.037
122.637
129.427
136.467
143.811
151.496
159.476
167.455
103.493
110.511
117.625
124.907
132.437
140.312
148.657
157.638
167.457
178.219
100.193
100.58
100.967
101.353
101.737
102.116
102.486
102.843
103.181
103.492
100.58
101.741
102.902
104.062
105.216
106.356
107.473
108.55
109.569
110.509
100.967
102.902
104.839
106.776
108.707
110.621
112.5
114.315
116.035
117.622
101.353
104.062
106.776
109.496
112.216
114.922
117.589
120.177
122.635
124.903
101.737
105.216
108.707
112.216
115.74
119.263
122.756
126.168
129.425
132.433
102.116
106.357
110.622
114.922
119.263
123.634
128.005
132.316
136.465
140.308
102.487
107.473
112.5
117.589
122.757
128.006
133.315
138.625
143.81
148.654
102.844
108.551
114.316
120.178
126.169
132.317
138.626
145.06
151.495
157.635
103.181
109.57
116.037
122.637
129.427
136.466
143.811
151.496
159.475
167.455
103.493
110.51
117.625
124.906
132.436
140.311
148.657
157.637
167.456
178.218
103.772
104.016
104.222
104.391
104.525
104.629
104.707
104.761
104.795
104.812
104.812
104.795
104.761
104.707
104.629
104.525
104.391
104.222
104.016
103.772
111.352
112.085
112.702
113.207
113.607
113.915
114.143
114.303
114.404
114.453
114.453
114.404
114.302
114.142
113.914
113.606
113.206
112.701
112.084
111.351
119.042
120.269
121.295
122.127
122.781
123.28
123.647
123.903
124.065
124.143
124.143
124.064
123.903
123.646
123.279
122.78
122.126
121.294
120.268
119.04
126.924
128.654
130.084
131.225
132.11
132.777
133.263
133.599
133.809
133.911
133.91
133.809
133.598
133.262
132.776
132.108
131.223
130.082
128.653
126.922
135.095
137.342
139.16
140.579
141.658
142.456
143.028
143.42
143.664
143.78
143.78
143.663
143.419
143.027
142.454
141.656
140.577
139.157
137.34
135.093
143.682
146.459
148.633
150.276
151.486
152.36
152.975
153.39
153.645
153.767
153.767
153.645
153.389
152.973
152.358
151.484
150.273
148.631
146.457
143.68
152.864
156.181
158.639
160.404
161.651
162.522
163.121
163.519
163.761
163.876
163.875
163.76
163.518
163.12
162.521
161.649
160.402
158.637
156.179
152.862
162.938
166.761
169.338
171.05
172.192
172.958
173.47
173.804
174.005
174.099
174.099
174.004
173.803
173.469
172.957
172.19
171.048
169.337
166.76
162.937
174.491
178.588
180.903
182.266
183.108
183.647
183.997
184.221
184.355
184.418
184.418
184.355
184.221
183.997
183.646
183.107
182.265
180.903
178.588
174.49
188.982
192.198
193.421
194.003
194.327
194.525
194.65
194.73
194.777
194.799
194.799
194.777
194.73
194.65
194.525
194.327
194.003
193.421
192.198
188.981
103.772
104.016
104.222
104.391
104.525
104.629
104.706
104.761
104.795
104.812
104.812
104.795
104.76
104.706
104.629
104.525
104.39
104.221
104.015
103.771
111.352
112.084
112.702
113.206
113.607
113.914
114.142
114.302
114.403
114.452
114.452
114.403
114.302
114.142
113.913
113.605
113.205
112.7
112.083
111.35
119.041
120.269
121.295
122.127
122.781
123.28
123.647
123.903
124.064
124.142
124.142
124.064
123.902
123.645
123.278
122.779
122.124
121.293
120.266
119.039
126.923
128.654
130.083
131.225
132.11
132.777
133.262
133.598
133.809
133.91
133.91
133.808
133.597
133.261
132.774
132.107
131.222
130.08
128.651
126.921
135.095
137.342
139.159
140.579
141.657
142.455
143.028
143.419
143.663
143.779
143.779
143.662
143.418
143.026
142.453
141.654
140.576
139.156
137.338
135.092
143.681
146.459
148.633
150.275
151.485
152.359
152.974
153.389
153.644
153.766
153.766
153.644
153.387
152.972
152.357
151.482
150.272
148.63
146.456
143.678
152.864
156.181
158.639
160.404
161.65
162.522
163.121
163.518
163.76
163.875
163.874
163.759
163.517
163.119
162.519
161.648
160.4
158.635
156.177
152.86
162.938
166.761
169.338
171.05
172.191
172.957
173.469
173.803
174.004
174.098
174.098
174.003
173.802
173.468
172.955
172.189
171.047
169.335
166.758
162.935
174.491
178.588
180.903
182.266
183.107
183.646
183.997
184.221
184.354
184.417
184.417
184.354
184.22
183.995
183.645
183.106
182.264
180.901
178.586
174.489
188.982
192.198
193.421
194.003
194.327
194.525
194.65
194.729
194.776
194.798
194.798
194.776
194.729
194.65
194.524
194.326
194.002
193.42
192.197
188.98
103.772
104.016
104.222
104.391
104.525
104.629
104.706
104.761
104.795
104.812
104.812
104.795
104.76
104.706
104.629
104.525
104.39
104.221
104.015
103.771
111.352
112.084
112.702
113.206
113.607
113.914
114.142
114.302
114.403
114.452
114.452
114.403
114.302
114.142
113.913
113.605
113.205
112.7
112.083
111.35
119.041
120.269
121.295
122.127
122.781
123.28
123.647
123.903
124.064
124.142
124.142
124.064
123.902
123.645
123.278
122.779
122.124
121.293
120.266
119.039
126.923
128.654
130.083
131.225
132.11
132.777
133.262
133.598
133.809
133.91
133.91
133.808
133.597
133.261
132.774
132.107
131.222
130.08
128.651
126.921
135.095
137.342
139.159
140.579
141.657
142.455
143.028
143.419
143.663
143.779
143.779
143.662
143.418
143.026
142.453
141.654
140.576
139.156
137.338
135.092
143.681
146.459
148.633
150.275
151.485
152.359
152.974
153.389
153.644
153.766
153.766
153.644
153.387
152.972
152.357
151.482
150.272
148.63
146.456
143.678
152.864
156.181
158.639
160.404
161.65
162.522
163.121
163.518
163.76
163.875
163.874
163.759
163.517
163.119
162.519
161.648
160.4
158.635
156.177
152.86
162.938
166.761
169.338
171.05
172.191
172.957
173.469
173.803
174.004
174.098
174.098
174.003
173.802
173.468
172.955
172.189
171.047
169.335
166.758
162.935
174.491
178.588
180.903
182.266
183.107
183.646
183.997
184.221
184.354
184.417
184.417
184.354
184.22
183.995
183.645
183.106
182.264
180.901
178.586
174.489
188.982
192.198
193.421
194.003
194.327
194.525
194.65
194.729
194.776
194.798
194.798
194.776
194.729
194.65
194.524
194.326
194.002
193.42
192.197
188.98
103.772
104.016
104.222
104.391
104.525
104.629
104.707
104.761
104.795
104.812
104.812
104.795
104.761
104.707
104.629
104.525
104.391
104.222
104.016
103.772
111.352
112.085
112.702
113.207
113.607
113.915
114.143
114.303
114.404
114.453
114.453
114.404
114.302
114.142
113.914
113.606
113.206
112.701
112.084
111.351
119.042
120.269
121.295
122.127
122.781
123.28
123.647
123.903
124.065
124.143
124.143
124.064
123.903
123.646
123.279
122.78
122.126
121.294
120.268
119.04
126.924
128.654
130.084
131.225
132.11
132.777
133.263
133.599
133.809
133.911
133.91
133.809
133.598
133.262
132.776
132.108
131.223
130.082
128.653
126.922
135.095
137.342
139.16
140.579
141.658
142.456
143.028
143.42
143.664
143.78
143.78
143.663
143.419
143.027
142.454
141.656
140.577
139.157
137.34
135.093
143.682
146.459
148.633
150.276
151.486
152.36
152.975
153.39
153.645
153.767
153.767
153.645
153.389
152.973
152.358
151.484
150.273
148.631
146.457
143.68
152.864
156.181
158.639
160.404
161.651
162.522
163.121
163.519
163.761
163.876
163.875
163.76
163.518
163.12
162.521
161.649
160.402
158.637
156.179
152.862
162.938
166.761
169.338
171.05
172.192
172.958
173.47
173.804
174.005
174.099
174.099
174.004
173.803
173.469
172.957
172.19
171.048
169.337
166.76
162.937
174.491
178.588
180.903
182.266
183.108
183.647
183.997
184.221
184.355
184.418
184.418
184.355
184.221
183.997
183.646
183.107
182.265
180.903
178.588
174.49
188.982
192.198
193.421
194.003
194.327
194.525
194.65
194.73
194.777
194.799
194.799
194.777
194.73
194.65
194.525
194.327
194.003
193.421
192.198
188.981
103.492
103.181
102.844
102.487
102.116
101.737
101.354
100.968
100.581
100.194
110.508
109.569
108.55
107.473
106.357
105.216
104.062
102.903
101.742
100.581
117.621
116.035
114.315
112.5
110.622
108.708
106.777
104.84
102.903
100.968
124.902
122.634
120.177
117.589
114.923
112.217
109.497
106.777
104.062
101.354
132.432
129.424
126.168
122.756
119.264
115.74
112.217
108.708
105.216
101.737
140.307
136.464
132.316
128.006
123.635
119.264
114.924
110.623
106.358
102.116
148.653
143.81
138.626
133.316
128.007
122.758
117.591
112.501
107.475
102.487
157.635
151.496
145.062
138.627
132.319
126.172
120.18
114.318
108.552
102.844
167.456
159.477
151.498
143.813
136.469
129.43
122.639
116.039
109.571
103.182
178.22
167.458
157.64
148.66
140.315
132.439
124.909
117.627
110.512
103.494
103.492
103.18
102.843
102.486
102.115
101.736
101.353
100.967
100.58
100.193
110.507
109.567
108.549
107.472
106.356
105.215
104.061
102.902
101.741
100.58
117.62
116.033
114.314
112.498
110.62
108.706
106.775
104.838
102.902
100.967
124.901
122.633
120.175
117.587
114.921
112.215
109.495
106.775
104.061
101.353
132.43
129.423
126.167
122.755
119.262
115.739
112.216
108.707
105.215
101.737
140.305
136.462
132.314
128.004
123.633
119.263
114.922
110.621
106.356
102.116
148.652
143.808
138.624
133.315
128.005
122.757
117.589
112.5
107.473
102.486
157.633
151.494
145.06
138.626
132.317
126.17
120.178
114.316
108.551
102.843
167.454
159.475
151.496
143.811
136.467
129.428
122.638
116.037
109.57
103.181
178.218
167.456
157.638
148.658
140.313
132.437
124.908
117.625
110.511
103.493
103.492
103.18
102.843
102.486
102.115
101.736
101.353
100.967
100.58
100.193
110.507
109.567
108.549
107.472
106.356
105.215
104.061
102.902
101.741
100.58
117.62
116.033
114.314
112.498
110.62
108.706
106.775
104.838
102.902
100.967
124.901
122.633
120.175
117.587
114.921
112.215
109.495
106.775
104.061
101.353
132.43
129.423
126.167
122.755
119.262
115.739
112.216
108.707
105.215
101.737
140.305
136.462
132.314
128.004
123.633
119.263
114.922
110.621
106.356
102.116
148.652
143.808
138.624
133.315
128.005
122.757
117.589
112.5
107.473
102.486
157.633
151.494
145.06
138.626
132.317
126.17
120.178
114.316
108.551
102.843
167.454
159.475
151.496
143.811
136.467
129.428
122.638
116.037
109.57
103.181
178.218
167.456
157.638
148.658
140.313
132.437
124.908
117.625
110.511
103.493
103.492
103.181
102.844
102.487
102.116
101.737
101.354
100.968
100.581
100.194
110.508
109.569
108.55
107.473
106.357
105.216
104.062
102.903
101.742
100.581
117.621
116.035
114.315
112.5
110.622
108.708
106.777
104.84
102.903
100.968
124.902
122.634
120.177
117.589
114.923
112.217
109.497
106.777
104.062
101.354
132.432
129.424
126.168
122.756
119.264
115.74
112.217
108.708
105.216
101.737
140.307
136.464
132.316
128.006
123.635
119.264
114.924
110.623
106.358
102.116
148.653
143.81
138.626
133.316
128.007
122.758
117.591
112.501
107.475
102.487
157.635
151.496
145.062
138.627
132.319
126.172
120.18
114.318
108.552
102.844
167.456
159.477
151.498
143.813
136.469
129.43
122.639
116.039
109.571
103.182
178.22
167.458
157.64
148.66
140.315
132.439
124.909
117.627
110.512
103.494
188.984
174.495
162.945
152.872
143.691
135.104
126.932
119.048
111.356
103.774
192.201
178.595
166.771
156.193
146.473
137.355
128.666
120.278
112.091
104.018
193.424
180.912
169.352
158.656
148.652
139.178
130.1
121.308
112.711
104.225
194.007
182.278
171.069
160.427
150.301
140.605
131.248
122.145
113.218
104.395
194.333
183.125
172.217
161.683
151.521
141.693
132.142
122.806
113.623
104.531
194.533
183.67
172.993
162.567
152.409
142.504
132.821
123.315
113.937
104.637
194.662
184.029
173.519
163.183
153.043
143.096
133.324
123.695
114.174
104.718
194.746
184.266
173.872
163.605
153.484
143.514
133.683
123.97
114.346
104.776
194.798
184.417
174.1
163.88
153.776
143.794
133.926
124.157
114.463
104.816
194.829
184.504
174.232
164.041
153.948
143.96
134.072
124.27
114.534
104.84
194.841
184.537
174.284
164.105
154.019
144.029
134.133
124.318
114.565
104.851
194.835
184.523
174.262
164.081
153.994
144.007
134.115
124.305
114.557
104.848
194.812
184.456
174.164
163.964
153.873
143.894
134.019
124.232
114.512
104.833
194.767
184.329
173.976
163.743
153.645
143.682
133.839
124.096
114.428
104.804
194.691
184.12
173.672
163.392
153.289
143.354
133.563
123.89
114.3
104.761
194.569
183.789
173.207
162.87
152.772
142.887
133.178
123.604
114.125
104.702
194.364
183.263
172.506
162.116
152.053
142.256
132.666
123.229
113.897
104.626
193.988
182.401
171.448
161.049
151.079
141.429
132.011
122.757
113.613
104.531
193.173
180.916
169.848
159.567
149.803
140.385
131.205
122.186
113.272
104.418
190.967
178.256
167.478
157.591
148.202
139.125
130.254
121.522
112.88
104.288
188.982
174.493
162.942
152.87
143.689
135.102
126.93
119.047
111.355
103.773
192.199
178.592
166.769
156.19
146.47
137.353
128.664
120.277
112.089
104.017
193.423
180.91
169.349
158.653
148.649
139.175
130.098
121.307
112.709
104.224
194.006
182.276
171.066
160.424
150.298
140.602
131.246
122.143
113.217
104.394
194.332
183.122
172.214
161.68
151.519
141.69
132.139
122.804
113.621
104.53
194.531
183.667
172.99
162.564
152.406
142.502
132.819
123.313
113.935
104.636
194.66
184.026
173.516
163.18
153.04
143.093
133.321
123.693
114.172
104.716
194.744
184.263
173.869
163.601
153.481
143.511
133.681
123.968
114.344
104.775
194.796
184.414
174.097
163.877
153.773
143.791
133.923
124.155
114.461
104.815
194.827
184.5
174.228
164.038
153.945
143.957
134.069
124.267
114.532
104.839
194.838
184.534
174.28
164.102
154.016
144.026
134.13
124.315
114.563
104.85
194.833
184.519
174.259
164.077
153.991
144.004
134.113
124.303
114.555
104.847
194.81
184.453
174.16
163.961
153.87
143.891
134.016
124.23
114.51
104.832
194.764
184.326
173.972
163.739
153.642
143.678
133.836
124.094
114.425
104.803
194.689
184.116
173.668
163.388
153.285
143.35
133.56
123.887
114.298
104.76
194.566
183.785
173.203
162.866
152.769
142.884
133.175
123.601
114.123
104.701
194.361
183.26
172.502
162.112
152.049
142.252
132.663
123.226
113.895
104.625
193.985
182.397
171.443
161.045
151.076
141.425
132.008
122.754
113.611
104.53
193.171
180.912
169.844
159.563
149.799
140.382
131.202
122.183
113.27
104.417
190.964
178.252
167.474
157.588
148.198
139.121
130.251
121.519
112.878
104.287
188.982
174.493
162.942
152.87
143.689
135.102
126.93
119.047
111.355
103.773
192.199
178.592
166.769
156.19
146.47
137.353
128.664
120.277
112.089
104.017
193.423
180.91
169.349
158.653
148.649
139.175
130.098
121.307
112.709
104.224
194.006
182.276
171.066
160.424
150.298
140.602
131.246
122.143
113.217
104.394
194.332
183.122
172.214
161.68
151.519
141.69
132.139
122.804
113.621
104.53
194.531
183.667
172.99
162.564
152.406
142.502
132.819
123.313
113.935
104.636
194.66
184.026
173.516
163.18
153.04
143.093
133.321
123.693
114.172
104.716
194.744
184.263
173.869
163.601
153.481
143.511
133.681
123.968
114.344
104.775
194.796
184.414
174.097
163.877
153.773
143.791
133.923
124.155
114.461
104.815
194.827
184.5
174.228
164.038
153.945
143.957
134.069
124.267
114.532
104.839
194.838
184.534
174.28
164.102
154.016
144.026
134.13
124.315
114.563
104.85
194.833
184.519
174.259
164.077
153.991
144.004
134.113
124.303
114.555
104.847
194.81
184.453
174.16
163.961
153.87
143.891
134.017
124.23
114.51
104.832
194.764
184.326
173.972
163.739
153.642
143.678
133.836
124.094
114.425
104.803
194.689
184.116
173.668
163.388
153.285
143.35
133.56
123.887
114.298
104.76
194.566
183.785
173.203
162.866
152.769
142.884
133.175
123.601
114.123
104.701
194.361
183.26
172.502
162.112
152.049
142.252
132.663
123.226
113.895
104.625
193.985
182.397
171.443
161.045
151.076
141.425
132.008
122.754
113.611
104.53
193.171
180.912
169.844
159.563
149.8
140.382
131.202
122.183
113.27
104.417
190.964
178.252
167.474
157.588
148.198
139.121
130.251
121.519
112.878
104.287
188.984
174.495
162.945
152.872
143.691
135.104
126.932
119.048
111.356
103.774
192.201
178.595
166.771
156.193
146.473
137.355
128.666
120.278
112.091
104.018
193.424
180.912
169.352
158.656
148.652
139.178
130.1
121.308
112.711
104.225
194.007
182.278
171.069
160.427
150.301
140.605
131.248
122.145
113.218
104.395
194.333
183.125
172.217
161.683
151.521
141.693
132.142
122.806
113.623
104.531
194.533
183.67
172.993
162.567
152.409
142.504
132.821
123.315
113.937
104.637
194.662
184.029
173.519
163.183
153.043
143.096
133.324
123.695
114.174
104.718
194.746
184.266
173.872
163.605
153.484
143.514
133.683
123.97
114.346
104.776
194.798
184.417
174.1
163.88
153.776
143.794
133.926
124.157
114.463
104.816
194.829
184.504
174.232
164.041
153.948
143.96
134.072
124.27
114.534
104.84
194.841
184.537
174.284
164.105
154.019
144.029
134.133
124.318
114.565
104.851
194.835
184.523
174.262
164.081
153.994
144.007
134.115
124.305
114.557
104.848
194.812
184.456
174.164
163.964
153.873
143.894
134.019
124.232
114.512
104.833
194.767
184.329
173.976
163.743
153.645
143.682
133.839
124.096
114.428
104.804
194.691
184.12
173.672
163.392
153.289
143.354
133.563
123.89
114.3
104.761
194.569
183.789
173.207
162.87
152.772
142.887
133.178
123.604
114.125
104.702
194.364
183.263
172.506
162.116
152.053
142.256
132.666
123.229
113.897
104.626
193.988
182.401
171.448
161.049
151.079
141.429
132.011
122.757
113.613
104.531
193.173
180.916
169.848
159.567
149.803
140.385
131.205
122.186
113.272
104.418
190.967
178.256
167.478
157.591
148.202
139.125
130.254
121.522
112.88
104.288
183.412
173.684
164.242
155.146
146.317
137.682
129.185
120.784
112.447
104.145
176.647
168.859
160.697
152.468
144.272
136.131
128.044
120.001
111.989
103.994
171.1
164.455
157.266
149.804
142.213
134.563
126.89
119.209
111.526
103.842
166.595
160.654
154.166
147.324
140.261
133.062
125.778
118.443
111.077
103.694
162.952
157.473
151.487
145.128
138.503
131.694
124.758
117.737
110.663
103.558
160.044
154.885
149.261
143.269
136.993
130.506
123.866
117.117
110.298
103.437
157.789
152.855
147.492
141.772
135.764
129.531
123.128
116.603
109.994
103.337
156.135
151.356
146.175
140.648
134.834
128.789
122.565
116.208
109.76
103.26
155.049
150.368
145.302
139.899
134.211
128.29
122.185
115.942
109.601
103.208
154.511
149.878
144.867
139.525
133.9
128.04
121.995
115.809
109.522
103.186
183.408
173.68
164.238
155.142
146.313
137.678
129.181
120.781
112.444
104.144
176.644
168.856
160.694
152.465
144.268
136.128
128.041
119.998
111.986
103.993
171.097
164.452
157.263
149.801
142.209
134.56
126.887
119.205
111.523
103.84
166.593
160.651
154.163
147.321
140.258
133.059
125.775
118.44
111.075
103.693
162.95
157.471
151.485
145.125
138.5
131.69
124.754
117.734
110.66
103.556
160.041
154.882
149.259
143.266
136.99
130.503
123.862
117.113
110.294
103.435
157.786
152.852
147.489
141.769
135.761
129.528
123.125
116.598
109.99
103.335
156.133
151.353
146.172
140.645
134.83
128.785
122.56
116.203
109.755
103.257
155.047
150.366
145.299
139.896
134.208
128.286
122.181
115.936
109.595
103.203
154.509
149.875
144.865
139.522
133.896
128.036
121.99
115.803
109.516
103.18
183.408
173.68
164.238
155.142
146.313
137.678
129.181
120.781
112.444
104.144
176.644
168.856
160.694
152.465
144.268
136.128
128.041
119.998
111.986
103.993
171.097
164.452
157.263
149.801
142.209
134.56
126.887
119.205
111.523
103.84
166.593
160.651
154.163
147.321
140.258
133.059
125.775
118.44
111.075
103.693
162.95
157.471
151.485
145.125
138.5
131.69
124.754
117.734
110.66
103.556
160.041
154.882
149.259
143.266
136.99
130.503
123.862
117.113
110.294
103.435
157.786
152.852
147.489
141.769
135.761
129.528
123.125
116.598
109.99
103.335
156.133
151.353
146.172
140.645
134.83
128.785
122.56
116.203
109.755
103.257
155.047
150.366
145.299
139.896
134.208
128.287
122.181
115.936
109.595
103.203
154.509
149.876
144.865
139.522
133.896
128.036
121.99
115.803
109.516
103.18
183.412
173.684
164.242
155.146
146.317
137.682
129.185
120.784
112.447
104.145
176.647
168.859
160.697
152.468
144.272
136.131
128.044
120.001
111.989
103.994
171.1
164.455
157.266
149.804
142.213
134.563
126.89
119.209
111.526
103.842
166.595
160.654
154.166
147.324
140.261
133.062
125.778
118.443
111.077
103.694
162.952
157.473
151.487
145.128
138.503
131.694
124.758
117.737
110.663
103.558
160.044
154.885
149.261
143.269
136.993
130.506
123.866
117.117
110.298
103.437
157.789
152.855
147.492
141.772
135.764
129.531
123.129
116.603
109.994
103.337
156.135
151.356
146.175
140.648
134.834
128.789
122.565
116.208
109.76
103.26
155.049
150.368
145.302
139.899
134.211
128.291
122.185
115.942
109.601
103.208
154.511
149.878
144.868
139.525
133.9
128.04
121.995
115.809
109.522
103.186
192.373
195.21
196.397
197.033
197.432
197.703
197.891
198.019
198.1
198.139
198.139
198.1
198.02
197.892
197.704
197.434
197.036
196.4
195.212
192.373
183.258
187.294
189.758
191.351
192.438
193.204
193.746
194.119
194.355
194.469
194.469
194.356
194.122
193.75
193.208
192.443
191.356
189.763
187.297
183.26
176.756
180.987
184.026
186.213
187.804
188.968
189.81
190.398
190.771
190.952
190.953
190.774
190.402
189.816
188.975
187.812
186.221
184.034
180.994
176.761
171.74
175.929
179.208
181.732
183.66
185.117
186.195
186.957
187.445
187.684
187.685
187.449
186.963
186.203
185.127
183.672
181.745
179.221
175.942
171.751
167.766
171.861
175.226
177.932
180.071
181.732
182.983
183.88
184.459
184.743
184.745
184.464
183.888
182.995
181.746
180.088
177.95
175.245
171.881
167.785
164.621
168.619
172.001
174.8
177.068
178.863
180.237
181.232
181.879
182.198
182.201
181.886
181.243
180.253
178.883
177.091
174.826
172.029
168.649
164.651
162.191
166.105
169.477
172.319
174.662
176.543
177.999
179.062
179.758
180.103
180.106
179.767
179.077
178.019
176.568
174.692
172.353
169.514
166.145
162.233
160.411
164.259
167.612
170.471
172.856
174.789
176.298
177.407
178.135
178.497
178.501
178.146
177.424
176.322
174.82
172.893
170.514
167.659
164.31
160.464
159.241
163.045
166.38
169.246
171.652
173.615
175.154
176.29
177.039
177.412
177.416
177.051
176.31
175.182
173.65
171.695
169.295
166.435
163.105
159.304
158.66
162.442
165.768
168.635
171.05
173.025
174.579
175.728
176.486
176.864
176.869
176.499
175.75
174.61
173.064
171.096
168.688
165.828
162.508
158.73
192.375
195.212
196.399
197.035
197.433
197.704
197.892
198.02
198.1
198.139
198.139
198.1
198.02
197.892
197.704
197.433
197.034
196.398
195.21
192.371
183.261
187.297
189.76
191.353
192.44
193.205
193.747
194.12
194.355
194.469
194.469
194.356
194.121
193.749
193.207
192.441
191.354
189.761
187.295
183.257
176.759
180.99
184.029
186.215
187.806
188.969
189.812
190.399
190.771
190.952
190.953
190.773
190.401
189.815
188.973
187.81
186.219
184.032
180.991
176.758
171.743
175.932
179.211
181.735
183.662
185.118
186.196
186.958
187.445
187.684
187.685
187.448
186.962
186.202
185.126
183.67
181.743
179.219
175.939
171.749
167.769
171.864
175.228
177.934
180.073
181.733
182.985
183.881
184.459
184.743
184.745
184.463
183.888
182.994
181.745
180.086
177.948
175.243
171.879
167.783
164.624
168.622
172.004
174.802
177.07
178.865
180.238
181.233
181.879
182.198
182.2
181.885
181.242
180.252
178.881
177.089
174.824
172.027
168.646
164.648
162.194
166.108
169.479
172.321
174.664
176.544
178
179.063
179.758
180.103
180.105
179.766
179.076
178.018
176.567
174.69
172.351
169.512
166.143
162.23
160.414
164.262
167.614
170.474
172.858
174.791
176.299
177.407
178.135
178.497
178.501
178.145
177.423
176.321
174.819
172.891
170.512
167.657
164.308
160.462
159.244
163.047
166.383
169.248
171.654
173.616
175.155
176.291
177.039
177.412
177.416
177.05
176.309
175.181
173.649
171.693
169.293
166.433
163.103
159.302
158.663
162.444
165.77
168.637
171.051
173.027
174.58
175.728
176.486
176.864
176.869
176.499
175.749
174.609
173.063
171.095
168.687
165.826
162.505
158.728
192.375
195.212
196.399
197.035
197.433
197.704
197.892
198.02
198.1
198.139
198.139
198.1
198.02
197.892
197.704
197.433
197.034
196.398
195.21
192.371
183.261
187.297
189.76
191.353
192.44
193.205
193.747
194.12
194.355
194.469
194.469
194.356
194.121
193.749
193.207
192.441
191.354
189.761
187.295
183.257
176.759
180.99
184.029
186.216
187.806
188.969
189.812
190.399
190.771
190.952
190.953
190.773
190.401
189.815
188.973
187.81
186.219
184.032
180.991
176.758
171.744
175.932
179.211
181.735
183.662
185.118
186.196
186.958
187.445
187.684
187.685
187.448
186.962
186.202
185.126
183.67
181.743
179.219
175.939
171.749
167.769
171.864
175.228
177.934
180.073
181.733
182.985
183.881
184.459
184.743
184.745
184.463
183.887
182.994
181.745
180.086
177.948
175.243
171.879
167.783
164.624
168.622
172.004
174.802
177.07
178.865
180.238
181.233
181.879
182.198
182.2
181.885
181.242
180.252
178.881
177.089
174.824
172.027
168.646
164.648
162.194
166.108
169.479
172.321
174.664
176.544
178
179.063
179.758
180.103
180.105
179.766
179.076
178.018
176.567
174.69
172.351
169.512
166.143
162.231
160.414
164.262
167.614
170.474
172.858
174.791
176.299
177.407
178.136
178.498
178.501
178.145
177.423
176.321
174.819
172.891
170.512
167.657
164.308
160.462
159.244
163.047
166.383
169.248
171.654
173.616
175.155
176.291
177.039
177.412
177.416
177.05
176.309
175.181
173.649
171.693
169.294
166.433
163.103
159.302
158.663
162.444
165.77
168.637
171.051
173.027
174.58
175.728
176.486
176.864
176.869
176.499
175.749
174.609
173.063
171.095
168.687
165.826
162.506
158.728
192.373
195.21
196.397
197.033
197.432
197.703
197.891
198.019
198.1
198.139
198.139
198.1
198.02
197.892
197.704
197.434
197.036
196.4
195.212
192.373
183.258
187.294
189.758
191.351
192.438
193.204
193.746
194.119
194.355
194.469
194.469
194.356
194.122
193.75
193.208
192.443
191.356
189.763
187.297
183.26
176.756
180.987
184.026
186.213
187.804
188.968
189.81
190.398
190.771
190.952
190.953
190.774
190.402
189.816
188.975
187.812
186.221
184.034
180.994
176.761
171.74
175.929
179.208
181.732
183.66
185.117
186.195
186.957
187.445
187.684
187.685
187.449
186.963
186.203
185.127
183.672
181.745
179.221
175.942
171.751
167.766
171.861
175.225
177.931
180.071
181.732
182.983
183.88
184.458
184.743
184.745
184.464
183.888
182.995
181.746
180.088
177.95
175.245
171.881
167.785
164.621
168.619
172.001
174.8
177.068
178.863
180.237
181.232
181.879
182.198
182.2
181.885
181.243
180.253
178.883
177.091
174.826
172.029
168.648
164.651
162.191
166.105
169.477
172.319
174.662
176.543
177.999
179.062
179.758
180.103
180.106
179.767
179.077
178.019
176.568
174.692
172.353
169.514
166.145
162.233
160.411
164.259
167.612
170.472
172.856
174.789
176.298
177.407
178.135
178.498
178.501
178.146
177.424
176.323
174.82
172.893
170.514
167.659
164.31
160.464
159.241
163.045
166.38
169.246
171.652
173.615
175.154
176.29
177.039
177.412
177.416
177.051
176.31
175.182
173.65
171.695
169.295
166.436
163.105
159.305
158.66
162.442
165.768
168.635
171.05
173.026
174.579
175.728
176.486
176.865
176.869
176.499
175.75
174.61
173.064
171.096
168.689
165.828
162.508
158.73
104.146
112.45
120.79
129.193
137.692
146.327
155.156
164.25
173.689
183.413
103.995
111.991
120.006
128.052
136.14
144.281
152.477
160.704
168.863
176.648
103.842
111.527
119.212
126.895
134.57
142.219
149.809
157.269
164.455
171.097
103.694
111.077
118.444
125.78
133.064
140.262
147.322
154.162
160.648
166.586
103.556
110.66
117.735
124.754
131.688
138.495
145.117
151.474
157.457
162.934
103.435
110.292
117.109
123.855
130.492
136.975
143.247
149.236
154.857
160.014
103.333
109.985
116.588
123.109
129.506
135.733
141.737
147.453
152.813
157.747
103.254
109.747
116.186
122.534
128.751
134.789
140.598
146.122
151.301
156.08
103.2
109.585
115.911
122.144
128.24
134.154
139.837
145.237
150.302
154.983
103.169
109.502
115.772
121.946
127.983
133.835
139.455