/*--------------------------------*- C++ -*----------------------------------*\
| =========                 |                                                 |
| \\      /  F ield         | OpenFOAM: The Open Source CFD Toolbox           |
|  \\    /   O peration     | Version:  2.4.0                                 |
|   \\  /    A nd           | Web:      www.OpenFOAM.org                      |
|    \\/     M anipulation  |                                                 |
\*---------------------------------------------------------------------------*/
FoamFile
{
    version     2.0;
    format      ascii;
    class       volScalarField;
    location    "0.0088";
    object      T;
}
// * * * * * * * * * * * * * * * * * * * * * * * * * * * * * * * * * * * * * //

dimensions      [0 0 0 1 0 0 0];

internalField   nonuniform List<scalar> 
4800
(
100.194
100.581
100.968
101.354
101.738
102.117
102.487
102.844
103.182
103.493
100.581
101.742
102.903
104.063
105.217
106.359
107.475
108.552
109.571
110.511
100.968
102.903
104.841
106.779
108.71
110.625
112.503
114.319
116.039
117.626
101.354
104.063
106.779
109.499
112.22
114.927
117.594
120.182
122.64
124.908
101.738
105.218
108.711
112.221
115.745
119.269
122.762
126.174
129.431
132.439
102.117
106.359
110.625
114.928
119.269
123.641
128.012
132.323
136.471
140.314
102.488
107.476
112.504
117.595
122.764
128.013
133.323
138.633
143.817
148.66
102.845
108.554
114.321
120.184
126.177
132.325
138.634
145.068
151.502
157.641
103.182
109.573
116.042
122.644
129.435
136.475
143.82
151.504
159.482
167.46
103.494
110.514
117.631
124.915
132.445
140.321
148.666
157.645
167.462
178.222
100.194
100.581
100.968
101.354
101.738
102.117
102.487
102.844
103.182
103.493
100.581
101.742
102.903
104.063
105.217
106.359
107.475
108.552
109.571
110.511
100.968
102.903
104.841
106.779
108.71
110.625
112.503
114.319
116.039
117.626
101.354
104.063
106.779
109.5
112.22
114.927
117.593
120.182
122.64
124.908
101.738
105.218
108.711
112.221
115.745
119.269
122.762
126.174
129.431
132.438
102.117
106.359
110.625
114.928
119.269
123.641
128.012
132.323
136.471
140.314
102.488
107.476
112.505
117.595
122.764
128.013
133.323
138.633
143.817
148.66
102.845
108.554
114.321
120.185
126.177
132.325
138.634
145.068
151.502
157.641
103.183
109.573
116.043
122.644
129.436
136.476
143.82
151.504
159.482
167.46
103.494
110.515
117.631
124.915
132.446
140.321
148.667
157.646
167.463
178.223
100.194
100.581
100.968
101.354
101.738
102.117
102.487
102.844
103.182
103.493
100.581
101.742
102.903
104.063
105.217
106.359
107.475
108.552
109.571
110.511
100.968
102.903
104.841
106.779
108.71
110.625
112.503
114.319
116.039
117.626
101.354
104.063
106.779
109.5
112.22
114.927
117.593
120.182
122.64
124.908
101.738
105.218
108.711
112.221
115.745
119.269
122.762
126.174
129.431
132.438
102.117
106.359
110.625
114.928
119.269
123.641
128.012
132.323
136.471
140.314
102.488
107.476
112.505
117.595
122.764
128.013
133.323
138.633
143.817
148.66
102.845
108.554
114.321
120.185
126.177
132.325
138.634
145.068
151.502
157.641
103.183
109.573
116.043
122.644
129.436
136.476
143.82
151.504
159.482
167.46
103.494
110.515
117.631
124.915
132.446
140.321
148.667
157.646
167.463
178.223
100.194
100.581
100.968
101.354
101.738
102.117
102.487
102.844
103.182
103.493
100.581
101.742
102.903
104.063
105.217
106.359
107.475
108.552
109.571
110.511
100.968
102.903
104.841
106.779
108.71
110.625
112.503
114.319
116.039
117.626
101.354
104.063
106.779
109.499
112.22
114.927
117.594
120.182
122.64
124.908
101.738
105.218
108.711
112.221
115.745
119.269
122.762
126.174
129.431
132.439
102.117
106.359
110.625
114.928
119.269
123.641
128.012
132.323
136.471
140.314
102.488
107.476
112.504
117.595
122.764
128.013
133.323
138.633
143.817
148.66
102.845
108.554
114.321
120.184
126.177
132.325
138.634
145.068
151.502
157.641
103.182
109.573
116.042
122.644
129.435
136.475
143.82
151.504
159.482
167.46
103.494
110.514
117.631
124.915
132.445
140.321
148.666
157.645
167.462
178.222
103.773
104.016
104.222
104.391
104.526
104.63
104.707
104.762
104.796
104.813
104.813
104.796
104.761
104.707
104.63
104.526
104.391
104.222
104.016
103.773
111.354
112.087
112.704
113.208
113.609
113.916
114.144
114.304
114.405
114.454
114.454
114.405
114.304
114.144
113.916
113.608
113.208
112.703
112.086
111.353
119.045
120.272
121.298
122.13
122.784
123.283
123.65
123.906
124.067
124.145
124.145
124.067
123.905
123.649
123.281
122.782
122.128
121.297
120.271
119.044
126.928
128.659
130.088
131.229
132.114
132.78
133.266
133.602
133.812
133.914
133.913
133.812
133.601
133.265
132.779
132.112
131.227
130.086
128.657
126.927
135.1
137.347
139.164
140.584
141.662
142.459
143.032
143.423
143.667
143.783
143.783
143.666
143.422
143.03
142.457
141.66
140.581
139.162
137.345
135.098
143.687
146.465
148.638
150.28
151.49
152.363
152.978
153.393
153.649
153.77
153.77
153.648
153.392
152.977
152.361
151.488
150.278
148.636
146.462
143.685
152.869
156.186
158.644
160.408
161.655
162.526
163.125
163.522
163.764
163.879
163.878
163.763
163.521
163.123
162.524
161.653
160.406
158.641
156.184
152.867
162.943
166.766
169.342
171.053
172.195
172.96
173.473
173.806
174.007
174.102
174.101
174.007
173.806
173.472
172.959
172.193
171.052
169.34
166.764
162.941
174.495
178.591
180.906
182.268
183.11
183.649
183.999
184.223
184.357
184.419
184.419
184.356
184.223
183.998
183.648
183.109
182.267
180.905
178.591
174.494
188.984
192.199
193.422
194.004
194.328
194.526
194.651
194.73
194.777
194.799
194.799
194.777
194.73
194.651
194.525
194.328
194.003
193.422
192.199
188.983
103.773
104.016
104.222
104.391
104.526
104.63
104.707
104.761
104.796
104.812
104.812
104.796
104.761
104.707
104.629
104.525
104.391
104.222
104.016
103.772
111.354
112.086
112.704
113.208
113.608
113.916
114.144
114.304
114.405
114.454
114.454
114.405
114.303
114.143
113.915
113.607
113.207
112.702
112.085
111.352
119.045
120.272
121.298
122.13
122.783
123.282
123.649
123.905
124.067
124.144
124.144
124.066
123.904
123.648
123.28
122.781
122.127
121.296
120.27
119.043
126.928
128.659
130.087
131.228
132.113
132.78
133.265
133.601
133.812
133.913
133.913
133.811
133.6
133.264
132.778
132.111
131.226
130.084
128.656
126.925
135.1
137.347
139.164
140.583
141.661
142.459
143.031
143.423
143.666
143.783
143.782
143.665
143.421
143.029
142.456
141.658
140.58
139.16
137.343
135.097
143.687
146.464
148.638
150.28
151.489
152.363
152.978
153.392
153.648
153.769
153.769
153.647
153.391
152.976
152.36
151.486
150.276
148.634
146.461
143.684
152.869
156.186
158.643
160.407
161.654
162.525
163.124
163.521
163.763
163.878
163.877
163.762
163.52
163.122
162.523
161.651
160.404
158.64
156.182
152.866
162.943
166.765
169.342
171.053
172.194
172.96
173.472
173.805
174.006
174.101
174.1
174.006
173.804
173.47
172.958
172.192
171.05
169.339
166.762
162.94
174.495
178.591
180.906
182.268
183.109
183.648
183.998
184.222
184.356
184.418
184.418
184.355
184.222
183.997
183.647
183.108
182.266
180.904
178.589
174.492
188.984
192.199
193.422
194.003
194.328
194.525
194.651
194.73
194.777
194.799
194.799
194.777
194.73
194.65
194.525
194.327
194.003
193.421
192.198
188.982
103.773
104.016
104.222
104.391
104.526
104.63
104.707
104.761
104.796
104.812
104.812
104.796
104.761
104.707
104.629
104.525
104.391
104.222
104.016
103.772
111.354
112.086
112.704
113.208
113.608
113.916
114.144
114.304
114.405
114.454
114.454
114.405
114.303
114.143
113.915
113.607
113.207
112.702
112.085
111.352
119.045
120.272
121.298
122.13
122.783
123.282
123.649
123.905
124.067
124.144
124.144
124.066
123.904
123.648
123.28
122.781
122.127
121.296
120.27
119.043
126.928
128.659
130.087
131.228
132.113
132.78
133.265
133.601
133.812
133.913
133.913
133.811
133.6
133.264
132.778
132.111
131.226
130.084
128.656
126.925
135.1
137.347
139.164
140.583
141.661
142.459
143.031
143.423
143.666
143.783
143.782
143.665
143.421
143.029
142.456
141.658
140.58
139.16
137.343
135.097
143.687
146.464
148.638
150.28
151.489
152.363
152.978
153.392
153.648
153.769
153.769
153.647
153.391
152.976
152.36
151.486
150.276
148.634
146.461
143.684
152.869
156.186
158.643
160.407
161.654
162.525
163.124
163.521
163.763
163.878
163.877
163.762
163.52
163.122
162.523
161.651
160.404
158.64
156.182
152.866
162.943
166.765
169.342
171.053
172.194
172.96
173.472
173.805
174.006
174.101
174.1
174.006
173.804
173.47
172.958
172.192
171.05
169.339
166.762
162.94
174.495
178.591
180.906
182.268
183.109
183.648
183.998
184.222
184.356
184.418
184.418
184.355
184.222
183.997
183.647
183.108
182.266
180.904
178.589
174.492
188.984
192.199
193.422
194.003
194.328
194.525
194.651
194.73
194.777
194.799
194.799
194.777
194.73
194.65
194.525
194.327
194.003
193.421
192.198
188.982
103.773
104.016
104.222
104.391
104.526
104.63
104.707
104.762
104.796
104.813
104.813
104.796
104.761
104.707
104.63
104.526
104.391
104.222
104.016
103.773
111.354
112.087
112.704
113.208
113.609
113.916
114.144
114.304
114.405
114.454
114.454
114.405
114.304
114.144
113.916
113.608
113.208
112.703
112.086
111.353
119.045
120.272
121.298
122.13
122.784
123.283
123.65
123.906
124.067
124.145
124.145
124.067
123.905
123.649
123.281
122.782
122.128
121.297
120.271
119.044
126.928
128.659
130.088
131.229
132.114
132.78
133.266
133.602
133.812
133.914
133.913
133.812
133.601
133.265
132.779
132.112
131.227
130.086
128.657
126.927
135.1
137.347
139.164
140.584
141.662
142.459
143.032
143.423
143.667
143.783
143.783
143.666
143.422
143.03
142.457
141.66
140.581
139.162
137.345
135.098
143.687
146.465
148.638
150.28
151.49
152.363
152.978
153.393
153.649
153.77
153.77
153.648
153.392
152.977
152.361
151.488
150.278
148.636
146.462
143.685
152.869
156.186
158.644
160.408
161.655
162.526
163.125
163.522
163.764
163.879
163.878
163.763
163.521
163.123
162.524
161.653
160.406
158.641
156.184
152.867
162.943
166.766
169.342
171.053
172.195
172.96
173.473
173.806
174.007
174.102
174.101
174.007
173.806
173.472
172.959
172.193
171.052
169.34
166.764
162.941
174.495
178.591
180.906
182.268
183.11
183.649
183.999
184.223
184.357
184.419
184.419
184.356
184.223
183.998
183.648
183.109
182.267
180.905
178.591
174.494
188.984
192.199
193.422
194.004
194.328
194.526
194.651
194.73
194.777
194.799
194.799
194.777
194.73
194.651
194.525
194.328
194.003
193.422
192.199
188.983
103.493
103.182
102.845
102.488
102.117
101.738
101.354
100.968
100.581
100.194
110.511
109.571
108.553
107.476
106.359
105.218
104.064
102.904
101.743
100.581
117.625
116.039
114.319
112.503
110.625
108.711
106.779
104.842
102.904
100.968
124.907
122.639
120.182
117.594
114.927
112.221
109.5
106.779
104.064
101.354
132.437
129.43
126.174
122.762
119.269
115.746
112.222
108.711
105.218
101.738
140.313
136.471
132.323
128.013
123.642
119.27
114.929
110.627
106.36
102.117
148.659
143.816
138.633
133.324
128.014
122.765
117.597
112.506
107.477
102.488
157.641
151.503
145.069
138.636
132.327
126.179
120.186
114.323
108.555
102.845
167.461
159.483
151.506
143.822
136.478
129.438
122.647
116.045
109.575
103.183
178.224
167.464
157.648
148.669
140.324
132.449
124.918
117.634
110.516
103.495
103.492
103.181
102.844
102.487
102.116
101.737
101.353
100.967
100.58
100.193
110.509
109.57
108.551
107.474
106.358
105.217
104.063
102.903
101.741
100.58
117.624
116.037
114.318
112.502
110.624
108.709
106.778
104.84
102.903
100.967
124.905
122.638
120.18
117.592
114.926
112.219
109.499
106.778
104.063
101.353
132.436
129.429
126.173
122.761
119.268
115.744
112.22
108.71
105.217
101.737
140.311
136.469
132.321
128.011
123.64
119.269
114.927
110.625
106.359
102.117
148.658
143.815
138.631
133.322
128.013
122.763
117.595
112.504
107.476
102.487
157.639
151.501
145.067
138.634
132.325
126.177
120.185
114.321
108.554
102.845
167.459
159.481
151.504
143.82
136.476
129.436
122.645
116.043
109.573
103.182
178.222
167.462
157.646
148.667
140.322
132.447
124.916
117.632
110.515
103.494
103.492
103.181
102.844
102.487
102.116
101.737
101.353
100.967
100.58
100.193
110.509
109.57
108.551
107.474
106.358
105.217
104.063
102.903
101.741
100.58
117.624
116.037
114.318
112.502
110.624
108.709
106.778
104.84
102.903
100.967
124.905
122.638
120.18
117.592
114.926
112.219
109.499
106.778
104.063
101.353
132.436
129.429
126.173
122.761
119.268
115.744
112.22
108.71
105.217
101.737
140.311
136.469
132.321
128.011
123.64
119.269
114.927
110.625
106.359
102.117
148.658
143.815
138.631
133.322
128.013
122.763
117.595
112.504
107.476
102.487
157.639
151.501
145.067
138.634
132.325
126.177
120.185
114.321
108.554
102.845
167.459
159.481
151.504
143.82
136.476
129.436
122.645
116.043
109.573
103.182
178.222
167.462
157.646
148.667
140.322
132.447
124.916
117.632
110.515
103.494
103.493
103.182
102.845
102.488
102.117
101.738
101.354
100.968
100.581
100.194
110.511
109.571
108.553
107.476
106.359
105.218
104.064
102.904
101.743
100.581
117.625
116.039
114.319
112.503
110.625
108.711
106.779
104.842
102.904
100.968
124.907
122.639
120.182
117.594
114.927
112.221
109.5
106.779
104.064
101.354
132.437
129.43
126.174
122.762
119.269
115.746
112.222
108.711
105.218
101.738
140.313
136.471
132.323
128.013
123.642
119.27
114.929
110.627
106.36
102.117
148.659
143.816
138.633
133.324
128.014
122.765
117.597
112.506
107.477
102.488
157.641
151.503
145.069
138.636
132.327
126.179
120.186
114.323
108.555
102.845
167.461
159.483
151.506
143.822
136.478
129.438
122.647
116.045
109.575
103.183
178.224
167.464
157.648
148.669
140.324
132.449
124.918
117.634
110.516
103.495
188.986
174.501
162.953
152.882
143.702
135.115
126.941
119.056
111.361
103.775
192.203
178.601
166.78
156.204
146.485
137.367
128.677
120.287
112.096
104.02
193.427
180.919
169.362
158.669
148.666
139.192
130.113
121.318
112.717
104.227
194.01
182.286
171.081
160.442
150.318
140.622
131.263
122.157
113.226
104.398
194.337
183.134
172.232
161.702
151.542
141.713
132.16
122.821
113.633
104.534
194.537
183.682
173.012
162.59
152.434
142.53
132.844
123.333
113.949
104.641
194.667
184.044
173.542
163.212
153.075
143.128
133.352
123.718
114.189
104.723
194.752
184.285
173.902
163.641
153.525
143.554
133.72
123.999
114.364
104.782
194.807
184.441
174.137
163.927
153.828
143.845
133.973
124.194
114.487
104.824
194.839
184.535
174.28
164.101
154.015
144.026
134.131
124.317
114.564
104.851
194.854
184.577
174.346
164.183
154.104
144.114
134.209
124.378
114.603
104.864
194.853
184.575
174.343
164.181
154.105
144.117
134.213
124.382
114.607
104.865
194.835
184.524
174.269
164.095
154.016
144.035
134.145
124.331
114.575
104.855
194.798
184.418
174.113
163.913
153.83
143.863
134
124.223
114.508
104.832
194.732
184.238
173.853
163.614
153.528
143.587
133.77
124.051
114.403
104.796
194.624
183.947
173.447
163.16
153.083
143.188
133.442
123.809
114.254
104.747
194.441
183.479
172.826
162.499
152.456
142.641
133.001
123.487
114.06
104.681
194.099
182.703
171.881
161.553
151.6
141.92
132.433
123.081
113.816
104.6
193.351
181.353
170.441
160.234
150.474
141.007
131.732
122.587
113.522
104.503
191.303
178.917
168.298
158.467
149.058
139.901
130.904
122.012
113.184
104.391
188.985
174.499
162.951
152.88
143.699
135.113
126.939
119.054
111.359
103.774
192.201
178.598
166.778
156.202
146.482
137.365
128.675
120.285
112.095
104.019
193.425
180.917
169.36
158.666
148.663
139.19
130.11
121.317
112.715
104.226
194.008
182.284
171.078
160.44
150.315
140.619
131.261
122.155
113.224
104.397
194.335
183.132
172.229
161.699
151.539
141.711
132.158
122.819
113.631
104.533
194.536
183.679
173.009
162.587
152.431
142.527
132.842
123.331
113.947
104.64
194.665
184.041
173.539
163.209
153.072
143.125
133.35
123.716
114.187
104.721
194.75
184.282
173.898
163.638
153.522
143.552
133.717
123.997
114.362
104.781
194.805
184.438
174.134
163.924
153.825
143.843
133.97
124.191
114.485
104.823
194.837
184.531
174.276
164.098
154.012
144.024
134.129
124.314
114.562
104.849
194.852
184.574
174.342
164.18
154.101
144.111
134.206
124.375
114.601
104.863
194.851
184.571
174.339
164.178
154.101
144.114
134.211
124.38
114.604
104.864
194.833
184.521
174.265
164.091
154.013
144.032
134.142
124.329
114.573
104.853
194.795
184.415
174.109
163.909
153.827
143.86
133.997
124.22
114.506
104.831
194.73
184.234
173.849
163.61
153.525
143.584
133.767
124.048
114.4
104.795
194.622
183.943
173.443
163.157
153.079
143.185
133.439
123.806
114.252
104.745
194.438
183.475
172.822
162.495
152.452
142.638
132.998
123.485
114.057
104.68
194.097
182.699
171.877
161.549
151.597
141.917
132.43
123.078
113.813
104.599
193.348
181.349
170.437
160.23
150.47
141.003
131.729
122.584
113.52
104.501
191.3
178.913
168.294
158.463
149.054
139.897
130.901
122.009
113.181
104.39
188.985
174.499
162.951
152.88
143.699
135.113
126.939
119.054
111.359
103.774
192.201
178.598
166.778
156.202
146.482
137.365
128.675
120.285
112.095
104.019
193.425
180.917
169.36
158.666
148.663
139.19
130.11
121.317
112.715
104.226
194.008
182.284
171.078
160.44
150.315
140.619
131.261
122.155
113.224
104.397
194.335
183.132
172.229
161.699
151.539
141.711
132.158
122.819
113.631
104.533
194.536
183.679
173.009
162.587
152.431
142.527
132.842
123.331
113.947
104.64
194.665
184.041
173.539
163.209
153.072
143.125
133.35
123.716
114.187
104.721
194.75
184.282
173.898
163.638
153.522
143.552
133.717
123.997
114.362
104.781
194.805
184.438
174.134
163.924
153.825
143.843
133.97
124.191
114.485
104.823
194.837
184.531
174.276
164.098
154.012
144.024
134.129
124.314
114.562
104.849
194.852
184.574
174.342
164.18
154.101
144.111
134.206
124.375
114.601
104.863
194.851
184.571
174.339
164.178
154.101
144.114
134.211
124.38
114.604
104.864
194.833
184.521
174.265
164.091
154.013
144.032
134.142
124.329
114.573
104.853
194.795
184.415
174.109
163.909
153.827
143.86
133.997
124.22
114.506
104.831
194.73
184.234
173.849
163.61
153.525
143.584
133.767
124.048
114.4
104.795
194.622
183.943
173.443
163.157
153.079
143.185
133.439
123.806
114.252
104.745
194.438
183.475
172.822
162.495
152.452
142.638
132.998
123.485
114.057
104.68
194.097
182.699
171.877
161.549
151.597
141.917
132.43
123.078
113.813
104.599
193.348
181.349
170.437
160.23
150.47
141.003
131.729
122.584
113.52
104.501
191.3
178.913
168.294
158.463
149.054
139.897
130.901
122.009
113.181
104.39
188.986
174.501
162.953
152.882
143.702
135.115
126.941
119.056
111.361
103.775
192.203
178.601
166.78
156.204
146.485
137.367
128.677
120.287
112.096
104.02
193.427
180.919
169.362
158.669
148.666
139.192
130.113
121.318
112.717
104.227
194.01
182.286
171.081
160.442
150.318
140.622
131.263
122.157
113.226
104.398
194.337
183.134
172.232
161.702
151.542
141.713
132.16
122.821
113.633
104.534
194.537
183.682
173.012
162.59
152.434
142.53
132.844
123.333
113.949
104.641
194.667
184.044
173.542
163.212
153.075
143.128
133.352
123.718
114.189
104.723
194.752
184.285
173.902
163.641
153.525
143.554
133.72
123.999
114.364
104.782
194.807
184.441
174.137
163.927
153.828
143.845
133.973
124.194
114.487
104.824
194.839
184.535
174.28
164.101
154.015
144.026
134.131
124.317
114.564
104.851
194.854
184.577
174.346
164.183
154.104
144.114
134.209
124.378
114.603
104.864
194.853
184.575
174.343
164.181
154.105
144.117
134.213
124.382
114.607
104.865
194.835
184.524
174.269
164.095
154.016
144.035
134.145
124.331
114.575
104.855
194.798
184.418
174.113
163.913
153.83
143.863
134
124.223
114.508
104.832
194.732
184.238
173.853
163.614
153.528
143.587
133.77
124.051
114.403
104.796
194.624
183.947
173.447
163.16
153.083
143.188
133.442
123.809
114.254
104.747
194.441
183.479
172.826
162.499
152.456
142.641
133.001
123.487
114.06
104.681
194.099
182.703
171.881
161.553
151.6
141.92
132.433
123.081
113.816
104.6
193.351
181.353
170.441
160.233
150.474
141.007
131.732
122.587
113.522
104.503
191.302
178.917
168.298
158.467
149.058
139.901
130.904
122.012
113.184
104.391
184.239
174.714
165.369
156.281
147.39
138.636
129.974
121.373
112.81
104.268
178.051
170.336
162.185
153.901
145.589
137.282
128.984
120.697
112.416
104.139
173.07
166.396
159.135
151.551
143.787
135.919
127.987
120.016
112.019
104.008
169.096
163.046
156.413
149.385
142.093
134.623
127.032
119.361
111.637
103.882
165.932
160.28
154.089
147.486
140.578
133.449
126.16
118.76
111.285
103.766
163.441
158.058
152.178
145.893
139.288
132.438
125.403
118.235
110.976
103.665
161.533
156.334
150.674
144.621
138.246
131.613
124.781
117.801
110.721
103.581
160.147
155.073
149.563
143.673
137.463
130.989
124.308
117.471
110.525
103.516
159.243
154.247
148.832
143.046
136.941
130.572
123.991
117.249
110.393
103.473
158.797
153.839
148.469
142.733
136.681
130.363
123.833
117.138
110.327
103.456
184.236
174.71
165.365
156.277
147.387
138.633
129.971
121.37
112.808
104.267
178.047
170.332
162.181
153.897
145.586
137.278
128.981
120.694
112.414
104.137
173.067
166.393
159.132
151.548
143.784
135.916
127.984
120.012
112.016
104.007
169.093
163.043
156.41
149.382
142.089
134.619
127.029
119.357
111.634
103.881
165.929
160.278
154.086
147.483
140.575
133.446
126.157
118.756
111.282
103.765
163.439
158.055
152.175
145.89
139.285
132.435
125.399
118.231
110.973
103.663
161.53
156.332
150.671
144.618
138.243
131.61
124.777
117.797
110.716
103.578
160.144
155.07
149.56
143.67
137.459
130.985
124.304
117.466
110.52
103.513
159.24
154.245
148.829
143.043
136.938
130.568
123.987
117.244
110.387
103.468
158.795
153.837
148.467
142.73
136.678
130.36
123.828
117.133
110.321
103.449
184.236
174.71
165.365
156.277
147.387
138.633
129.971
121.37
112.808
104.267
178.047
170.332
162.181
153.897
145.586
137.278
128.981
120.694
112.414
104.137
173.067
166.393
159.132
151.548
143.784
135.916
127.984
120.012
112.016
104.007
169.093
163.042
156.41
149.382
142.089
134.619
127.029
119.357
111.634
103.881
165.929
160.278
154.086
147.483
140.575
133.446
126.157
118.756
111.282
103.765
163.439
158.055
152.175
145.89
139.285
132.435
125.399
118.231
110.973
103.663
161.53
156.332
150.671
144.619
138.243
131.61
124.777
117.797
110.716
103.578
160.144
155.07
149.56
143.67
137.459
130.985
124.304
117.466
110.52
103.513
159.241
154.245
148.829
143.043
136.938
130.568
123.987
117.244
110.387
103.468
158.795
153.837
148.467
142.731
136.678
130.36
123.828
117.133
110.321
103.449
184.239
174.714
165.369
156.281
147.39
138.636
129.974
121.373
112.81
104.268
178.051
170.336
162.185
153.901
145.589
137.282
128.984
120.697
112.416
104.139
173.07
166.396
159.135
151.551
143.787
135.919
127.987
120.016
112.019
104.008
169.096
163.046
156.413
149.385
142.093
134.623
127.032
119.361
111.637
103.882
165.932
160.28
154.089
147.486
140.578
133.449
126.16
118.76
111.285
103.766
163.441
158.058
152.178
145.893
139.289
132.438
125.403
118.235
110.976
103.665
161.533
156.334
150.674
144.622
138.246
131.613
124.781
117.801
110.721
103.581
160.147
155.073
149.563
143.674
137.463
130.989
124.308
117.471
110.525
103.516
159.243
154.247
148.832
143.046
136.941
130.572
123.991
117.249
110.393
103.473
158.797
153.839
148.47
142.734
136.681
130.364
123.833
117.139
110.327
103.456
192.888
195.652
196.825
197.463
197.868
198.146
198.34
198.474
198.558
198.599
198.599
198.559
198.475
198.342
198.148
197.871
197.466
196.828
195.655
192.89
184.553
188.55
191.013
192.623
193.732
194.521
195.083
195.472
195.718
195.838
195.839
195.72
195.476
195.088
194.527
193.739
192.63
191.02
188.556
184.559
178.728
182.98
186.055
188.284
189.918
191.122
192
192.614
193.006
193.197
193.198
193.009
192.62
192.007
191.132
189.929
188.296
186.067
182.992
178.739
174.319
178.587
181.943
184.54
186.536
188.052
189.18
189.98
190.494
190.746
190.748
190.499
189.988
189.191
188.066
186.552
184.558
181.962
178.606
174.338
170.884
175.108
178.59
181.4
183.633
185.372
186.689
187.634
188.246
188.548
188.55
188.253
187.646
186.704
185.391
183.655
181.426
178.617
175.136
170.912
168.204
172.374
175.908
178.841
181.225
183.117
184.57
185.624
186.311
186.651
186.654
186.32
185.639
184.59
183.142
181.254
178.874
175.945
172.413
168.244
166.157
170.278
173.831
176.831
179.31
181.304
182.851
183.983
184.725
185.093
185.097
184.736
184.002
182.877
181.336
179.348
176.875
173.879
170.329
166.211
164.671
168.752
172.309
175.346
177.882
179.942
181.551
182.736
183.515
183.903
183.908
183.528
182.758
181.582
179.98
177.928
175.399
172.368
168.816
164.738
163.701
167.755
171.31
174.367
176.935
179.032
180.68
181.896
182.699
183.1
183.105
182.714
181.921
180.714
179.076
176.987
174.427
171.378
167.829
163.779
163.222
167.262
170.815
173.88
176.462
178.577
180.242
181.474
182.289
182.695
182.701
182.305
181.501
180.28
178.625
176.519
173.945
170.889
167.342
163.307
192.89
195.654
196.827
197.464
197.869
198.147
198.341
198.474
198.558
198.599
198.599
198.559
198.475
198.342
198.147
197.87
197.465
196.827
195.653
192.888
184.556
188.552
191.015
192.625
193.734
194.522
195.084
195.473
195.719
195.838
195.838
195.72
195.475
195.087
194.525
193.737
192.628
191.018
188.554
184.556
178.731
182.983
186.057
188.286
189.92
191.124
192.001
192.615
193.006
193.197
193.197
193.008
192.619
192.006
191.131
189.928
188.294
186.065
182.989
178.736
174.323
178.59
181.945
184.543
186.538
188.054
189.181
189.981
190.495
190.746
190.748
190.499
189.988
189.19
188.065
186.55
184.556
181.959
178.604
174.335
170.887
175.111
178.592
181.403
183.635
185.374
186.69
187.635
188.247
188.548
188.55
188.253
187.645
186.703
185.39
183.653
181.424
178.614
175.134
170.909
168.207
172.377
175.911
178.843
181.226
183.119
184.571
185.625
186.311
186.651
186.654
186.319
185.638
184.589
183.141
181.253
178.872
175.943
172.411
168.241
166.16
170.281
173.833
176.833
179.312
181.306
182.853
183.984
184.725
185.093
185.097
184.735
184.001
182.876
181.335
179.346
176.873
173.877
170.327
166.208
164.674
168.755
172.312
175.349
177.884
179.943
181.552
182.736
183.515
183.903
183.907
183.528
182.757
181.58
179.979
177.926
175.397
172.366
168.813
164.736
163.704
167.758
171.313
174.369
176.937
179.034
180.681
181.897
182.7
183.1
183.105
182.714
181.92
180.713
179.075
176.986
174.426
171.376
167.827
163.777
163.225
167.265
170.818
173.882
176.464
178.579
180.244
181.475
182.289
182.695
182.701
182.304
181.501
180.279
178.623
176.518
173.943
170.887
167.34
163.305
192.89
195.654
196.827
197.464
197.869
198.147
198.341
198.474
198.558
198.599
198.599
198.559
198.475
198.342
198.147
197.87
197.465
196.827
195.653
192.888
184.556
188.552
191.015
192.625
193.734
194.522
195.084
195.473
195.719
195.838
195.838
195.72
195.475
195.087
194.525
193.737
192.628
191.018
188.554
184.556
178.731
182.983
186.057
188.286
189.92
191.124
192.001
192.615
193.006
193.197
193.197
193.008
192.619
192.006
191.13
189.928
188.294
186.065
182.989
178.736
174.322
178.59
181.945
184.543
186.538
188.054
189.181
189.981
190.495
190.746
190.748
190.499
189.987
189.19
188.065
186.55
184.556
181.959
178.604
174.335
170.887
175.111
178.592
181.403
183.635
185.374
186.69
187.635
188.247
188.548
188.55
188.253
187.645
186.703
185.39
183.653
181.424
178.614
175.134
170.909
168.207
172.377
175.911
178.843
181.226
183.119
184.571
185.625
186.311
186.651
186.654
186.319
185.638
184.589
183.141
181.253
178.872
175.943
172.411
168.241
166.16
170.281
173.833
176.833
179.312
181.306
182.853
183.984
184.725
185.093
185.097
184.735
184.001
182.876
181.335
179.346
176.873
173.877
170.327
166.208
164.674
168.755
172.312
175.349
177.884
179.943
181.552
182.736
183.515
183.903
183.907
183.528
182.757
181.58
179.979
177.927
175.397
172.366
168.814
164.736
163.704
167.758
171.313
174.369
176.937
179.034
180.681
181.897
182.7
183.1
183.105
182.714
181.921
180.713
179.075
176.986
174.426
171.376
167.827
163.777
163.225
167.265
170.818
173.882
176.464
178.579
180.244
181.475
182.289
182.696
182.701
182.304
181.501
180.279
178.624
176.518
173.944
170.887
167.34
163.305
192.888
195.652
196.825
197.463
197.868
198.146
198.34
198.474
198.558
198.599
198.599
198.559
198.475
198.342
198.148
197.871
197.466
196.828
195.655
192.89
184.553
188.55
191.013
192.623
193.732
194.521
195.083
195.472
195.718
195.838
195.839
195.72
195.476
195.088
194.527
193.739
192.63
191.02
188.556
184.558
178.728
182.98
186.055
188.284
189.918
191.122
192
192.614
193.006
193.197
193.198
193.009
192.62
192.007
191.132
189.929
188.296
186.067
182.992
178.739
174.319
178.587
181.943
184.54
186.536
188.052
189.18
189.98
190.494
190.746
190.748
190.499
189.989
189.191
188.066
186.552
184.558
181.962
178.606
174.338
170.884
175.108
178.59
181.401
183.633
185.372
186.689
187.634
188.246
188.548
188.55
188.253
187.646
186.704
185.391
183.655
181.426
178.617
175.136
170.912
168.204
172.374
175.908
178.841
181.225
183.117
184.57
185.624
186.311
186.651
186.654
186.32
185.639
184.59
183.143
181.255
178.875
175.945
172.413
168.244
166.157
170.278
173.831
176.831
179.31
181.304
182.852
183.983
184.725
185.094
185.097
184.736
184.002
182.877
181.336
179.348
176.875
173.879
170.329
166.211
164.671
168.752
172.309
175.346
177.882
179.942
181.551
182.736
183.515
183.904
183.908
183.528
182.758
181.582
179.98
177.928
175.399
172.368
168.816
164.738
163.701
167.755
171.31
174.367
176.935
179.033
180.68
181.897
182.699
183.1
183.105
182.715
181.922
180.715
179.077
176.988
174.428
171.379
167.829
163.78
163.222
167.262
170.816
173.88
176.463
178.578
180.243
181.475
182.289
182.696
182.701
182.305
181.502
180.28
178.625
176.519
173.946
170.889
167.342
163.307
104.268
112.811
121.376
129.979
138.642
147.397
156.287
165.373
174.716
184.238
104.138
112.417
120.699
128.988
137.286
145.594
153.904
162.186
170.335
178.047
104.007
112.018
120.016
127.988
135.92
143.787
151.55
159.132
166.39
173.061
103.881
111.634
119.358
127.029
134.618
142.086
149.376
156.401
163.031
169.079
103.764
111.279
118.752
126.151
133.437
140.562
147.466
154.066
160.255
165.904
103.661
110.967
118.222
125.385
132.415
139.261
145.861
152.142
158.019
163.401
103.575
110.708
117.782
124.754
131.578
138.205
144.575
150.623
156.281
161.479
103.509
110.508
117.442
124.269
130.941
137.406
143.611
149.497
155.005
160.078
103.464
110.372
117.211
123.94
130.51
136.871
142.969
148.752
154.166