/*--------------------------------*- C++ -*----------------------------------*\
| =========                 |                                                 |
| \\      /  F ield         | OpenFOAM: The Open Source CFD Toolbox           |
|  \\    /   O peration     | Version:  2.4.0                                 |
|   \\  /    A nd           | Web:      www.OpenFOAM.org                      |
|    \\/     M anipulation  |                                                 |
\*---------------------------------------------------------------------------*/
FoamFile
{
    version     2.0;
    format      ascii;
    class       volScalarField;
    location    "0.0042";
    object      T;
}
// * * * * * * * * * * * * * * * * * * * * * * * * * * * * * * * * * * * * * //

dimensions      [0 0 0 1 0 0 0];

internalField   nonuniform List<scalar> 
4800
(
100.193
100.58
100.967
101.353
101.737
102.116
102.486
102.843
103.181
103.492
100.58
101.741
102.902
104.061
105.215
106.356
107.473
108.55
109.568
110.508
100.967
102.902
104.839
106.775
108.706
110.62
112.499
114.314
116.034
117.621
101.353
104.061
106.775
109.495
112.215
114.921
117.587
120.176
122.634
124.902
101.737
105.215
108.707
112.215
115.738
119.262
122.755
126.167
129.424
132.432
102.116
106.356
110.621
114.921
119.262
123.633
128.004
132.314
136.463
140.307
102.486
107.473
112.499
117.588
122.755
128.004
133.314
138.624
143.808
148.653
102.843
108.55
114.315
120.176
126.168
132.315
138.624
145.059
151.494
157.634
103.181
109.569
116.036
122.635
129.425
136.465
143.809
151.494
159.474
167.454
103.493
110.51
117.623
124.905
132.434
140.31
148.655
157.636
167.455
178.218
100.193
100.58
100.967
101.353
101.737
102.116
102.486
102.843
103.181
103.492
100.58
101.741
102.902
104.061
105.215
106.356
107.473
108.55
109.568
110.508
100.967
102.902
104.839
106.775
108.706
110.62
112.499
114.314
116.034
117.621
101.353
104.061
106.775
109.495
112.215
114.921
117.587
120.176
122.634
124.902
101.737
105.215
108.707
112.215
115.738
119.262
122.755
126.167
129.424
132.431
102.116
106.356
110.621
114.921
119.262
123.633
128.004
132.314
136.463
140.307
102.486
107.473
112.499
117.588
122.755
128.004
133.314
138.624
143.808
148.653
102.844
108.55
114.315
120.177
126.168
132.315
138.624
145.059
151.494
157.634
103.181
109.569
116.036
122.636
129.426
136.465
143.81
151.495
159.474
167.454
103.493
110.51
117.624
124.905
132.435
140.31
148.656
157.636
167.455
178.218
100.193
100.58
100.967
101.353
101.737
102.116
102.486
102.843
103.181
103.492
100.58
101.741
102.902
104.061
105.215
106.356
107.473
108.55
109.568
110.508
100.967
102.902
104.839
106.775
108.706
110.62
112.499
114.314
116.034
117.621
101.353
104.061
106.775
109.495
112.215
114.921
117.587
120.176
122.634
124.902
101.737
105.215
108.707
112.215
115.738
119.262
122.755
126.167
129.424
132.431
102.116
106.356
110.621
114.921
119.262
123.633
128.004
132.314
136.463
140.307
102.486
107.473
112.499
117.588
122.755
128.004
133.314
138.624
143.808
148.653
102.844
108.55
114.315
120.177
126.168
132.315
138.624
145.059
151.494
157.634
103.181
109.569
116.036
122.636
129.426
136.465
143.81
151.495
159.474
167.454
103.493
110.51
117.624
124.905
132.435
140.31
148.656
157.636
167.455
178.218
100.193
100.58
100.967
101.353
101.737
102.116
102.486
102.843
103.181
103.492
100.58
101.741
102.902
104.061
105.215
106.356
107.473
108.55
109.568
110.508
100.967
102.902
104.839
106.775
108.706
110.62
112.499
114.314
116.034
117.621
101.353
104.061
106.775
109.495
112.215
114.921
117.587
120.176
122.634
124.902
101.737
105.215
108.707
112.215
115.738
119.262
122.755
126.167
129.424
132.432
102.116
106.356
110.621
114.921
119.262
123.633
128.004
132.314
136.463
140.307
102.486
107.473
112.499
117.588
122.755
128.004
133.314
138.624
143.808
148.653
102.843
108.55
114.315
120.176
126.168
132.315
138.624
145.059
151.494
157.634
103.181
109.569
116.036
122.635
129.425
136.465
143.809
151.494
159.474
167.454
103.493
110.51
117.623
124.905
132.434
140.31
148.655
157.636
167.455
178.218
103.772
104.015
104.222
104.391
104.525
104.629
104.707
104.761
104.795
104.812
104.812
104.795
104.761
104.706
104.629
104.525
104.39
104.221
104.015
103.772
111.351
112.084
112.702
113.206
113.606
113.914
114.142
114.302
114.404
114.452
114.452
114.403
114.302
114.142
113.914
113.606
113.205
112.701
112.083
111.351
119.041
120.268
121.295
122.126
122.78
123.279
123.647
123.903
124.064
124.142
124.142
124.064
123.902
123.646
123.278
122.779
122.125
121.293
120.267
119.04
126.922
128.653
130.083
131.224
132.109
132.776
133.262
133.598
133.809
133.91
133.91
133.808
133.597
133.261
132.775
132.107
131.222
130.081
128.652
126.921
135.094
137.341
139.158
140.578
141.657
142.455
143.027
143.419
143.663
143.779
143.779
143.662
143.418
143.026
142.453
141.655
140.576
139.156
137.339
135.092
143.68
146.458
148.632
150.275
151.485
152.359
152.974
153.389
153.644
153.766
153.766
153.644
153.388
152.972
152.357
151.483
150.272
148.63
146.456
143.678
152.862
156.18
158.638
160.403
161.65
162.521
163.121
163.518
163.76
163.875
163.875
163.76
163.517
163.119
162.52
161.648
160.401
158.636
156.178
152.861
162.937
166.76
169.338
171.049
172.191
172.957
173.469
173.803
174.004
174.099
174.098
174.004
173.802
173.468
172.956
172.189
171.048
169.336
166.759
162.935
174.49
178.588
180.903
182.265
183.107
183.646
183.997
184.221
184.355
184.417
184.417
184.355
184.221
183.996
183.646
183.107
182.265
180.902
178.587
174.489
188.981
192.198
193.421
194.003
194.327
194.525
194.65
194.73
194.777
194.799
194.799
194.777
194.73
194.65
194.525
194.327
194.003
193.421
192.198
188.981
103.772
104.015
104.221
104.39
104.525
104.629
104.706
104.761
104.795
104.812
104.812
104.795
104.76
104.706
104.629
104.525
104.39
104.221
104.015
103.771
111.351
112.084
112.701
113.206
113.606
113.914
114.142
114.302
114.403
114.452
114.452
114.403
114.301
114.141
113.913
113.605
113.204
112.7
112.082
111.349
119.04
120.268
121.294
122.126
122.78
123.279
123.646
123.902
124.064
124.141
124.141
124.063
123.901
123.645
123.277
122.778
122.124
121.292
120.266
119.038
126.922
128.653
130.082
131.224
132.109
132.776
133.261
133.597
133.808
133.909
133.909
133.807
133.596
133.26
132.774
132.106
131.221
130.079
128.65
126.919
135.094
137.341
139.158
140.578
141.656
142.454
143.027
143.418
143.662
143.779
143.778
143.661
143.417
143.025
142.452
141.653
140.575
139.155
137.337
135.09
143.68
146.458
148.632
150.274
151.484
152.358
152.973
153.388
153.644
153.765
153.765
153.643
153.387
152.971
152.356
151.481
150.271
148.628
146.454
143.677
152.862
156.18
158.638
160.403
161.65
162.521
163.12
163.517
163.759
163.874
163.874
163.759
163.516
163.118
162.519
161.647
160.399
158.634
156.176
152.859
162.937
166.76
169.337
171.049
172.19
172.956
173.469
173.802
174.003
174.098
174.097
174.003
173.801
173.467
172.954
172.188
171.046
169.334
166.757
162.934
174.49
178.588
180.903
182.265
183.107
183.646
183.996
184.22
184.354
184.416
184.416
184.353
184.22
183.995
183.645
183.105
182.263
180.901
178.586
174.488
188.982
192.198
193.421
194.002
194.327
194.524
194.65
194.729
194.776
194.798
194.798
194.776
194.729
194.649
194.524
194.326
194.002
193.42
192.197
188.98
103.772
104.015
104.221
104.39
104.525
104.629
104.706
104.761
104.795
104.812
104.812
104.795
104.76
104.706
104.629
104.525
104.39
104.221
104.015
103.771
111.351
112.084
112.701
113.206
113.606
113.914
114.142
114.302
114.403
114.452
114.452
114.403
114.301
114.141
113.913
113.605
113.204
112.7
112.082
111.349
119.04
120.268
121.294
122.126
122.78
123.279
123.646
123.902
124.064
124.141
124.141
124.063
123.901
123.645
123.277
122.778
122.124
121.292
120.266
119.038
126.922
128.653
130.082
131.224
132.109
132.776
133.261
133.597
133.808
133.909
133.909
133.807
133.596
133.26
132.774
132.106
131.221
130.079
128.65
126.919
135.094
137.341
139.158
140.578
141.656
142.454
143.027
143.418
143.662
143.779
143.778
143.661
143.417
143.025
142.452
141.653
140.575
139.155
137.337
135.09
143.68
146.458
148.632
150.274
151.484
152.358
152.973
153.388
153.644
153.765
153.765
153.643
153.387
152.971
152.356
151.481
150.271
148.628
146.454
143.677
152.862
156.18
158.638
160.403
161.65
162.521
163.12
163.517
163.759
163.874
163.874
163.759
163.516
163.118
162.519
161.647
160.399
158.634
156.176
152.859
162.937
166.76
169.337
171.049
172.19
172.956
173.469
173.802
174.003
174.098
174.097
174.003
173.801
173.467
172.954
172.188
171.046
169.334
166.757
162.934
174.49
178.588
180.903
182.265
183.107
183.646
183.996
184.22
184.354
184.416
184.416
184.353
184.22
183.995
183.645
183.105
182.263
180.901
178.586
174.488
188.982
192.198
193.421
194.002
194.327
194.524
194.65
194.729
194.776
194.798
194.798
194.776
194.729
194.649
194.524
194.326
194.002
193.42
192.197
188.98
103.772
104.015
104.222
104.391
104.525
104.629
104.707
104.761
104.795
104.812
104.812
104.795
104.761
104.706
104.629
104.525
104.39
104.221
104.015
103.772
111.351
112.084
112.702
113.206
113.606
113.914
114.142
114.302
114.404
114.452
114.452
114.403
114.302
114.142
113.914
113.606
113.205
112.701
112.083
111.351
119.041
120.268
121.295
122.126
122.78
123.279
123.647
123.903
124.064
124.142
124.142
124.064
123.902
123.646
123.278
122.779
122.125
121.293
120.267
119.04
126.922
128.653
130.083
131.224
132.109
132.776
133.262
133.598
133.809
133.91
133.91
133.808
133.597
133.261
132.775
132.107
131.222
130.081
128.652
126.921
135.094
137.341
139.158
140.578
141.657
142.455
143.027
143.419
143.663
143.779
143.779
143.662
143.418
143.026
142.453
141.655
140.576
139.156
137.339
135.092
143.68
146.458
148.632
150.275
151.485
152.359
152.974
153.389
153.644
153.766
153.766
153.644
153.388
152.972
152.357
151.483
150.272
148.63
146.456
143.678
152.862
156.18
158.638
160.403
161.65
162.521
163.121
163.518
163.76
163.875
163.875
163.76
163.517
163.119
162.52
161.648
160.401
158.636
156.178
152.861
162.937
166.76
169.338
171.049
172.191
172.957
173.469
173.803
174.004
174.099
174.098
174.004
173.802
173.468
172.956
172.189
171.048
169.336
166.759
162.935
174.49
178.588
180.903
182.265
183.107
183.646
183.997
184.221
184.355
184.417
184.417
184.355
184.221
183.996
183.646
183.107
182.265
180.902
178.587
174.489
188.981
192.198
193.421
194.003
194.327
194.525
194.65
194.73
194.777
194.799
194.799
194.777
194.73
194.65
194.525
194.327
194.003
193.421
192.198
188.981
103.492
103.181
102.844
102.487
102.116
101.737
101.353
100.967
100.581
100.194
110.508
109.568
108.55
107.473
106.356
105.216
104.062
102.903
101.742
100.581
117.62
116.034
114.314
112.499
110.621
108.707
106.776
104.839
102.903
100.967
124.901
122.633
120.175
117.588
114.922
112.216
109.496
106.776
104.062
101.353
132.43
129.423
126.167
122.755
119.262
115.739
112.216
108.707
105.216
101.737
140.306
136.463
132.314
128.004
123.634
119.263
114.922
110.622
106.357
102.116
148.652
143.808
138.624
133.315
128.005
122.757
117.589
112.5
107.474
102.487
157.634
151.494
145.06
138.626
132.317
126.17
120.178
114.317
108.551
102.844
167.454
159.475
151.496
143.812
136.467
129.428
122.638
116.038
109.571
103.182
178.219
167.456
157.638
148.658
140.313
132.438
124.908
117.626
110.511
103.493
103.491
103.18
102.843
102.486
102.115
101.736
101.353
100.967
100.58
100.193
110.507
109.567
108.548
107.472
106.355
105.214
104.061
102.901
101.741
100.58
117.619
116.032
114.313
112.497
110.619
108.706
106.775
104.838
102.901
100.967
124.9
122.632
120.174
117.586
114.92
112.214
109.494
106.775
104.061
101.353
132.429
129.421
126.165
122.753
119.261
115.738
112.215
108.706
105.215
101.736
140.304
136.461
132.313
128.003
123.632
119.261
114.921
110.62
106.356
102.116
148.65
143.806
138.622
133.313
128.004
122.755
117.588
112.499
107.473
102.486
157.632
151.492
145.058
138.624
132.315
126.168
120.177
114.315
108.55
102.843
167.453
159.473
151.494
143.81
136.465
129.426
122.636
116.036
109.569
103.181
178.217
167.454
157.636
148.656
140.311
132.436
124.906
117.624
110.51
103.492
103.491
103.18
102.843
102.486
102.115
101.736
101.353
100.967
100.58
100.193
110.507
109.567
108.548
107.472
106.355
105.214
104.061
102.901
101.741
100.58
117.619
116.032
114.313
112.497
110.619
108.706
106.775
104.838
102.901
100.967
124.9
122.632
120.174
117.586
114.92
112.214
109.494
106.775
104.061
101.353
132.429
129.421
126.165
122.753
119.261
115.738
112.215
108.706
105.215
101.736
140.304
136.461
132.313
128.003
123.632
119.261
114.921
110.62
106.356
102.116
148.65
143.806
138.622
133.313
128.004
122.755
117.588
112.499
107.473
102.486
157.632
151.492
145.058
138.624
132.315
126.168
120.177
114.315
108.55
102.843
167.453
159.473
151.494
143.81
136.465
129.426
122.636
116.036
109.569
103.181
178.217
167.454
157.636
148.656
140.311
132.436
124.906
117.624
110.51
103.492
103.492
103.181
102.844
102.487
102.116
101.737
101.353
100.967
100.581
100.194
110.508
109.568
108.55
107.473
106.356
105.216
104.062
102.903
101.742
100.581
117.62
116.034
114.314
112.499
110.621
108.707
106.776
104.839
102.903
100.967
124.901
122.633
120.175
117.588
114.922
112.216
109.496
106.776
104.062
101.353
132.43
129.423
126.167
122.755
119.262
115.739
112.216
108.707
105.216
101.737
140.306
136.463
132.314
128.004
123.634
119.263
114.922
110.622
106.357
102.116
148.652
143.808
138.624
133.315
128.005
122.757
117.589
112.5
107.474
102.487
157.634
151.494
145.06
138.626
132.317
126.17
120.178
114.317
108.551
102.844
167.454
159.475
151.496
143.812
136.467
129.428
122.638
116.038
109.571
103.182
178.219
167.456
157.638
148.658
140.313
132.438
124.908
117.626
110.511
103.493
188.983
174.494
162.943
152.87
143.689
135.102
126.93
119.047
111.355
103.773
192.2
178.594
166.77
156.191
146.471
137.353
128.665
120.277
112.09
104.018
193.424
180.911
169.35
158.654
148.65
139.176
130.098
121.307
112.71
104.225
194.007
182.277
171.067
160.425
150.299
140.602
131.246
122.144
113.217
104.395
194.333
183.124
172.215
161.681
151.519
141.69
132.139
122.804
113.622
104.531
194.533
183.669
172.991
162.564
152.406
142.501
132.818
123.313
113.936
104.637
194.661
184.028
173.517
163.18
153.039
143.092
133.32
123.693
114.172
104.717
194.745
184.264
173.869
163.601
153.48
143.509
133.679
123.967
114.344
104.775
194.798
184.414
174.096
163.875
153.771
143.788
133.921
124.153
114.461
104.815
194.828
184.5
174.227
164.035
153.942
143.953
134.066
124.265
114.531
104.839
194.839
184.533
174.277
164.098
154.01
144.021
134.125
124.312
114.561
104.849
194.833
184.517
174.254
164.071
153.983
143.997
134.106
124.297
114.552
104.847
194.81
184.45
174.154
163.951
153.859
143.88
134.007
124.223
114.506
104.831
194.764
184.32
173.963
163.726
153.627
143.664
133.823
124.084
114.42
104.802
194.687
184.108
173.655
163.37
153.265
143.331
133.543
123.874
114.29
104.758
194.563
183.773
173.184
162.841
152.742
142.858
133.152
123.584
114.112
104.698
194.356
183.243
172.475
162.079
152.014
142.218
132.633
123.204
113.881
104.621
193.977
182.372
171.406
161
151.029
141.381
131.97
122.726
113.593
104.524
193.156
180.874
169.791
159.503
149.739
140.326
131.154
122.147
113.248
104.41
190.935
178.193
167.399
157.507
148.12
139.05
130.191
121.475
112.851
104.278
188.982
174.492
162.941
152.868
143.687
135.1
126.928
119.045
111.354
103.772
192.199
178.591
166.767
156.189
146.468
137.351
128.663
120.275
112.088
104.017
193.422
180.909
169.348
158.651
148.647
139.173
130.096
121.305
112.708
104.224
194.005
182.275
171.064
160.422
150.296
140.6
131.244
122.142
113.216
104.394
194.331
183.121
172.213
161.678
151.516
141.688
132.137
122.802
113.62
104.53
194.531
183.666
172.988
162.561
152.403
142.499
132.816
123.311
113.934
104.636
194.659
184.025
173.514
163.177
153.036
143.09
133.318
123.691
114.17
104.716
194.743
184.261
173.866
163.598
153.477
143.507
133.677
123.965
114.342
104.774
194.796
184.411
174.093
163.872
153.768
143.785
133.919
124.151
114.459
104.814
194.826
184.497
174.223
164.032
153.939
143.951
134.063
124.263
114.529
104.838
194.837
184.53
174.274
164.094
154.007
144.018
134.123
124.309
114.559
104.848
194.831
184.514
174.251
164.067
153.98
143.994
134.103
124.295
114.55
104.845
194.807
184.446
174.15
163.948
153.856
143.877
134.004
124.22
114.504
104.83
194.761
184.317
173.959
163.723
153.624
143.661
133.82
124.081
114.418
104.8
194.685
184.104
173.651
163.366
153.262
143.327
133.54
123.871
114.288
104.757
194.561
183.77
173.18
162.838
152.738
142.855
133.149
123.581
114.11
104.697
194.354
183.239
172.471
162.075
152.01
142.215
132.63
123.201
113.879
104.619
193.974
182.368
171.402
160.996
151.025
141.378
131.967
122.723
113.591
104.523
193.154
180.87
169.786
159.499
149.735
140.322
131.151
122.145
113.246
104.408
190.932
178.189
167.395
157.503
148.116
139.046
130.188
121.472
112.848
104.277
188.982
174.492
162.941
152.868
143.687
135.1
126.928
119.045
111.354
103.772
192.199
178.591
166.767
156.189
146.468
137.351
128.663
120.275
112.088
104.017
193.422
180.909
169.348
158.651
148.647
139.173
130.096
121.305
112.708
104.224
194.005
182.275
171.064
160.422
150.296
140.6
131.244
122.142
113.216
104.394
194.331
183.121
172.213
161.678
151.516
141.688
132.137
122.802
113.62
104.53
194.531
183.666
172.988
162.561
152.403
142.499
132.816
123.311
113.934
104.636
194.659
184.025
173.514
163.177
153.036
143.09
133.318
123.691
114.17
104.716
194.743
184.261
173.866
163.598
153.477
143.507
133.677
123.965
114.342
104.774
194.796
184.411
174.093
163.872
153.768
143.785
133.919
124.151
114.459
104.814
194.826
184.497
174.223
164.032
153.939
143.951
134.063
124.263
114.529
104.838
194.837
184.53
174.274
164.094
154.007
144.018
134.123
124.309
114.559
104.848
194.831
184.514
174.251
164.067
153.98
143.994
134.103
124.295
114.55
104.845
194.807
184.446
174.15
163.948
153.856
143.877
134.004
124.22
114.504
104.83
194.761
184.317
173.959
163.723
153.624
143.661
133.82
124.081
114.418
104.8
194.685
184.104
173.651
163.366
153.262
143.327
133.54
123.871
114.288
104.757
194.561
183.77
173.18
162.838
152.738
142.855
133.149
123.581
114.11
104.697
194.354
183.239
172.471
162.075
152.01
142.215
132.63
123.201
113.879
104.619
193.974
182.368
171.402
160.996
151.025
141.378
131.967
122.723
113.591
104.523
193.154
180.87
169.786
159.499
149.735
140.322
131.151
122.145
113.246
104.408
190.932
178.189
167.395
157.503
148.116
139.046
130.188
121.472
112.848
104.277
188.983
174.494
162.943
152.87
143.689
135.102
126.93
119.047
111.355
103.773
192.2
178.594
166.77
156.191
146.471
137.353
128.665
120.277
112.09
104.018
193.424
180.911
169.35
158.654
148.65
139.176
130.098
121.307
112.71
104.225
194.007
182.277
171.067
160.425
150.299
140.602
131.246
122.144
113.217
104.395
194.333
183.124
172.215
161.681
151.519
141.69
132.139
122.804
113.622
104.531
194.533
183.669
172.991
162.564
152.406
142.501
132.818
123.313
113.936
104.637
194.661
184.028
173.517
163.18
153.039
143.092
133.32
123.693
114.172
104.717
194.745
184.264
173.869
163.601
153.48
143.509
133.679
123.967
114.344
104.775
194.798
184.414
174.096
163.875
153.771
143.788
133.921
124.153
114.461
104.815
194.828
184.5
174.227
164.035
153.942
143.953
134.066
124.265
114.531
104.839
194.839
184.533
174.277
164.098
154.01
144.021
134.125
124.312
114.561
104.849
194.833
184.517
174.254
164.071
153.983
143.997
134.106
124.297
114.552
104.847
194.81
184.45
174.154
163.951
153.859
143.88
134.007
124.223
114.506
104.831
194.764
184.32
173.963
163.726
153.627
143.664
133.823
124.084
114.42
104.802
194.687
184.108
173.655
163.37
153.265
143.331
133.543
123.874
114.29
104.758
194.563
183.773
173.184
162.841
152.742
142.858
133.152
123.584
114.112
104.698
194.356
183.243
172.475
162.079
152.014
142.218
132.633
123.204
113.881
104.621
193.977
182.372
171.406
161
151.029
141.381
131.97
122.726
113.593
104.524
193.156
180.874
169.79
159.503
149.738
140.326
131.154
122.147
113.248
104.41
190.935
178.193
167.399
157.507
148.12
139.05
130.191
121.475
112.851
104.278
183.332
173.585
164.134
155.037
146.214
137.59
129.109
120.727
112.412
104.133
176.513
168.718
160.555
152.331
144.145
136.02
127.954
119.934
111.948
103.981
170.911
164.269
157.087
149.637
142.062
134.433
126.784
119.131
111.478
103.826
166.356
160.425
153.95
147.126
140.085
132.912
125.658
118.355
111.024
103.676
162.667
157.205
151.238
144.902
138.304
131.525
124.623
117.639
110.603
103.538
159.719
154.581
148.982
143.018
136.773
130.321
123.718
117.01
110.233
103.416
157.431
152.522
147.187
141.499
135.526
129.332
122.97
116.488
109.924
103.314
155.752
151
145.85
140.358
134.582
128.578
122.397
116.087
109.686
103.235
154.648
149.997
144.964
139.598
133.95
128.072
122.012
115.816
109.525
103.182
154.102
149.499
144.523
139.218
133.633
127.817
121.819
115.681
109.445
103.16
183.329
173.581
164.13
155.033
146.21
137.586
129.105
120.724
112.409
104.132
176.509
168.714
160.551
152.327
144.142
136.017
127.951
119.931
111.945
103.979
170.908
164.266
157.083
149.633
142.058
134.43
126.781
119.128
111.475
103.824
166.353
160.422
153.947
147.123
140.082
132.909
125.655
118.352
111.021
103.675
162.665
157.202
151.235
144.899
138.301
131.522
124.62
117.636
110.6
103.536
159.716
154.578
148.979
143.015
136.77
130.318
123.714
117.006
110.229
103.413
157.428
152.519
147.185
141.496
135.523
129.328
122.966
116.483
109.92
103.311
155.749
150.998
145.848
140.355
134.579
128.574
122.393
116.082
109.681
103.232
154.646
149.995
144.961
139.595
133.946
128.068
122.008
115.811
109.519
103.178
154.099
149.497
144.52
139.215
133.63
127.814
121.814
115.675
109.438
103.154
183.329
173.581
164.13
155.033
146.21
137.586
129.106
120.724
112.409
104.132
176.509
168.714
160.551
152.327
144.142
136.017
127.951
119.931
111.945
103.979
170.908
164.266
157.083
149.633
142.058
134.43
126.781
119.128
111.475
103.824
166.354
160.422
153.947
147.123
140.082
132.909
125.655
118.352
111.021
103.675
162.665
157.202
151.235
144.899
138.301
131.522
124.62
117.636
110.6
103.536
159.717
154.578
148.979
143.015
136.77
130.318
123.714
117.006
110.229
103.413
157.429
152.519
147.185
141.496
135.523
129.328
122.966
116.483
109.92
103.311
155.749
150.998
145.848
140.355
134.579
128.574
122.393
116.082
109.681
103.232
154.646
149.995
144.961
139.595
133.946
128.068
122.008
115.811
109.519
103.178
154.1
149.497
144.52
139.215
133.63
127.814
121.814
115.675
109.438
103.154
183.332
173.585
164.134
155.037
146.214
137.59
129.109
120.727
112.412
104.133
176.513
168.718
160.555
152.331
144.145
136.021
127.954
119.934
111.948
103.981
170.911
164.269
157.087
149.637
142.062
134.433
126.785
119.131
111.478
103.826
166.356
160.425
153.95
147.126
140.086
132.912
125.658
118.355
111.024
103.676
162.667
157.205
151.238
144.902
138.304
131.525
124.623
117.639
110.603
103.538
159.719
154.581
148.982
143.017
136.773
130.321
123.718
117.01
110.233
103.416
157.431
152.522
147.187
141.499
135.526
129.332
122.97
116.488
109.924
103.314
155.752
151
145.85
140.358
134.582
128.578
122.398
116.087
109.686
103.235
154.649
149.997
144.964
139.598
133.95
128.072
122.012
115.817
109.525
103.182
154.102
149.499
144.523
139.218
133.633
127.818
121.819
115.681
109.445
103.16
192.323
195.168
196.357
196.992
197.39
197.66
197.848
197.976
198.056
198.095
198.095
198.057
197.977
197.85
197.662
197.393
196.995
196.359
195.169
192.324
183.134
187.174
189.638
191.23
192.315
193.078
193.619
193.991
194.225
194.338
194.339
194.226
193.993
193.622
193.083
192.32
191.235
189.643
187.177
183.136
176.567
180.796
183.833
186.016
187.603
188.763
189.602
190.187
190.558
190.739
190.74
190.561
190.191
189.608
188.769
187.61
186.024
183.84
180.803
176.572
171.494
175.675
178.947
181.465
183.386
184.837
185.911
186.669
187.155
187.392
187.394
187.159
186.675
185.919
184.847
183.397
181.477
178.96
175.687
171.504
167.468
171.551
174.905
177.601
179.732
181.385
182.631
183.523
184.098
184.381
184.383
184.103
183.531
182.642
181.399
179.748
177.619
174.924
171.57
167.487
164.279
168.26
171.628
174.415
176.672
178.458
179.825
180.814
181.457
181.775
181.777
181.464
180.825
179.84
178.477
176.695
174.44
171.656
168.289
164.308
161.812
165.707
169.061
171.889
174.219
176.089
177.537
178.594
179.285
179.628
179.631
179.294
178.608
177.557
176.114
174.248
171.922
169.098
165.746
161.853
160.004
163.83
167.163
170.007
172.377
174.299
175.798
176.9
177.623
177.983
177.987
177.634
176.917
175.822
174.329
172.413
170.048
167.209
163.88
160.056
158.815
162.595
165.91
168.758
171.149
173.099
174.628
175.757
176.5
176.871
176.875
176.512
175.777
174.656
173.134
171.19
168.806
165.964
162.654
158.877
158.225
161.982
165.286
168.135
170.534
172.497
174.04
175.181
175.934
176.31
176.314
175.947
175.203
174.07
172.535
170.58
168.188
165.345
162.046
158.293
192.326
195.17
196.358
196.994
197.392
197.661
197.849
197.976
198.056
198.095
198.095
198.056
197.977
197.849
197.661
197.392
196.993
196.357
195.168
192.322
183.137
187.177
189.641
191.232
192.317
193.08
193.62
193.991
194.225
194.338
194.339
194.226
193.993
193.621
193.081
192.318
191.233
189.64
187.175
183.133
176.57
180.799
183.836
186.018
187.605
188.764
189.603
190.188
190.559
190.739
190.74
190.56
190.19
189.606
188.768
187.608
186.022
183.838
180.8
176.569
171.497
175.678
178.95
181.467
183.388
184.839
185.912
186.67
187.155
187.392
187.393
187.158
186.674
185.918
184.846
183.395
181.475
178.957
175.685
171.502
167.471
171.554
174.907
177.603
179.734
181.387
182.632
183.523
184.099
184.381
184.383
184.103
183.53
182.641
181.398
179.747
177.617
174.921
171.568
167.484
164.282
168.263
171.631
174.417
176.674
178.46
179.826
180.815
181.457
181.775
181.777
181.463
180.824
179.839
178.476
176.693
174.438
171.654
168.287
164.305
161.815
165.71
169.064
171.891
174.221
176.091
177.538
178.595
179.286
179.628
179.631
179.293
178.607
177.556
176.113
174.246
171.92
169.096
165.744
161.851
160.007
163.833
167.166
170.009
172.379
174.3
175.799
176.9
177.624
177.983
177.987
177.633
176.916
175.821
174.328
172.412
170.046
167.207
163.878
160.054
158.817
162.598
165.912
168.76
171.15
173.1
174.629
175.757
176.501
176.871
176.875
176.512
175.776
174.655
173.132
171.189
168.804
165.962
162.652
158.875
158.227
161.984
165.289
168.137
170.536
172.498
174.041
175.182
175.935
176.31
176.314
175.947
175.202
174.069
172.534
170.578
168.186
165.344
162.044
158.291
192.326
195.17
196.358
196.994
197.392
197.661
197.849
197.976
198.056
198.095
198.095
198.056
197.977
197.849
197.661
197.392
196.993
196.357
195.168
192.322
183.137
187.177
189.641
191.232
192.317
193.08
193.62
193.991
194.225
194.338
194.339
194.226
193.993
193.621
193.081
192.318
191.233
189.64
187.175
183.133
176.57
180.799
183.836
186.018
187.605
188.764
189.603
190.188
190.559
190.739
190.74
190.56
190.19
189.607
188.768
187.608
186.022
183.838
180.8
176.569
171.497
175.678
178.95
181.467
183.388
184.839
185.912
186.67
187.155
187.392
187.393
187.158
186.674
185.918
184.846
183.395
181.475
178.957
175.685
171.502
167.471
171.554
174.907
177.603
179.734
181.387
182.632
183.523
184.099
184.381
184.383
184.103
183.53
182.641
181.398
179.747
177.617
174.921
171.568
167.484
164.282
168.263
171.631
174.417
176.674
178.46
179.826
180.815
181.457
181.775
181.777
181.463
180.824
179.839
178.476
176.693
174.438
171.654
168.287
164.305
161.815
165.71
169.064
171.891
174.221
176.091
177.538
178.595
179.286
179.628
179.631
179.293
178.607
177.556
176.113
174.247
171.92
169.096
165.744
161.851
160.007
163.833
167.166
170.009
172.379
174.3
175.799
176.901
177.624
177.984
177.987
177.633
176.916
175.821
174.328
172.412
170.046
167.208
163.878
160.054
158.818
162.598
165.912
168.76
171.15
173.1
174.629
175.757
176.501
176.871
176.875
176.512
175.776
174.655
173.132
171.189
168.804
165.962
162.652
158.875
158.227
161.984
165.289
168.137
170.536
172.498
174.041
175.182
175.935
176.31
176.314
175.947
175.202
174.069
172.534
170.578
168.186
165.344
162.044
158.291
192.323
195.168
196.357
196.992
197.39
197.66
197.848
197.976
198.056
198.095
198.095
198.057
197.977
197.85
197.662
197.393
196.995
196.359
195.169
192.324
183.134
187.174
189.638
191.23
192.315
193.078
193.619
193.991
194.225
194.338
194.339
194.226
193.993
193.622
193.083
192.32
191.235
189.643
187.177
183.135
176.567
180.796
183.833
186.016
187.603
188.763
189.602
190.187
190.558
190.739
190.74
190.561
190.191
189.608
188.769
187.61
186.024
183.84
180.803
176.572
171.494
175.675
178.947
181.465
183.386
184.837
185.911
186.669
187.155
187.392
187.394
187.159
186.675
185.919
184.847
183.397
181.477
178.96
175.687
171.504
167.468
171.551
174.904
177.601
179.732
181.385
182.631
183.523
184.098
184.381
184.383
184.103
183.531
182.642
181.399
179.748
177.619
174.923
171.57
167.487
164.279
168.26
171.628
174.414
176.672
178.458
179.825
180.814
181.457
181.775
181.777
181.464
180.825
179.84
178.477
176.694
174.44
171.656
168.289
164.307
161.812
165.707
169.061
171.889
174.219
176.09
177.537
178.594
179.285
179.628
179.631
179.294
178.608
177.557
176.114
174.248
171.922
169.098
165.746
161.853
160.004
163.83
167.164
170.007
172.377
174.299
175.798
176.9
177.624
177.984
177.987
177.634
176.917
175.822
174.329
172.413
170.048
167.21
163.88
160.056
158.815
162.595
165.91
168.758
171.149
173.099
174.628
175.757
176.5
176.871
176.875
176.512
175.777
174.656
173.134
171.191
168.806
165.964
162.654
158.877
158.225
161.982
165.286
168.135
170.534
172.497
174.041
175.181
175.934
176.31
176.315
175.947
175.203
174.07
172.535
170.58
168.188
165.346
162.046
158.293
104.134
112.415
120.733
129.117
137.6
146.225
155.047
164.143
173.591
183.334
103.981
111.95
119.939
127.962
136.03
144.155
152.34
160.562
168.722
176.514
103.826
111.48
119.135
126.79
134.44
142.068
149.642
157.09
164.27
170.909
103.676
111.024
118.356
125.66
132.914
140.087
147.125
153.947
160.419
166.348
103.536
110.601
117.637
124.62
131.521
138.297
144.892
151.226
157.19
162.65
103.413
110.227
117.002
123.708
130.307
136.756
142.996
148.958
154.554
159.691
103.31
109.915
116.474
122.951
129.307
135.496
141.465
147.15
152.482
157.39
103.229
109.674
116.065
122.368
128.541
134.538
140.31
145.799
150.947
155.698
103.175
109.509
115.786
121.971
128.022
133.894
139.537
144.9
149.932
154.584
103.143
109.426
115.645
121.771
127.761