/*--------------------------------*- C++ -*----------------------------------*\
| =========                 |                                                 |
| \\      /  F ield         | OpenFOAM: The Open Source CFD Toolbox           |
|  \\    /   O peration     | Version:  2.4.0                                 |
|   \\  /    A nd           | Web:      www.OpenFOAM.org                      |
|    \\/     M anipulation  |                                                 |
\*---------------------------------------------------------------------------*/
FoamFile
{
    version     2.0;
    format      ascii;
    class       surfaceScalarField;
    location    "4.9";
    object      phi;
}
// * * * * * * * * * * * * * * * * * * * * * * * * * * * * * * * * * * * * * //

dimensions      [0 3 -1 0 0 0 0];

internalField   nonuniform List<scalar> 
12720
(
1.55205e-07
-1.56119e-07
-6.56923e-11
-5.40144e-07
6.93629e-07
1.71915e-09
-2.06851e-06
1.52578e-06
2.58562e-09
-4.18268e-06
2.11085e-06
3.32329e-09
-6.64604e-06
2.45959e-06
3.76424e-09
-9.26353e-06
2.61354e-06
3.94699e-09
-1.18746e-05
2.60709e-06
3.9595e-09
-1.434e-05
2.46165e-06
3.80463e-09
-1.65384e-05
2.19489e-06
3.45597e-09
1.83565e-06
2.88986e-09
-1.83769e-05
-7.25591e-07
5.70937e-07
-1.46557e-09
-3.29763e-06
3.26527e-06
3.98187e-10
-7.50564e-06
5.7353e-06
-1.51063e-09
-1.29249e-05
7.53249e-06
-2.39374e-09
-1.91061e-05
8.64365e-06
-2.83666e-09
-2.56294e-05
9.13998e-06
-3.11507e-09
-3.21143e-05
9.09504e-06
-3.12449e-09
-3.82174e-05
8.56766e-06
-2.90465e-09
-4.36429e-05
7.62294e-06
-2.54741e-09
6.36945e-06
-2.19769e-09
-4.81745e-05
-1.69483e-06
2.26828e-06
-2.5139e-09
-6.1396e-06
7.70777e-06
2.26356e-09
-1.27384e-05
1.2334e-05
1.02696e-10
-2.08946e-05
1.56888e-05
-9.57271e-11
-3.00204e-05
1.77694e-05
1.17067e-10
-3.95565e-05
1.86759e-05
1.09713e-10
-4.89738e-05
1.85122e-05
1.21923e-10
-5.77778e-05
1.73715e-05
1.81615e-10
-6.55329e-05
1.53777e-05
2.50725e-10
1.27549e-05
1.54259e-10
-7.19185e-05
-2.49202e-06
4.76395e-06
-3.65645e-09
-8.52383e-06
1.37364e-05
3.19026e-09
-1.71086e-05
2.09187e-05
-2.07954e-11
-2.74602e-05
2.60407e-05
-2.89486e-10
-3.88765e-05
2.91856e-05
8.05239e-11
-5.07005e-05
3.04998e-05
1.23801e-10
-6.22971e-05
3.01086e-05
1.65628e-10
-7.30492e-05
2.81234e-05
2.73197e-10
-8.23888e-05
2.47168e-05
4.75032e-10
2.02438e-05
4.19088e-10
-8.98781e-05
-3.05646e-06
7.82489e-06
-4.47642e-09
-1.02496e-05
2.09258e-05
3.75047e-09
-2.02881e-05
3.09576e-05
-4.40539e-10
-3.22268e-05
3.79804e-05
-9.37936e-10
-4.52737e-05
4.22331e-05
-5.69609e-10
-5.87039e-05
4.39305e-05
-5.43116e-10
-7.18043e-05
4.32095e-05
-4.84769e-10
-8.38503e-05
4.01697e-05
-2.863e-10
-9.41269e-05
3.49931e-05
2.97572e-10
2.81421e-05
5.87987e-10
-0.000102026
-3.3635e-06
1.11933e-05
-4.90004e-09
-1.12099e-05
2.8768e-05
4.1467e-09
-2.20733e-05
4.18216e-05
-5.77361e-10
-3.491e-05
5.08182e-05
-1.19353e-09
-4.8874e-05
5.61979e-05
-8.29427e-10
-6.32036e-05
5.82609e-05
-8.22601e-10
-7.71375e-05
5.71442e-05
-8.0337e-10
-8.98607e-05
5.28935e-05
-6.46664e-10
-0.000100489
4.56211e-05
5.15152e-10
3.57871e-05
1.64052e-09
-0.000108136
-3.40369e-06
1.46015e-05
-4.52308e-09
-1.13534e-05
3.67135e-05
4.24365e-09
-2.2349e-05
5.28179e-05
-6.1946e-10
-3.53188e-05
6.37893e-05
-1.30652e-09
-4.9403e-05
7.02832e-05
-9.96348e-10
-6.3838e-05
7.26969e-05
-1.03146e-09
-7.78545e-05
7.11619e-05
-1.14075e-09
-9.05872e-05
6.56276e-05
-1.36555e-09
-0.000100986
5.60192e-05
6.77141e-10
4.25205e-05
4.17095e-09
-0.000107724
-3.18329e-06
1.77893e-05
-4.52874e-09
-1.0686e-05
4.4212e-05
4.08619e-09
-2.10997e-05
6.32322e-05
-5.63815e-10
-3.33855e-05
7.60763e-05
-1.26913e-09
-4.66995e-05
8.35983e-05
-1.03764e-09
-6.03007e-05
8.62991e-05
-1.05329e-09
-7.3455e-05
8.43174e-05
-1.1914e-09
-8.53194e-05
7.74942e-05
-2.10944e-09
-9.47649e-05
6.54627e-05
2.00375e-09
4.75873e-05
1.452e-08
-9.98462e-05
-2.73357e-06
2.05267e-05
-3.75908e-09
-9.29273e-06
5.07675e-05
3.70932e-09
-1.84553e-05
7.23951e-05
-3.9073e-10
-2.92496e-05
8.68717e-05
-1.06207e-09
-4.08462e-05
9.51958e-05
-9.72819e-10
-5.25098e-05
9.79637e-05
-1.05045e-09
-6.3541e-05
9.535e-05
-1.40748e-09
-7.31722e-05
8.71303e-05
-4.92218e-09
-8.04155e-05
7.27076e-05
-1.46781e-09
4.98894e-05
3.25954e-08
-8.27502e-05
-2.11906e-06
-2.72508e-09
2.26484e-05
-7.3637e-06
3.20562e-09
5.60089e-05
-1.47499e-05
-7.40365e-11
7.97815e-05
-2.33777e-05
-6.07019e-10
9.55001e-05
-3.23872e-05
-6.41827e-10
0.000104206
-4.09463e-05
-9.3542e-10
0.000106524
-4.82306e-05
-1.98022e-09
0.000102636
-5.33186e-05
-1.22378e-08
9.22305e-05
-5.50979e-05
-2.86324e-08
7.45155e-05
9.84866e-09
-5.2396e-05
4.71777e-05
1.56853e-07
-1.56906e-07
-1.34273e-11
-5.40663e-07
6.99241e-07
-7.86559e-12
-2.0692e-06
1.53113e-06
-6.8517e-12
-4.18279e-06
2.11691e-06
-6.22519e-12
-6.64588e-06
2.46686e-06
-5.04097e-12
-9.26338e-06
2.62144e-06
-4.02126e-12
-1.18745e-05
2.61512e-06
-3.23025e-12
-1.43402e-05
2.46944e-06
-2.61601e-12
-1.65388e-05
2.20206e-06
-2.1212e-12
1.84166e-06
-1.72496e-12
-1.83775e-05
-7.30189e-07
5.71823e-07
-7.90794e-12
-3.3032e-06
3.27265e-06
-6.51577e-12
-7.5106e-06
5.73703e-06
-7.16636e-12
-1.29283e-05
7.53224e-06
-6.73025e-12
-1.91078e-05
8.64348e-06
-5.56668e-12
-2.56296e-05
9.14012e-06
-4.49116e-12
-3.21132e-05
9.0956e-06
-3.61099e-12
-3.82154e-05
8.56879e-06
-2.91217e-12
-4.36406e-05
7.62468e-06
-2.35387e-12
6.37106e-06
-1.90901e-12
-4.81722e-05
-1.70021e-06
2.26952e-06
-6.60982e-12
-6.14032e-06
7.71503e-06
-6.96407e-12
-1.27392e-05
1.2336e-05
-6.98682e-12
-2.08956e-05
1.56885e-05
-6.2077e-12
-3.0021e-05
1.7769e-05
-5.24531e-12
-3.95565e-05
1.86758e-05
-4.32815e-12
-4.89734e-05
1.85126e-05
-3.53546e-12
-5.77773e-05
1.73728e-05
-2.88284e-12
-6.55325e-05
1.53802e-05
-2.3477e-12
1.27572e-05
-1.91112e-12
-7.19185e-05
-2.49885e-06
4.76472e-06
-5.8248e-12
-8.52267e-06
1.3742e-05
-6.38512e-12
-1.71073e-05
2.09206e-05
-5.97007e-12
-2.746e-05
2.60409e-05
-5.31791e-12
-3.88765e-05
2.91856e-05
-4.61642e-12
-5.07005e-05
3.04999e-05
-3.8992e-12
-6.2297e-05
3.01093e-05
-3.23924e-12
-7.30491e-05
2.81252e-05
-2.67363e-12
-8.23893e-05
2.47209e-05
-2.19673e-12
2.02478e-05
-1.79876e-12
-8.98795e-05
-3.06499e-06
7.82524e-06
-4.57008e-12
-1.02482e-05
2.0929e-05
-5.16532e-12
-2.02864e-05
3.09584e-05
-4.81994e-12
-3.22264e-05
3.79799e-05
-4.3762e-12
-4.52737e-05
4.22323e-05
-3.89824e-12
-5.8704e-05
4.39297e-05
-3.36225e-12
-7.18043e-05
4.3209e-05
-2.83657e-12
-8.38499e-05
4.01705e-05
-2.37248e-12
-9.41274e-05
3.49987e-05
-1.97709e-12
2.81494e-05
-1.64532e-12
-0.000102028
-3.37287e-06
1.11932e-05
-3.56519e-12
-1.12083e-05
2.87685e-05
-4.06574e-12
-2.20716e-05
4.18212e-05
-3.7994e-12
-3.49099e-05
5.0817e-05
-3.53068e-12
-4.88745e-05
5.61962e-05
-3.23212e-12
-6.32045e-05
5.82589e-05
-2.84586e-12
-7.71382e-05
5.71419e-05
-2.43843e-12
-8.98603e-05
5.2892e-05
-2.07348e-12
-0.000100489
4.56283e-05
-1.76724e-12
3.58018e-05
-1.51385e-12
-0.00010814
-3.41297e-06
1.46017e-05
-3.22465e-12
-1.13518e-05
3.67116e-05
-3.33935e-12
-2.23476e-05
5.28163e-05
-3.04413e-12
-3.53192e-05
6.37874e-05
-2.8448e-12
-4.94046e-05
7.02806e-05
-2.65432e-12
-6.38404e-05
7.26936e-05
-2.37584e-12
-7.78569e-05
7.11573e-05
-2.06308e-12
-9.05874e-05
6.56212e-05
-1.78501e-12
-0.000100985
5.60266e-05
-1.55684e-12
4.2553e-05
-1.35721e-12
-0.000107732
-3.19206e-06
1.77892e-05
-2.53065e-12
-1.06845e-05
4.42081e-05
-2.60147e-12
-2.10986e-05
6.32299e-05
-2.40528e-12
-3.33866e-05
7.60742e-05
-2.2829e-12
-4.67023e-05
8.35952e-05
-2.16633e-12
-6.03048e-05
8.6295e-05
-1.96241e-12
-7.34596e-05
8.43109e-05
-1.72106e-12
-8.53198e-05
7.74792e-05
-1.51742e-12
-9.47524e-05
6.54613e-05
-1.34731e-12
4.76703e-05
-1.14174e-12
-9.98552e-05
-2.74099e-06
2.05264e-05
-1.92178e-12
-9.29139e-06
5.07622e-05
-2.02397e-12
-1.84545e-05
7.23926e-05
-1.90846e-12
-2.92515e-05
8.68701e-05
-1.84392e-12
-4.0851e-05
9.51937e-05
-1.77079e-12
-5.25183e-05
9.79613e-05
-1.61655e-12
-6.35555e-05
9.53467e-05
-1.4386e-12
-7.31921e-05
8.71109e-05
-1.33474e-12
-8.03917e-05
7.26594e-05
-1.25979e-12
5.00073e-05
-1.04492e-12
-8.26961e-05
-2.12447e-06
-1.52648e-12
2.26482e-05
-7.36209e-06
-1.6122e-12
5.6003e-05
-1.47486e-05
-1.53985e-12
7.9779e-05
-2.33786e-05
-1.50908e-12
9.54995e-05
-3.2392e-05
-1.45853e-12
0.000104207
-4.09582e-05
-1.33922e-12
0.000106527
-4.82595e-05
-1.23622e-12
0.000102646
-5.34073e-05
-1.30199e-12
9.22464e-05
-5.52394e-05
-1.46595e-12
7.44629e-05
-1.30904e-12
-5.21669e-05
4.69447e-05
1.56918e-07
-1.56841e-07
-9.17162e-11
-5.40613e-07
6.99284e-07
-1.76186e-09
-2.06917e-06
1.53116e-06
-2.60442e-09
-4.18277e-06
2.11692e-06
-3.33534e-09
-6.64587e-06
2.46687e-06
-3.77261e-09
-9.26337e-06
2.62145e-06
-3.95317e-09
-1.18745e-05
2.61512e-06
-3.96426e-09
-1.43402e-05
2.46945e-06
-3.80844e-09
-1.65388e-05
2.20206e-06
-3.45906e-09
1.84166e-06
-2.89238e-09
-1.83775e-05
-7.30146e-07
5.71873e-07
1.4227e-09
-3.30315e-06
3.2727e-06
-4.22637e-10
-7.51056e-06
5.73706e-06
1.49384e-09
-1.29283e-05
7.53226e-06
2.38161e-09
-1.91077e-05
8.64349e-06
2.82771e-09
-2.56295e-05
9.14012e-06
3.10825e-09
-3.21131e-05
9.0956e-06
3.11917e-09
-3.82154e-05
8.5688e-06
2.90041e-09
-4.36406e-05
7.62469e-06
2.544e-09
6.37106e-06
2.19492e-09
-4.81722e-05
-1.70019e-06
2.26956e-06
2.49503e-09
-6.14028e-06
7.71507e-06
-2.28039e-09
-1.27391e-05
1.2336e-05
-1.16223e-10
-2.08955e-05
1.56886e-05
8.52617e-11
-3.0021e-05
1.7769e-05
-1.25331e-10
-3.95565e-05
1.86758e-05
-1.16325e-10
-4.89734e-05
1.85126e-05
-1.27233e-10
-5.77772e-05
1.73728e-05
-1.85917e-10
-6.55325e-05
1.53802e-05
-2.54229e-10
1.27572e-05
-1.57118e-10
-7.19185e-05
-2.49884e-06
4.76474e-06
3.64459e-09
-8.52265e-06
1.37421e-05
-3.20238e-09
-1.71073e-05
2.09207e-05
1.0398e-11
-2.746e-05
2.60409e-05
2.80918e-10
-3.88765e-05
2.91856e-05
-8.77095e-11
-5.07005e-05
3.04999e-05
-1.29783e-10
-6.2297e-05
3.01093e-05
-1.7055e-10
-7.30491e-05
2.81252e-05
-2.77241e-10
-8.23893e-05
2.47209e-05
-4.78351e-10
2.02478e-05
-4.21807e-10
-8.98795e-05
-3.06498e-06
7.82525e-06
4.46844e-09
-1.02482e-05
2.0929e-05
-3.75913e-09
-2.02864e-05
3.09585e-05
4.32754e-10
-3.22264e-05
3.798e-05
9.31178e-10
-4.52737e-05
4.22323e-05
5.63665e-10
-5.8704e-05
4.39297e-05
5.38022e-10
-7.18043e-05
4.3209e-05
4.80513e-10
-8.38499e-05
4.01705e-05
2.8277e-10
-9.41274e-05
3.49987e-05
-3.005e-10
2.81494e-05
-5.90423e-10
-0.000102028
-3.37287e-06
1.11932e-05
4.8943e-09
-1.12083e-05
2.87686e-05
-4.15312e-09
-2.20716e-05
4.18212e-05
5.71488e-10
-3.49098e-05
5.0817e-05
1.18824e-09
-4.88745e-05
5.61962e-05
8.24597e-10
-6.32045e-05
5.82589e-05
8.18366e-10
-7.71382e-05
5.71419e-05
7.99787e-10
-8.98603e-05
5.2892e-05
6.4366e-10
-0.000100489
4.56283e-05
-5.17696e-10
3.58018e-05
-1.6427e-09
-0.00010814
-3.41297e-06
1.46017e-05
4.51666e-09
-1.13518e-05
3.67116e-05
-4.24853e-09
-2.23475e-05
5.28164e-05
6.14954e-10
-3.53192e-05
6.37874e-05
1.30237e-09
-4.94046e-05
7.02806e-05
9.92464e-10
-6.38403e-05
7.26936e-05
1.028e-09
-7.78569e-05
7.11573e-05
1.13781e-09
-9.05874e-05
6.56212e-05
1.36305e-09
-0.000100985
5.60266e-05
-6.79328e-10
4.2553e-05
-4.17287e-09
-0.000107732
-3.19206e-06
1.77892e-05
4.5252e-09
-1.06845e-05
4.42081e-05
-4.09004e-09
-2.10986e-05
6.32299e-05
5.60305e-10
-3.33866e-05
7.60742e-05
1.26586e-09
-4.67023e-05
8.35952e-05
1.03454e-09
-6.03048e-05
8.6295e-05
1.05052e-09
-7.34596e-05
8.43109e-05
1.18904e-09
-8.53198e-05
7.74792e-05
2.10738e-09
-9.47524e-05
6.54613e-05
-2.00564e-09
4.76703e-05
-1.45217e-08
-9.98552e-05
-2.74099e-06
2.05264e-05
3.7562e-09
-9.29139e-06
5.07622e-05
-3.71237e-09
-1.84545e-05
7.23926e-05
3.87969e-10
-2.92515e-05
8.68701e-05
1.05946e-09
-4.0851e-05
9.51938e-05
9.70337e-10
-5.25183e-05
9.79613e-05
1.04825e-09
-6.35555e-05
9.53467e-05
1.40561e-09
-7.31921e-05
8.71109e-05
4.92044e-09
-8.03917e-05
7.26594e-05
1.466e-09
5.00073e-05
-3.25971e-08
-8.26961e-05
-2.12447e-06
2.72275e-09
2.26482e-05
-7.36208e-06
-3.20803e-09
5.60031e-05
-1.47486e-05
7.18415e-11
7.9779e-05
-2.33786e-05
6.049e-10
9.54995e-05
-3.2392e-05
6.39819e-10
0.000104207
-4.09582e-05
9.33664e-10
0.000106527
-4.82595e-05
1.9787e-09
0.000102646
-5.34073e-05
1.22362e-08
9.22464e-05
-5.52394e-05
2.86303e-08
7.44629e-05
-9.85077e-09
-5.21669e-05
4.69447e-05
1.55615e-07
-1.55708e-07
-5.3995e-07
6.93802e-07
-2.0684e-06
1.52585e-06
-4.18263e-06
2.11088e-06
-6.646e-06
2.4596e-06
-9.2635e-06
2.61355e-06
-1.18746e-05
2.60709e-06
-1.434e-05
2.46165e-06
-1.65384e-05
2.19489e-06
1.83565e-06
-1.83769e-05
-7.25419e-07
5.71132e-07
-3.29747e-06
3.26543e-06
-7.50552e-06
5.73539e-06
-1.29248e-05
7.53255e-06
-1.91061e-05
8.64367e-06
-2.56294e-05
9.14e-06
-3.21142e-05
9.09505e-06
-3.82173e-05
8.56766e-06
-4.36428e-05
7.62294e-06
6.36945e-06
-4.81745e-05
-1.69476e-06
2.26838e-06
-6.1395e-06
7.70789e-06
-1.27383e-05
1.23341e-05
-2.08945e-05
1.56888e-05
-3.00204e-05
1.77694e-05
-3.95564e-05
1.86759e-05
-4.89737e-05
1.85122e-05
-5.77778e-05
1.73715e-05
-6.55328e-05
1.53777e-05
1.27549e-05
-7.19184e-05
-2.49198e-06
4.76401e-06
-8.52378e-06
1.37365e-05
-1.71085e-05
2.09188e-05
-2.74602e-05
2.60408e-05
-3.88765e-05
2.91856e-05
-5.07005e-05
3.04998e-05
-6.22971e-05
3.01086e-05
-7.30492e-05
2.81234e-05
-8.23888e-05
2.47168e-05
2.02438e-05
-8.98781e-05
-3.05645e-06
7.82493e-06
-1.02496e-05
2.09259e-05
-2.0288e-05
3.09577e-05
-3.22267e-05
3.79804e-05
-4.52736e-05
4.22331e-05
-5.87038e-05
4.39305e-05
-7.18042e-05
4.32095e-05
-8.38503e-05
4.01697e-05
-9.41269e-05
3.49932e-05
2.81421e-05
-0.000102026
-3.36349e-06
1.11933e-05
-1.12098e-05
2.87681e-05
-2.20732e-05
4.18216e-05
-3.49099e-05
5.08183e-05
-4.8874e-05
5.6198e-05
-6.32035e-05
5.82609e-05
-7.71374e-05
5.71442e-05
-8.98606e-05
5.28935e-05
-0.000100489
4.56211e-05
3.57871e-05
-0.000108136
-3.40369e-06
1.46015e-05
-1.13534e-05
3.67135e-05
-2.2349e-05
5.28179e-05
-3.53187e-05
6.37893e-05
-4.9403e-05
7.02832e-05
-6.38379e-05
7.26969e-05
-7.78545e-05
7.11619e-05
-9.05872e-05
6.56276e-05
-0.000100986
5.60192e-05
4.25205e-05
-0.000107724
-3.18329e-06
1.77893e-05
-1.0686e-05
4.42121e-05
-2.10997e-05
6.32322e-05
-3.33854e-05
7.60763e-05
-4.66995e-05
8.35983e-05
-6.03007e-05
8.62991e-05
-7.3455e-05
8.43174e-05
-8.53194e-05
7.74942e-05
-9.47649e-05
6.54627e-05
4.75873e-05
-9.98462e-05
-2.73357e-06
2.05267e-05
-9.29273e-06
5.07675e-05
-1.84553e-05
7.23952e-05
-2.92496e-05
8.68717e-05
-4.08462e-05
9.51958e-05
-5.25097e-05
9.79637e-05
-6.3541e-05
9.535e-05
-7.31722e-05
8.71303e-05
-8.04155e-05
7.27076e-05
4.98894e-05
-8.27502e-05
-2.11906e-06
2.26484e-05
-7.3637e-06
5.60089e-05
-1.47499e-05
7.97815e-05
-2.33777e-05
9.55001e-05
-3.23872e-05
0.000104206
-4.09462e-05
0.000106524
-4.82306e-05
0.000102636
-5.33186e-05
9.22305e-05
-5.50979e-05
7.45155e-05
-5.2396e-05
4.71777e-05
-1.98139e-05
1.43482e-06
2.17539e-09
-2.08706e-05
1.05518e-06
1.52376e-09
-2.16099e-05
7.38258e-07
1.01046e-09
-2.2109e-05
4.985e-07
6.39467e-10
-2.24415e-05
3.32112e-07
3.93879e-10
-2.26688e-05
2.26991e-07
2.4599e-10
-2.28387e-05
1.69749e-07
1.69186e-10
-2.2988e-05
1.49138e-07
1.43282e-10
-2.31449e-05
1.56745e-07
1.54602e-10
-2.33312e-05
1.86159e-07
1.94422e-10
-2.35628e-05
2.31355e-07
2.56607e-10
-2.38479e-05
2.84699e-07
3.34679e-10
-2.4183e-05
3.34737e-07
4.1881e-10
-2.45476e-05
3.64077e-07
4.92712e-10
-2.4896e-05
3.47893e-07
5.29394e-10
-2.51507e-05
2.54157e-07
4.85262e-10
-2.51993e-05
4.82964e-08
3.05748e-10
-2.48966e-05
-3.02612e-07
-4.30901e-11
-2.40896e-05
-8.06358e-07
-6.56775e-10
-1.43734e-06
-1.58091e-09
-2.26507e-05
-5.17233e-05
4.98564e-06
-1.94414e-09
-5.43495e-05
3.68301e-06
-1.62373e-09
-5.62074e-05
2.59741e-06
-1.28544e-09
-5.74817e-05
1.7738e-06
-9.83499e-10
-5.83465e-05
1.19763e-06
-7.37117e-10
-5.89467e-05
8.27746e-07
-5.55925e-10
-5.93953e-05
6.18781e-07
-4.39577e-10
-5.97776e-05
5.31862e-07
-3.80711e-10
-6.01573e-05
5.36741e-07
-3.68892e-10
-6.05799e-05
6.09156e-07
-3.91929e-10
-6.10739e-05
7.25837e-07
-4.34939e-10
-6.16471e-05
8.5838e-07
-4.78234e-10
-6.22786e-05
9.6675e-07
-4.94959e-10
-6.29075e-05
9.93377e-07
-4.49524e-10
-6.34189e-05
8.59623e-07
-2.9813e-10
-6.36326e-05
4.67869e-07
5.10115e-12
-6.32988e-05
-2.86028e-07
4.90125e-10
-6.21158e-05
-1.48674e-06
1.14599e-09
-5.97695e-05
-3.15458e-06
1.93169e-09
-5.19478e-06
2.67079e-09
-5.60148e-05
-7.68169e-05
9.88431e-06
-2.39894e-10
-8.03603e-05
7.22687e-06
-4.17932e-10
-8.2815e-05
5.05249e-06
-4.58914e-10
-8.44693e-05
3.42861e-06
-4.36898e-10
-8.55766e-05
2.30528e-06
-3.73958e-10
-8.63359e-05
1.58738e-06
-2.99206e-10
-8.68953e-05
1.17841e-06
-2.31276e-10
-8.7362e-05
9.98676e-07
-1.77435e-10
-8.78123e-05
9.87239e-07
-1.38628e-10
-8.82987e-05
1.09565e-06
-1.12316e-10
-8.88509e-05
1.27811e-06
-9.40245e-11
-8.94724e-05
1.47999e-06
-7.80415e-11
-9.01317e-05
1.62607e-06
-5.75617e-11
-9.0748e-05
1.6097e-06
-2.41686e-11
-9.11744e-05
1.286e-06
3.33459e-11
-9.11812e-05
4.746e-07
1.2441e-10
-9.04481e-05
-1.01943e-06
2.43859e-10
-8.85769e-05
-3.35833e-06
3.83819e-10
-8.51411e-05
-6.59087e-06
5.28062e-10
-1.05466e-05
4.49231e-10
-7.97898e-05
-9.53713e-05
1.53779e-05
-3.82045e-10
-9.91373e-05
1.09935e-05
-6.15597e-10
-0.000101608
7.52398e-06
-6.12241e-10
-0.000103191
5.01198e-06
-5.44869e-10
-0.000104203
3.31811e-06
-4.34274e-10
-0.000104871
2.25497e-06
-3.21903e-10
-0.000105346
1.65351e-06
-2.28465e-10
-0.00010573
1.38356e-06
-1.57569e-10
-0.000106093
1.35041e-06
-1.07085e-10
-0.000106479
1.48182e-06
-7.30196e-11
-0.000106913
1.71184e-06
-5.11759e-11
-0.000107397
1.96356e-06
-3.77288e-11
-0.000107902
2.1315e-06
-2.90615e-11
-0.000108357
2.06481e-06
-1.95077e-11
-0.000108625
1.55433e-06
5.10149e-12
-0.000108481
3.30481e-07
6.04344e-11
-0.000107588
-1.91325e-06
1.2959e-10
-0.000105487
-5.4598e-06
2.59999e-10
-0.000101633
-1.04452e-05
5.09697e-10
-1.66703e-05
4.50132e-10
-9.55095e-05
-0.000107337
2.06904e-05
-1.03725e-09
-0.000110592
1.42489e-05
-1.16357e-09
-0.000112479
9.41287e-06
-9.4428e-10
-0.000113544
6.07771e-06
-7.39013e-10
-0.000114145
3.9188e-06
-5.20964e-10
-0.000114495
2.60571e-06
-3.43014e-10
-0.000114719
1.87764e-06
-2.19474e-10
-0.000114887
1.55147e-06
-1.39568e-10
-0.00011504
1.50347e-06
-9.1462e-11
-0.000115203
1.64532e-06
-6.58658e-11
-0.000115392
1.90065e-06
-5.63111e-11
-0.000115611
2.18256e-06
-5.85072e-11
-0.00011585
2.37089e-06
-6.92896e-11
-0.000116074
2.2888e-06
-8.23672e-11
-0.0001162
1.68019e-06
-7.32756e-11
-0.000116062
1.93067e-07
-7.54641e-12
-0.000115368
-2.60757e-06
6.22165e-11
-0.000113639
-7.18953e-06
2.56256e-10
-0.000110189
-1.38961e-05
8.98163e-10
-2.26456e-05
1.28965e-09
-0.000104215
-0.000112405
2.49617e-05
-2.21112e-09
-0.000114354
1.61998e-05
-1.89024e-09
-0.000115074
1.01344e-05
-1.1872e-09
-0.000115239
6.24358e-06
-7.95572e-10
-0.000115192
3.87194e-06
-4.68524e-10
-0.000115082
2.49597e-06
-2.47622e-10
-0.000114963
1.75883e-06
-1.22953e-10
-0.000114848
1.43619e-06
-5.67418e-11
-0.000114734
1.39009e-06
-2.44087e-11
-0.000114619
1.53043e-06
-1.20686e-11
-0.000114504
1.78508e-06
-1.28393e-11
-0.000114396
2.07437e-06
-2.42711e-11
-0.000114311
2.28603e-06
-4.65299e-11
-0.000114269
2.24681e-06
-7.87081e-11
-0.000114277
1.68868e-06
-9.7844e-11
-0.000114293
2.08687e-07
-5.91506e-11
-0.000114147
-2.75344e-06
-3.21268e-11
-0.000113423
-7.91368e-06
1.41398e-10
-0.000111307
-1.60136e-05
1.54693e-09
-2.74259e-05
3.2779e-09
-0.00010653
-0.000109895
2.71391e-05
-5.87752e-09
-0.000109684
1.59922e-05
-3.88774e-09
-0.000108746
9.19911e-06
-1.80122e-09
-0.00010779
5.28769e-06
-9.39602e-10
-0.00010702
3.10254e-06
-3.99734e-10
-0.000106442
1.91876e-06
-1.24143e-10
-0.000106001
1.3171e-06
-1.57168e-11
-0.000105631
1.06646e-06
1.99554e-11
-0.000105281
1.04024e-06
2.4383e-11
-0.000104915
1.1646e-06
1.44569e-11
-0.000104517
1.38625e-06
-4.10311e-12
-0.000104091
1.64883e-06
-3.07169e-11
-0.000103675
1.87036e-06
-6.67033e-11
-0.000103344
1.91541e-06
-1.15353e-10
-0.00010321
1.55481e-06
-1.52094e-10
-0.000103403
4.02151e-07
-7.72918e-11
-0.000103987
-2.16963e-06
9.35657e-11
-0.000104775
-7.1263e-06
4.67987e-10
-0.000104965
-1.58269e-05
3.74238e-09
-2.97632e-05
9.0087e-09
-0.000102637
-9.84392e-05
2.57421e-05
-9.98046e-09
-9.52614e-05
1.28184e-05
-4.06363e-09
-9.24931e-05
6.43162e-06
-8.29106e-10
-9.05263e-05
3.32118e-06
-3.14814e-10
-8.92203e-05
1.79651e-06
4.03159e-11
-8.83532e-05
1.05156e-06
1.65229e-10
-8.77392e-05
7.02933e-07
1.56446e-10
-8.7244e-05
5.71143e-07
1.2878e-10
-8.67754e-05
5.71465e-07
1.06777e-10
-8.62722e-05
6.61394e-07
9.13245e-11
-8.57006e-05
8.1455e-07
7.86357e-11
-8.50567e-05
1.00484e-06
6.2713e-11
-8.43787e-05
1.19232e-06
3.41464e-11
-8.37672e-05
1.30398e-06
-3.34063e-11
-8.34124e-05
1.20013e-06
-1.3201e-10
-8.36162e-05
6.05955e-07
-4.21079e-11
-8.4756e-05
-1.0299e-06
1.25632e-10
-8.71478e-05
-4.73406e-06
-4.63317e-10
-9.04583e-05
-1.25197e-05
3.30629e-09
-2.80118e-05
1.43872e-08
-9.2224e-05
-7.51742e-05
1.81786e-05
-1.2466e-08
-6.88474e-05
6.486e-06
5.52554e-09
-6.49511e-05
2.52911e-06
6.19302e-09
-6.27049e-05
1.07231e-06
2.64968e-09
-6.14097e-05
4.99923e-07
1.37299e-09
-6.06273e-05
2.68346e-07
8.34518e-10
-6.0102e-05
1.77088e-07
5.26025e-10
-5.96827e-05
1.51491e-07
3.99586e-10
-5.92755e-05
1.63862e-07
3.84553e-10
-5.88182e-05
2.03713e-07
4.32875e-10
-5.82707e-05
2.6652e-07
5.19362e-10
-5.76151e-05
3.48631e-07
6.2217e-10
-5.68669e-05
4.43367e-07
7.03041e-10
-5.60985e-05
5.34963e-07
6.63699e-10
-5.54837e-05
5.84943e-07
3.78612e-10
-5.53817e-05
5.04058e-07
-8.64874e-11
-5.63775e-05
-3.24823e-08
-1.66404e-09
-5.95161e-05
-1.58776e-06
-7.69831e-09
-6.58929e-05
-6.13249e-06
-1.04621e-08
-1.94194e-05
1.55336e-08
-7.45009e-05
-3.41482e-05
-6.92204e-08
-2.76504e-05
-1.1809e-08
-2.51204e-05
-8.64956e-10
-2.40462e-05
-1.89742e-09
-2.35451e-05
-1.23394e-09
-2.32761e-05
-5.81321e-10
-2.30987e-05
-3.30123e-10
-2.2947e-05
-2.34914e-10
-2.27829e-05
-2.08813e-10
-2.2579e-05
-2.299e-10
-2.23122e-05
-2.84356e-10
-2.19632e-05
-3.58656e-10
-2.15194e-05
-4.33601e-10
-2.09839e-05
-4.75411e-10
-2.03986e-05
-3.67499e-10
-1.98948e-05
2.06992e-10
-1.9928e-05
7.72552e-10
-2.15132e-05
-2.56453e-09
-2.76508e-05
5.07899e-09
8.76593e-08
-4.71578e-05
-1.98145e-05
1.43916e-06
-1.408e-12
-2.08711e-05
1.05811e-06
-1.15056e-12
-2.16103e-05
7.40156e-07
-9.39374e-13
-2.21093e-05
4.99666e-07
-7.65853e-13
-2.24417e-05
3.32812e-07
-6.22222e-13
-2.26689e-05
2.27427e-07
-5.03895e-13
-2.28388e-05
1.70066e-07
-4.09005e-13
-2.29881e-05
1.49433e-07
-3.30796e-13
-2.3145e-05
1.57088e-07
-2.69383e-13
-2.33314e-05
1.86599e-07
-2.2385e-13
-2.35631e-05
2.31928e-07
-1.92318e-13
-2.38482e-05
2.85421e-07
-1.70676e-13
-2.41834e-05
3.35603e-07
-1.54648e-13
-2.45479e-05
3.6504e-07
-1.41742e-13
-2.48962e-05
3.48864e-07
-1.3036e-13
-2.51507e-05
2.54993e-07
-1.19916e-13
-2.5199e-05
4.85501e-08
-1.08444e-13
-2.48962e-05
-3.02826e-07
-9.78908e-14
-2.40892e-05
-8.07673e-07
-9.35667e-14
-1.44037e-06
-9.78114e-14
-2.26504e-05
-5.17209e-05
4.98592e-06
-1.55332e-12
-5.43471e-05
3.68268e-06
-1.26634e-12
-5.62052e-05
2.59697e-06
-1.03427e-12
-5.74799e-05
1.7734e-06
-8.47604e-13
-5.83451e-05
1.19734e-06
-6.94003e-13
-5.89458e-05
8.27552e-07
-5.65094e-13
-5.93949e-05
6.1866e-07
-4.65629e-13
-5.97776e-05
5.31779e-07
-3.86952e-13
-6.01575e-05
5.36656e-07
-3.24791e-13
-6.05803e-05
6.09032e-07
-2.77067e-13
-6.10745e-05
7.25635e-07
-2.40275e-13
-6.16476e-05
8.58061e-07
-2.10067e-13
-6.22788e-05
9.66292e-07
-1.82064e-13
-6.2907e-05
9.92788e-07
-1.53756e-13
-6.34174e-05
8.58983e-07
-1.25367e-13
-6.36297e-05
4.67352e-07
-9.90261e-14
-6.32945e-05
-2.86179e-07
-7.6913e-14
-6.21102e-05
-1.48597e-06
-6.06419e-14
-5.97634e-05
-3.15259e-06
-4.68955e-14
-5.19222e-06
-3.5663e-14
-5.60089e-05
-7.68162e-05
9.88343e-06
-1.55575e-12
-8.0359e-05
7.22502e-06
-1.26593e-12
-8.28133e-05
5.05085e-06
-1.03155e-12
-8.44678e-05
3.42739e-06
-8.49646e-13
-8.55753e-05
2.30449e-06
-7.04105e-13
-8.6335e-05
1.58693e-06
-5.75138e-13
-8.68947e-05
1.17818e-06
-4.76927e-13
-8.73617e-05
9.98555e-07
-4.0375e-13
-8.78123e-05
9.87141e-07
-3.46161e-13
-8.82989e-05
1.0955e-06
-3.02072e-13
-8.88511e-05
1.27783e-06
-2.671e-13
-8.94727e-05
1.47952e-06
-2.34358e-13
-9.01318e-05
1.62535e-06
-1.98887e-13
-9.07477e-05
1.60871e-06
-1.61097e-13
-9.11736e-05
1.28485e-06
-1.25136e-13
-9.11797e-05
4.73563e-07
-9.44554e-14
-9.04457e-05
-1.01995e-06
-6.85364e-14
-8.85738e-05
-3.35747e-06
-4.69075e-14
-8.51381e-05
-6.58777e-06
-2.59461e-14
-1.05425e-05
-3.28785e-15
-7.97873e-05
-9.53712e-05
1.53747e-05
-1.4688e-12
-9.91358e-05
1.09891e-05
-1.19306e-12
-0.000101606
7.52065e-06
-9.62137e-13
-0.000103189
5.00974e-06
-7.92207e-13
-0.000104202
3.31677e-06
-6.70615e-13
-0.00010487
2.25428e-06
-5.52395e-13
-0.000105345
1.65321e-06
-4.57682e-13
-0.00010573
1.38344e-06
-3.93652e-13
-0.000106093
1.35035e-06
-3.43812e-13
-0.000106479
1.48172e-06
-3.01677e-13
-0.000106913
1.7116e-06
-2.6312e-13
-0.000107397
1.96309e-06
-2.23428e-13
-0.000107902
2.13071e-06
-1.80588e-13
-0.000108357
2.06364e-06
-1.38283e-13
-0.000108625
1.55287e-06
-1.03149e-13
-0.000108481
3.29102e-07
-7.83251e-14
-0.000107586
-1.91427e-06
-6.24543e-14
-0.000105484
-5.45908e-06
-5.15584e-14
-0.000101631
-1.04407e-05
-3.97931e-14
-1.66641e-05
-2.50464e-14
-9.55089e-05
-0.000107336
2.06817e-05
-1.36952e-12
-0.000110589
1.42401e-05
-1.12878e-12
-0.000112476
9.40744e-06
-8.95099e-13
-0.000113542
6.0745e-06
-7.24153e-13
-0.000114143
3.91712e-06
-6.26855e-13
-0.000114494
2.60496e-06
-5.24239e-13
-0.000114718
1.87737e-06
-4.26937e-13
-0.000114886
1.55142e-06
-3.65682e-13
-0.000115039
1.50348e-06
-3.22412e-13
-0.000115203
1.64527e-06
-2.81439e-13
-0.000115392
1.90044e-06
-2.37364e-13
-0.000115611
2.1821e-06
-1.89732e-13
-0.00011585
2.37005e-06
-1.41831e-13
-0.000116074
2.28746e-06
-1.00753e-13
-0.0001162
1.67836e-06
-7.29988e-14
-0.000116062
1.91391e-07
-5.86449e-14
-0.000115367
-2.6094e-06
-5.14504e-14
-0.000113636
-7.18937e-06
-4.73427e-14
-0.000110187
-1.38894e-05
-4.60116e-14
-2.26345e-05
-4.4209e-14
-0.000104215
-0.000112402
2.49414e-05
-1.31356e-12
-0.000114348
1.61844e-05
-1.14053e-12
-0.000115069
1.01274e-05
-8.98417e-13
-0.000115236
6.24031e-06
-7.06451e-13
-0.00011519
3.87058e-06
-6.25793e-13
-0.000115081
2.49558e-06
-5.45561e-13
-0.000114962
1.75882e-06
-4.36874e-13
-0.000114847
1.43629e-06
-3.58201e-13
-0.000114734
1.39019e-06
-3.09587e-13
-0.000114619
1.53046e-06
-2.68599e-13
-0.000114504
1.78494e-06
-2.23204e-13
-0.000114396
2.07398e-06
-1.73911e-13
-0.000114311
2.28524e-06
-1.27846e-13
-0.000114269
2.24544e-06
-9.24439e-14
-0.000114277
1.68661e-06
-6.88806e-14
-0.000114293
2.06636e-07
-4.67766e-14
-0.000114146
-2.75648e-06
-1.73695e-14
-0.00011342
-7.91505e-06
1.14766e-14
-0.000111304
-1.60035e-05
3.16086e-14
-2.74028e-05
3.84319e-14
-0.000106532
-0.000109888
2.70911e-05
-1.22173e-12
-0.000109673
1.59662e-05
-1.14193e-12
-0.00010874
9.19213e-06
-8.95347e-13
-0.000107786
5.28576e-06
-6.63092e-13
-0.000107018
3.10226e-06
-5.96317e-13
-0.000106442
1.91903e-06
-5.71562e-13
-0.000106001
1.31742e-06
-4.82015e-13
-0.000105631
1.06671e-06
-3.86501e-13
-0.000105281
1.04038e-06
-3.18915e-13
-0.000104915
1.16463e-06
-2.68435e-13
-0.000104516
1.38613e-06
-2.20666e-13
-0.000104091
1.64847e-06
-1.7408e-13
-0.000103675
1.86961e-06
-1.3497e-13
-0.000103344
1.91404e-06
-1.05941e-13
-0.00010321
1.55259e-06
-7.60804e-14
-0.000103403
3.99473e-07
-2.32136e-14
-0.000103986
-2.17376e-06
4.58999e-14
-0.000104771
-7.1295e-06
1.04322e-13
-0.000104961
-1.58095e-05
1.27282e-13
-2.97082e-05
1.33177e-13
-0.000102647
-9.84249e-05
2.56509e-05
-1.0091e-12
-9.5251e-05
1.27883e-05
-1.00346e-12
-9.24898e-05
6.43002e-06
-8.20249e-13
-9.05262e-05
3.32187e-06
-5.27209e-13
-8.9221e-05
1.79714e-06
-4.49302e-13
-8.83539e-05
1.05211e-06
-4.90653e-13
-8.77396e-05
7.03284e-07
-4.67455e-13
-8.72441e-05
5.71335e-07
-3.9334e-13
-8.67752e-05
5.71558e-07
-3.19584e-13
-8.62719e-05
6.61413e-07
-2.58919e-13
-8.57002e-05
8.14488e-07
-2.05962e-13
-8.50563e-05
1.00466e-06
-1.59845e-13
-8.43786e-05
1.19194e-06
-1.22594e-13
-8.37678e-05
1.30322e-06
-9.02246e-14
-8.3414e-05
1.19865e-06
-3.66344e-14
-8.36183e-05
6.03733e-07
4.75098e-14
-8.47598e-05
-1.03209e-06
1.21683e-13
-8.71507e-05
-4.73913e-06
1.00321e-13
-9.04561e-05
-1.25007e-05
-2.45e-15
-2.79101e-05
-2.93217e-14
-9.22399e-05
-7.51557e-05
1.8098e-05
-1.08288e-12
-6.88551e-05
6.49323e-06
-1.11463e-12
-6.496e-05
2.54109e-06
-1.02083e-12
-6.27114e-05
1.07597e-06
-5.95049e-13
-6.14135e-05
5.00644e-07
-3.98211e-13
-6.06292e-05
2.68592e-07
-4.04642e-13
-6.01027e-05
1.77291e-07
-4.11744e-13
-5.96827e-05
1.51744e-07
-3.66532e-13
-5.9275e-05
1.64222e-07
-2.99772e-13
-5.88173e-05
2.04233e-07
-2.35179e-13
-5.82696e-05
2.67266e-07
-1.78792e-13
-5.7614e-05
3.49681e-07
-1.32403e-13
-5.68662e-05
4.44814e-07
-9.41215e-14
-5.60992e-05
5.36926e-07
-5.07515e-14
-5.54876e-05
5.87377e-07
1.99698e-14
-5.53882e-05
5.04306e-07
9.19305e-14
-5.63928e-05
-2.92199e-08
4.54414e-14
-5.95428e-05
-1.5968e-06
-1.6902e-13
-6.59091e-05
-6.14487e-06
-3.99874e-13
-1.93552e-05
-1.62674e-13
-7.44484e-05
-3.41382e-05
-1.20063e-12
-2.76567e-05
-1.06609e-12
-2.51165e-05
-1.18423e-12
-2.40424e-05
-7.85275e-13
-2.3543e-05
-4.925e-13
-2.3275e-05
-3.90249e-13
-2.30981e-05
-3.56824e-13
-2.29466e-05
-3.13303e-13
-2.27825e-05
-2.55253e-13
-2.25785e-05
-1.9741e-13
-2.23116e-05
-1.48959e-13
-2.19622e-05
-1.11931e-13
-2.15178e-05
-7.94823e-14
-2.09814e-05
-3.86565e-14
-2.03944e-05
2.09771e-14
-1.98899e-05
3.89392e-14
-1.99183e-05
-1.0462e-13
-2.15177e-05
-3.99414e-13
-2.76575e-05
-2.34218e-13
1.57521e-13
-4.6925e-05
-1.98145e-05
1.43916e-06
-2.17745e-09
-2.08711e-05
1.05811e-06
-1.52545e-09
-2.16103e-05
7.40156e-07
-1.01183e-09
-2.21093e-05
4.99666e-07
-6.40574e-10
-2.24417e-05
3.32812e-07
-3.94769e-10
-2.26689e-05
2.27427e-07
-2.46699e-10
-2.28388e-05
1.70066e-07
-1.69749e-10
-2.29881e-05
1.49433e-07
-1.4373e-10
-2.3145e-05
1.57088e-07
-1.54958e-10
-2.33314e-05
1.86599e-07
-1.94715e-10
-2.35631e-05
2.31928e-07
-2.56855e-10
-2.38482e-05
2.85421e-07
-3.34898e-10
-2.41834e-05
3.35603e-07
-4.19015e-10
-2.45479e-05
3.6504e-07
-4.92912e-10
-2.48962e-05
3.48864e-07
-5.29593e-10
-2.51507e-05
2.54993e-07
-4.85458e-10
-2.5199e-05
4.85501e-08
-3.05933e-10
-2.48962e-05
-3.02826e-07
4.29177e-11
-2.40892e-05
-8.07673e-07
6.56611e-10
-1.44037e-06
1.58074e-09
-2.26504e-05
-5.17209e-05
4.98592e-06
1.94188e-09
-5.43471e-05
3.68268e-06
1.62188e-09
-5.62052e-05
2.59697e-06
1.28394e-09
-5.74799e-05
1.7734e-06