/*--------------------------------*- C++ -*----------------------------------*\
| =========                 |                                                 |
| \\      /  F ield         | OpenFOAM: The Open Source CFD Toolbox           |
|  \\    /   O peration     | Version:  2.4.0                                 |
|   \\  /    A nd           | Web:      www.OpenFOAM.org                      |
|    \\/     M anipulation  |                                                 |
\*---------------------------------------------------------------------------*/
FoamFile
{
    version     2.0;
    format      ascii;
    class       volVectorField;
    location    "4.9";
    object      U;
}
// * * * * * * * * * * * * * * * * * * * * * * * * * * * * * * * * * * * * * //

dimensions      [0 1 -1 0 0 0 0];

internalField   nonuniform List<vector> 
4800
(
(0.000307145 -0.000311291 -5.70831e-07)
(1.88804e-05 0.000156539 0.000217202)
(-0.00184429 0.000665286 0.000445715)
(-0.00484126 0.00100926 0.000615355)
(-0.00857477 0.00120453 0.000682062)
(-0.0127024 0.0012889 0.000625376)
(-0.0169401 0.00129 0.000438972)
(-0.0210492 0.00122177 0.000123337)
(-0.024819 0.00109158 -0.000315518)
(-0.028072 0.000911549 -0.000864678)
(-0.000182354 -2.10818e-05 -0.000217853)
(-0.00248584 0.00239488 4.70791e-06)
(-0.0080783 0.00475244 0.000174288)
(-0.0159706 0.00645309 0.000275733)
(-0.0254166 0.00749059 0.000290871)
(-0.0357349 0.00795797 0.000203723)
(-0.0462834 0.0079421 7.55175e-06)
(-0.0564799 0.00750339 -0.000300058)
(-0.0658041 0.00669767 -0.000717831)
(-0.0738289 0.00561498 -0.00123926)
(-0.000780122 0.00197245 -0.000451898)
(-0.00522594 0.00810777 -0.000157788)
(-0.0143322 0.0135729 1.27276e-05)
(-0.0264133 0.0175717 9.24719e-05)
(-0.0404639 0.0200618 9.00887e-05)
(-0.0556094 0.0211734 -3.30333e-06)
(-0.0709782 0.0210499 -0.00019203)
(-0.0857435 0.0198148 -0.000479981)
(-0.0991448 0.0176166 -0.000870371)
(-0.110544 0.0147072 -0.00136293)
(-0.00126025 0.00539787 -0.000610986)
(-0.00751506 0.0166408 -0.000230209)
(-0.0195933 0.0259411 -3.55686e-05)
(-0.035097 0.0326535 4.63279e-05)
(-0.0527793 0.0368096 4.62988e-05)
(-0.0716307 0.0385967 -3.84977e-05)
(-0.0906225 0.0382008 -0.000210678)
(-0.108745 0.0357932 -0.000476757)
(-0.125027 0.0316185 -0.000846262)
(-0.138607 0.0261338 -0.00132768)
(-0.0015899 0.0099228 -0.000619906)
(-0.00915352 0.0273887 -0.00016384)
(-0.0234185 0.0410611 5.65334e-05)
(-0.0414173 0.0507333 0.000151078)
(-0.0617054 0.0566393 0.000166779)
(-0.083177 0.0590598 0.000104338)
(-0.104697 0.0582089 -3.97282e-05)
(-0.125112 0.0542695 -0.000277478)
(-0.14325 0.0475465 -0.000628637)
(-0.157956 0.0387042 -0.00111738)
(-0.00176265 0.0151541 -0.000428772)
(-0.0100516 0.039611 8.34243e-05)
(-0.0255573 0.0580348 0.000325177)
(-0.0449739 0.0708317 0.00043974)
(-0.0667334 0.0785335 0.000483771)
(-0.0896772 0.0815477 0.000458794)
(-0.112612 0.0800986 0.000357185)
(-0.134291 0.0743223 0.000157433)
(-0.153357 0.0644957 -0.000176037)
(-0.168236 0.051405 -0.000698128)
(-0.0017785 0.020665 -1.3404e-05)
(-0.0101727 0.0524476 0.000532724)
(-0.0258827 0.0757929 0.000788261)
(-0.0455245 0.0917825 0.000928052)
(-0.0674932 0.101294 0.00101243)
(-0.0906228 0.104884 0.00104165)
(-0.11372 0.102769 0.00100095)
(-0.135518 0.0949625 0.000855461)
(-0.154563 0.0815548 0.000547875)
(-0.168719 0.0631832 -3.83428e-05)
(-0.00164424 0.0260258 0.000626709)
(-0.0095321 0.0650012 0.0011846)
(-0.0243961 0.0931896 0.00144503)
(-0.0430156 0.112304 0.00161364)
(-0.063819 0.123568 0.00174957)
(-0.0856605 0.127698 0.00185124)
(-0.107388 0.124904 0.00189528)
(-0.127815 0.115014 0.00183149)
(-0.14562 0.0977218 0.00158014)
(-0.158071 0.0729045 0.000906864)
(-0.00138036 0.0308345 0.00146923)
(-0.00821955 0.0764122 0.00201948)
(-0.0212771 0.109089 0.00227568)
(-0.0376809 0.131068 0.00247424)
(-0.0559202 0.143863 0.00266974)
(-0.0748418 0.148367 0.00286006)
(-0.093301 0.144828 0.00301405)
(-0.110202 0.132936 0.00306551)
(-0.124748 0.111938 0.00292448)
(-0.134046 0.0801057 0.00215)
(-0.00102665 0.0347633 0.00247148)
(-0.00642193 0.0859574 0.0030002)
(-0.0169416 0.122489 0.00324321)
(-0.0301701 0.146822 0.00346863)
(-0.0446334 0.160641 0.0037252)
(-0.0590562 0.164969 0.00401524)
(-0.0720822 0.16015 0.00430942)
(-0.082316 0.145867 0.00453759)
(-0.0894672 0.121235 0.00466778)
(-0.092527 0.0835504 0.00407381)
(0.00031243 -0.000315524 -6.19818e-08)
(2.64318e-05 0.000150769 1.33252e-06)
(-0.00184039 0.000651318 2.00795e-06)
(-0.00483858 0.000989501 2.58374e-06)
(-0.00857324 0.00118158 2.92838e-06)
(-0.0127018 0.0012644 3.07157e-06)
(-0.0169403 0.00126545 3.08191e-06)
(-0.0210503 0.00119852 2.96173e-06)
(-0.0248213 0.00107075 2.6905e-06)
(-0.0280754 0.000893786 2.24981e-06)
(-0.000174839 -2.80153e-05 -1.14812e-06)
(-0.0024826 0.00239307 3.03642e-07)
(-0.00808573 0.00474127 -1.18105e-06)
(-0.0159753 0.00643673 -1.86696e-06)
(-0.0254189 0.00747238 -2.21039e-06)
(-0.0357356 0.00793891 -2.42608e-06)
(-0.0462825 0.00792316 -2.43275e-06)
(-0.0564779 0.00748563 -2.26125e-06)
(-0.0658021 0.00668196 -1.983e-06)
(-0.0738278 0.0056014 -1.71068e-06)
(-0.000764032 0.00196699 -1.96411e-06)
(-0.00521457 0.00811446 1.75462e-06)
(-0.014339 0.0135761 7.4458e-08)
(-0.0264155 0.017575 -7.9079e-08)
(-0.040464 0.020067 8.72189e-08)
(-0.0556092 0.0211797 8.22046e-08)
(-0.0709773 0.0210566 9.22877e-08)
(-0.0857424 0.0198216 1.39188e-07)
(-0.0991447 0.0176236 1.93325e-07)
(-0.110546 0.0147129 1.18609e-07)
(-0.00123719 0.00539299 -2.85279e-06)
(-0.00749862 0.0166449 2.47645e-06)
(-0.0196024 0.0259402 -2.05873e-08)
(-0.0350989 0.0326509 -2.29031e-07)
(-0.0527783 0.0368074 5.92929e-08)
(-0.0716298 0.0385949 9.34892e-08)
(-0.0906212 0.0381994 1.26505e-07)
(-0.108743 0.0357929 2.10579e-07)
(-0.125027 0.0316203 3.67904e-07)
(-0.138612 0.0261359 3.24676e-07)
(-0.00156222 0.00991962 -3.4903e-06)
(-0.00913483 0.0273911 2.91324e-06)
(-0.0234312 0.0410591 -3.46127e-07)
(-0.0414204 0.0507292 -7.32655e-07)
(-0.0617044 0.0566347 -4.45825e-07)
(-0.083176 0.0590551 -4.24824e-07)
(-0.104694 0.0582044 -3.7906e-07)
(-0.125108 0.0542663 -2.2436e-07)
(-0.143248 0.0475478 2.30045e-07)
(-0.157963 0.0387077 4.5616e-07)
(-0.00173235 0.015153 -3.81944e-06)
(-0.0100318 0.0396123 3.22229e-06)
(-0.0255723 0.0580338 -4.51766e-07)
(-0.044978 0.0708293 -9.3082e-07)
(-0.0667329 0.0785305 -6.47417e-07)
(-0.0896763 0.0815441 -6.41826e-07)
(-0.112609 0.0800945 -6.2657e-07)
(-0.134284 0.0743188 -5.04424e-07)
(-0.153351 0.0645003 3.99429e-07)
(-0.168251 0.051417 1.27489e-06)
(-0.00174772 0.0206662 -3.88851e-06)
(-0.0101529 0.0524479 3.29823e-06)
(-0.0258987 0.0757928 -4.83957e-07)
(-0.0455295 0.0917818 -1.0182e-06)
(-0.0674933 0.101293 -7.76825e-07)
(-0.0906227 0.104882 -8.03931e-07)
(-0.113717 0.102765 -8.88705e-07)
(-0.135505 0.0949578 -1.06334e-06)
(-0.154545 0.0815657 5.25577e-07)
(-0.168749 0.0632218 3.24313e-06)
(-0.00161548 0.0260294 -3.52948e-06)
(-0.00951407 0.0650007 3.1763e-06)
(-0.024412 0.0931906 -4.40212e-07)
(-0.0430211 0.112306 -9.88714e-07)
(-0.0638198 0.123568 -8.0859e-07)
(-0.0856615 0.127697 -8.20607e-07)
(-0.107388 0.124899 -9.27845e-07)
(-0.127792 0.114998 -1.64173e-06)
(-0.145568 0.0977179 1.55755e-06)
(-0.158119 0.072966 1.12926e-05)
(-0.0013554 0.0308397 -2.92951e-06)
(-0.00820418 0.0764112 2.8836e-06)
(-0.0212916 0.109091 -3.05233e-07)
(-0.0376866 0.131072 -8.27349e-07)
(-0.0559223 0.143867 -7.57885e-07)
(-0.0748464 0.14837 -8.1815e-07)
(-0.0933121 0.144826 -1.09571e-06)
(-0.110184 0.132903 -3.82928e-06)
(-0.124642 0.111862 -1.14249e-06)
(-0.134095 0.0800755 2.53513e-05)
(-0.00100668 0.0347694 -2.12379e-06)
(-0.00640956 0.0859562 2.49213e-06)
(-0.016953 0.122493 -5.86556e-08)
(-0.0301743 0.14683 -4.73182e-07)
(-0.0446348 0.160654 -5.00224e-07)
(-0.059063 0.164992 -7.28484e-07)
(-0.0721156 0.160194 -1.54103e-06)
(-0.0823577 0.145932 -9.51923e-06)
(-0.0893773 0.121298 -2.22707e-05)
(-0.0926063 0.08367 7.65915e-06)
(0.0003125 -0.000315453 -8.22805e-08)
(2.65409e-05 0.000150817 -1.379e-06)
(-0.00184032 0.000651342 -2.03481e-06)
(-0.00483854 0.000989511 -2.60299e-06)
(-0.00857322 0.00118159 -2.94243e-06)
(-0.0127018 0.0012644 -3.08224e-06)
(-0.0169403 0.00126545 -3.09028e-06)
(-0.0210503 0.00119852 -2.96845e-06)
(-0.0248212 0.00107075 -2.69594e-06)
(-0.0280754 0.000893785 -2.25425e-06)
(-0.000174791 -2.79056e-05 1.1017e-06)
(-0.00248251 0.00239316 -3.34777e-07)
(-0.00808566 0.00474132 1.15576e-06)
(-0.0159753 0.00643676 1.8472e-06)
(-0.0254189 0.00747239 2.19522e-06)
(-0.0357356 0.00793891 2.41428e-06)
(-0.0462825 0.00792317 2.42343e-06)
(-0.0564778 0.00748563 2.25379e-06)
(-0.0658021 0.00668196 1.97698e-06)
(-0.0738278 0.0056014 1.70579e-06)
(-0.000764008 0.00196705 1.93758e-06)
(-0.00521452 0.00811453 -1.77957e-06)
(-0.014339 0.0135762 -9.58124e-08)
(-0.0264155 0.017575 6.16901e-08)
(-0.0404639 0.020067 -1.01313e-07)
(-0.0556092 0.0211797 -9.36021e-08)
(-0.0709773 0.0210566 -1.01501e-07)
(-0.0857424 0.0198216 -1.46671e-07)
(-0.0991446 0.0176236 -1.99417e-07)
(-0.110546 0.0147129 -1.23573e-07)
(-0.00123717 0.00539303 2.83434e-06)
(-0.0074986 0.016645 -2.4956e-06)
(-0.0196024 0.0259403 3.67425e-09)
(-0.0350989 0.0326509 2.14616e-07)
(-0.0527783 0.0368074 -7.15554e-08)
(-0.0716298 0.0385949 -1.03743e-07)
(-0.0906212 0.0381994 -1.34967e-07)
(-0.108743 0.0357929 -2.17539e-07)
(-0.125027 0.0316203 -3.73616e-07)
(-0.138612 0.0261359 -3.29353e-07)
(-0.00156222 0.00991964 3.47727e-06)
(-0.00913482 0.0273911 -2.92756e-06)
(-0.0234311 0.0410591 3.33101e-07)
(-0.0414204 0.0507292 7.21101e-07)
(-0.0617044 0.0566348 4.3561e-07)
(-0.0831759 0.0590551 4.16061e-07)
(-0.104694 0.0582044 3.71715e-07)
(-0.125108 0.0542663 2.1825e-07)
(-0.143248 0.0475478 -2.35122e-07)
(-0.157963 0.0387077 -4.60382e-07)
(-0.00173235 0.015153 3.80984e-06)
(-0.0100318 0.0396124 -3.23312e-06)
(-0.0255723 0.0580338 4.41783e-07)
(-0.044978 0.0708293 9.2167e-07)
(-0.0667329 0.0785305 6.39046e-07)
(-0.0896763 0.0815442 6.34482e-07)
(-0.112609 0.0800945 6.2033e-07)
(-0.134284 0.0743188 4.99161e-07)
(-0.153351 0.0645003 -4.03898e-07)
(-0.168251 0.051417 -1.27872e-06)
(-0.00174771 0.0206662 3.88081e-06)
(-0.0101529 0.0524479 -3.30679e-06)
(-0.0258987 0.0757929 4.76142e-07)
(-0.0455295 0.0917818 1.01094e-06)
(-0.0674933 0.101293 7.70028e-07)
(-0.0906227 0.104882 7.97874e-07)
(-0.113717 0.102765 8.83509e-07)
(-0.135505 0.0949578 1.0589e-06)
(-0.154545 0.0815657 -5.29454e-07)
(-0.168749 0.0632218 -3.24652e-06)
(-0.00161548 0.0260294 3.52306e-06)
(-0.00951407 0.0650007 -3.18299e-06)
(-0.024412 0.0931906 4.34104e-07)
(-0.0430211 0.112306 9.8295e-07)
(-0.0638198 0.123568 8.03108e-07)
(-0.0856615 0.127697 8.15684e-07)
(-0.107388 0.124899 9.23604e-07)
(-0.127792 0.114998 1.63803e-06)
(-0.145568 0.0977179 -1.56087e-06)
(-0.158119 0.072966 -1.12954e-05)
(-0.0013554 0.0308397 2.9245e-06)
(-0.00820418 0.0764112 -2.88882e-06)
(-0.0212916 0.109091 3.00422e-07)
(-0.0376866 0.131072 8.2273e-07)
(-0.0559223 0.143867 7.53458e-07)
(-0.0748464 0.14837 8.14173e-07)
(-0.0933121 0.144826 1.09226e-06)
(-0.110184 0.132903 3.82609e-06)
(-0.124642 0.111862 1.13936e-06)
(-0.134095 0.0800755 -2.5354e-05)
(-0.00100668 0.0347694 2.11979e-06)
(-0.00640956 0.0859562 -2.49627e-06)
(-0.016953 0.122493 5.4805e-08)
(-0.0301743 0.14683 4.69422e-07)
(-0.0446348 0.160654 4.96612e-07)
(-0.059063 0.164992 7.25248e-07)
(-0.0721156 0.160194 1.53813e-06)
(-0.0823577 0.145932 9.51611e-06)
(-0.0893773 0.121298 2.22669e-05)
(-0.0926063 0.08367 -7.66263e-06)
(0.000307537 -0.000310898 7.22492e-07)
(1.94399e-05 0.000156729 -0.000217153)
(-0.00184404 0.00066536 -0.000445687)
(-0.00484114 0.00100929 -0.000615334)
(-0.00857469 0.00120454 -0.000682047)
(-0.0127024 0.0012889 -0.000625365)
(-0.0169401 0.00129001 -0.000438963)
(-0.0210492 0.00122177 -0.00012333)
(-0.024819 0.00109158 0.000315524)
(-0.028072 0.000911548 0.000864683)
(-0.000182165 -2.05211e-05 0.000217902)
(-0.00248552 0.0023952 -4.67499e-06)
(-0.00807807 0.00475259 -0.000174261)
(-0.0159705 0.00645317 -0.000275712)
(-0.0254164 0.00749062 -0.000290855)
(-0.0357349 0.00795799 -0.00020371)
(-0.0462834 0.00794211 -7.5419e-06)
(-0.0564798 0.00750339 0.000300065)
(-0.0658041 0.00669767 0.000717837)
(-0.0738289 0.00561498 0.00123926)
(-0.000780048 0.0019727 0.000451926)
(-0.00522578 0.00810799 0.000157814)
(-0.014332 0.0135731 -1.2705e-05)
(-0.0264132 0.0175718 -9.24535e-05)
(-0.0404638 0.0200618 -9.00738e-05)
(-0.0556093 0.0211735 3.31538e-06)
(-0.0709781 0.0210499 0.00019204)
(-0.0857435 0.0198148 0.000479989)
(-0.0991447 0.0176166 0.000870378)
(-0.110544 0.0147072 0.00136294)
(-0.00126022 0.00539799 0.000611006)
(-0.00751498 0.016641 0.000230229)
(-0.0195932 0.0259412 3.55865e-05)
(-0.0350969 0.0326536 -4.63127e-05)
(-0.0527792 0.0368096 -4.62858e-05)
(-0.0716306 0.0385967 3.85086e-05)
(-0.0906225 0.0382008 0.000210687)
(-0.108745 0.0357933 0.000476764)
(-0.125027 0.0316185 0.000846268)
(-0.138607 0.0261338 0.00132769)
(-0.00158989 0.00992287 0.00061992)
(-0.00915348 0.0273888 0.000163855)
(-0.0234185 0.0410612 -5.65196e-05)
(-0.0414172 0.0507334 -0.000151066)
(-0.0617053 0.0566393 -0.000166768)
(-0.083177 0.0590598 -0.000104329)
(-0.104697 0.0582089 3.97359e-05)
(-0.125112 0.0542695 0.000277485)
(-0.14325 0.0475465 0.000628643)
(-0.157956 0.0387042 0.00111738)
(-0.00176264 0.0151541 0.000428782)
(-0.0100516 0.0396111 -8.34128e-05)
(-0.0255573 0.0580349 -0.000325166)
(-0.0449738 0.0708318 -0.00043973)
(-0.0667334 0.0785336 -0.000483763)
(-0.0896771 0.0815477 -0.000458786)
(-0.112612 0.0800986 -0.000357178)
(-0.134291 0.0743223 -0.000157428)
(-0.153357 0.0644957 0.000176042)
(-0.168236 0.051405 0.000698132)
(-0.0017785 0.020665 1.34121e-05)
(-0.0101727 0.0524476 -0.000532715)
(-0.0258827 0.075793 -0.000788253)
(-0.0455244 0.0917826 -0.000928044)
(-0.0674932 0.101294 -0.00101242)
(-0.0906227 0.104884 -0.00104164)
(-0.11372 0.102769 -0.00100094)
(-0.135518 0.0949626 -0.000855457)
(-0.154563 0.0815548 -0.000547871)
(-0.168719 0.0631832 3.83464e-05)
(-0.00164424 0.0260258 -0.000626702)
(-0.00953209 0.0650012 -0.0011846)
(-0.0243961 0.0931896 -0.00144502)
(-0.0430156 0.112304 -0.00161363)
(-0.063819 0.123568 -0.00174956)
(-0.0856605 0.127698 -0.00185123)
(-0.107388 0.124904 -0.00189528)
(-0.127815 0.115014 -0.00183149)
(-0.14562 0.0977218 -0.00158013)
(-0.158071 0.0729045 -0.000906861)
(-0.00138036 0.0308345 -0.00146922)
(-0.00821955 0.0764122 -0.00201948)
(-0.0212771 0.109089 -0.00227568)
(-0.0376809 0.131068 -0.00247424)
(-0.0559202 0.143863 -0.00266973)
(-0.0748418 0.148367 -0.00286005)
(-0.0933009 0.144828 -0.00301405)
(-0.110202 0.132936 -0.00306551)
(-0.124748 0.111938 -0.00292448)
(-0.134046 0.0801057 -0.00215)
(-0.00102665 0.0347633 -0.00247148)
(-0.00642193 0.0859575 -0.0030002)
(-0.0169416 0.122489 -0.00324321)
(-0.0301701 0.146822 -0.00346863)
(-0.0446334 0.160641 -0.0037252)
(-0.0590562 0.164969 -0.00401524)
(-0.0720822 0.16015 -0.00430942)
(-0.082316 0.145867 -0.00453759)
(-0.0894672 0.121235 -0.00466778)
(-0.092527 0.0835504 -0.00407381)
(-0.0306951 0.000707191 -0.00150342)
(-0.0326741 0.000512771 -0.00220627)
(-0.0340852 0.000351267 -0.00295026)
(-0.0350487 0.000230573 -0.00371811)
(-0.0356899 0.000148484 -0.00449837)
(-0.0361181 9.83098e-05 -0.00528435)
(-0.0364208 7.28794e-05 -0.00607287)
(-0.0366647 6.64635e-05 -0.0068632)
(-0.036901 7.51439e-05 -0.00765644)
(-0.0371694 9.63169e-05 -0.00845532)
(-0.0375001 0.00012775 -0.00926426)
(-0.0379134 0.000166379 -0.0100895)
(-0.0384147 0.000206939 -0.010939)
(-0.038987 0.000240529 -0.0118226)
(-0.0395797 0.000253399 -0.0127506)
(-0.0400958 0.000226604 -0.0137323)
(-0.0403827 0.000137876 -0.014773)
(-0.0402301 -3.25184e-05 -0.0158705)
(-0.0393893 -0.000296512 -0.0170087)
(-0.0376206 -0.000642144 -0.0181553)
(-0.0802949 0.0044078 -0.00185062)
(-0.0851873 0.0032615 -0.00253209)
(-0.0887043 0.00229951 -0.00326516)
(-0.0911387 0.00156648 -0.00403448)
(-0.0927883 0.00105319 -0.00482824)
(-0.0939114 0.000724995 -0.0056382)
(-0.0947134 0.000542485 -0.00645915)
(-0.0953506 0.000471695 -0.00728845)
(-0.0959402 0.00048649 -0.00812558)
(-0.0965684 0.000566335 -0.00897187)
(-0.0972953 0.000691685 -0.00983037)
(-0.0981519 0.000838171 -0.0107057)
(-0.0991313 0.000970281 -0.011604)
(-0.100173 0.00103543 -0.0125323)
(-0.101141 0.000960129 -0.0134977)
(-0.101803 0.000651386 -0.0145062)
(-0.101813 8.18963e-06 -0.01556)
(-0.100719 -0.00105229 -0.0166545)
(-0.0980037 -0.00255643 -0.0177758)
(-0.0931845 -0.00442058 -0.0188963)
(-0.11956 0.0115005 -0.00194851)
(-0.126223 0.00849123 -0.0026069)
(-0.130904 0.0059899 -0.0033206)
(-0.134083 0.004095 -0.00407492)
(-0.136204 0.00276938 -0.00485785)
(-0.137631 0.0019163 -0.00566053)
(-0.138638 0.00143046 -0.00647702)
(-0.139425 0.00122178 -0.0073038)
(-0.140134 0.00121987 -0.00813946)
(-0.140869 0.00136792 -0.00898436)
(-0.141693 0.00161145 -0.00984042)
(-0.142638 0.00188465 -0.010711)
(-0.143684 0.00209611 -0.0116005)
(-0.144748 0.002116 -0.0125145)
(-0.145655 0.00176863 -0.0134585)
(-0.146108 0.000837383 -0.0144377)
(-0.145669 -0.000907702 -0.0154549)
(-0.143749 -0.00365117 -0.0165085)
(-0.13966 -0.00743605 -0.017589)
(-0.132724 -0.0120489 -0.0186757)
(-0.148953 0.0201403 -0.00191573)
(-0.156199 0.0146355 -0.0025805)
(-0.161012 0.0101737 -0.00330143)
(-0.164112 0.00687032 -0.00406268)
(-0.166084 0.00460121 -0.00485148)
(-0.167357 0.00315759 -0.00565874)
(-0.168223 0.0023351 -0.00647847)
(-0.16888 0.0019684 -0.0073071)
(-0.169457 0.00193268 -0.0081429)
(-0.170044 0.0021297 -0.00898563)
(-0.170694 0.00246745 -0.00983631)
(-0.171433 0.00283733 -0.010697)
(-0.172243 0.0030906 -0.011571)
(-0.173052 0.00301689 -0.0124621)
(-0.173701 0.00232995 -0.0133756)
(-0.173911 0.00067127 -0.014317)
(-0.173237 -0.00235106 -0.0152922)
(-0.171043 -0.00707052 -0.0163053)
(-0.166496 -0.0136018 -0.0173558)
(-0.158668 -0.0216225 -0.0184338)
(-0.168427 0.0290816 -0.00174492)
(-0.175001 0.0205302 -0.00245159)
(-0.17886 0.0138802 -0.00320945)
(-0.18105 0.00914453 -0.00400088)
(-0.182277 0.00599682 -0.00481243)
(-0.182977 0.00404311 -0.00563586)
(-0.183402 0.00294508 -0.00646641)
(-0.183696 0.00245082 -0.00730141)
(-0.183941 0.00238193 -0.00813954)
(-0.184187 0.00260545 -0.00898039)
(-0.184465 0.00300241 -0.00982419)
(-0.184792 0.00343542 -0.0106718)
(-0.185167 0.003716 -0.0115247)
(-0.185561 0.0035724 -0.0123855)
(-0.185888 0.00262293 -0.0132583)
(-0.185968 0.00036622 -0.0141499)
(-0.185454 -0.00378697 -0.0150699)
(-0.183748 -0.0104033 -0.0160311)
(-0.179914 -0.0198051 -0.0170466)
(-0.172646 -0.0316941 -0.0181271)
(-0.177566 0.0370946 -0.00142889)
(-0.182059 0.0249996 -0.00222772)
(-0.183845 0.0161734 -0.00305753)
(-0.184373 0.0102481 -0.00390279)
(-0.184385 0.00650205 -0.00475199)
(-0.184227 0.00426676 -0.00560056)
(-0.184035 0.00304448 -0.00644712)
(-0.183847 0.00250114 -0.00729136)
(-0.183665 0.00241969 -0.00813318)
(-0.183484 0.00265085 -0.00897239)
(-0.183298 0.00306955 -0.00980857)
(-0.183114 0.00353524 -0.0106412)
(-0.182953 0.00385209 -0.0114698)
(-0.182846 0.00372645 -0.0122948)
(-0.182826 0.00272185 -0.0131187)
(-0.182885 0.00021908 -0.0139483)
(-0.18289 -0.0045926 -0.0147971)
(-0.182436 -0.0126284 -0.0156875)
(-0.180603 -0.0246652 -0.0166514)
(-0.175584 -0.0407655 -0.017739)
(-0.175417 0.042679 -0.000988082)
(-0.176171 0.0267083 -0.00194807)
(-0.174818 0.0161492 -0.0028849)
(-0.173169 0.00965453 -0.00380085)
(-0.171767 0.00583806 -0.00469406)
(-0.170706 0.00368954 -0.00556925)
(-0.169916 0.00256521 -0.00643155)
(-0.169289 0.0020831 -0.00728433)
(-0.16873 0.00202036 -0.00812932)
(-0.168168 0.00223894 -0.00896669)
(-0.167558 0.00263345 -0.00979532)
(-0.16689 0.00308969 -0.010613)
(-0.166196 0.00344412 -0.011417)
(-0.165563 0.003436 -0.0122047)
(-0.165145 0.00264471 -0.0129753)
(-0.165154 0.000406274 -0.0137331)
(-0.165789 -0.0042769 -0.014494)
(-0.167068 -0.0127549 -0.0152884)
(-0.168425 -0.0266115 -0.0161707)
(-0.167605 -0.0469939 -0.017264)
(-0.159983 0.0436604 -0.000480333)
(-0.15505 0.0240534 -0.00168571)
(-0.149892 0.0130567 -0.00275181)
(-0.146127 0.00714762 -0.00373867)
(-0.143596 0.00403143 -0.00466726)
(-0.141935 0.0024218 -0.0055596)
(-0.140809 0.00163462 -0.00643033)
(-0.139962 0.00132007 -0.00728695)
(-0.139219 0.0012998 -0.00813264)
(-0.138459 0.00147735 -0.00896758)
(-0.137606 0.0017882 -0.00978966)
(-0.136627 0.00216635 -0.0105948)
(-0.135543 0.0025131 -0.0113774)
(-0.134458 0.00265638 -0.012131)
(-0.133596 0.00228513 -0.0128497)
(-0.13335 0.000833472 -0.0135326)
(-0.134278 -0.00271045 -0.0141948)
(-0.137071 -0.0100329 -0.0148695)
(-0.142217 -0.0238387 -0.015627)
(-0.147773 -0.0477904 -0.0167032)
(-0.126831 0.0375159 -0.000197073)
(-0.114489 0.0161242 -0.001675)
(-0.106265 0.00713158 -0.00278932)
(-0.101669 0.00331821 -0.00378384)
(-0.0990454 0.00165364 -0.00470515)
(-0.097499 0.000917658 -0.005588)
(-0.0965215 0.000602361 -0.00645195)
(-0.0958082 0.000497576 -0.00730458)
(-0.0951743 0.000516345 -0.00814796)
(-0.0945006 0.000621279 -0.00898091)
(-0.0937067 0.000793157 -0.00979963)
(-0.092744 0.00101479 -0.0105978)
(-0.0916043 0.00125767 -0.0113666)
(-0.090346 0.00146217 -0.0120945)
(-0.0891499 0.00149704 -0.0127681)
(-0.0884105 0.00106724 -0.0133763)
(-0.0888156 -0.000509291 -0.0139269)
(-0.0916807 -0.00485551 -0.0144254)
(-0.0994944 -0.0155451 -0.014916)
(-0.113348 -0.0406141 -0.015795)
(-0.0645415 0.0229848 -0.000848626)
(-0.0481554 0.00662881 -0.00231946)
(-0.0414367 0.00202233 -0.00307363)
(-0.0389997 0.000650412 -0.00382221)
(-0.0379408 0.000224424 -0.0045871)
(-0.0373995 9.38253e-05 -0.00536482)
(-0.0370765 5.87404e-05 -0.00615316)
(-0.0368318 5.80568e-05 -0.00694693)
(-0.0365909 7.47897e-05 -0.0077411)
(-0.0363049 0.000105579 -0.00853065)
(-0.0359346 0.000151196 -0.00930934)
(-0.0354454 0.000213539 -0.0100685)
(-0.0348095 0.000294026 -0.0107959)
(-0.0340135 0.000390302 -0.0114737)
(-0.0330804 0.000485847 -0.0120765)
(-0.0321214 0.000518159 -0.0125684)
(-0.0314805 0.000262193 -0.012902)
(-0.0321223 -0.00114003 -0.0130405)
(-0.0377447 -0.00642106 -0.0128628)
(-0.0564776 -0.0257315 -0.0130016)
(-0.0306989 0.000692632 1.6935e-06)
(-0.0326773 0.000501476 1.1861e-06)
(-0.0340875 0.000342919 7.86421e-07)
(-0.0350502 0.000224609 4.97564e-07)
(-0.0356907 0.000144295 3.06367e-07)
(-0.0361186 9.53325e-05 1.91254e-07)
(-0.0364209 7.0633e-05 1.31494e-07)
(-0.0366647 6.45605e-05 1.11372e-07)
(-0.0369008 7.32817e-05 1.20232e-07)
(-0.037169 9.42681e-05 1.51281e-07)
(-0.0374997 0.000125363 1.99741e-07)
(-0.0379128 0.000163596 2.6057e-07)
(-0.0384141 0.00020383 3.26115e-07)
(-0.0389864 0.000237346 3.8369e-07)
(-0.0395793 0.000250639 4.12271e-07)
(-0.0400958 0.000225066 3.77901e-07)
(-0.0403835 0.000138632 2.38074e-07)
(-0.0402322 -2.82718e-05 -3.36492e-08)
(-0.0393931 -0.00028751 -5.11676e-07)
(-0.0376262 -0.000627639 -1.23152e-06)
(-0.0802941 0.00439576 -1.51322e-06)
(-0.0851858 0.00325163 -1.2638e-06)
(-0.0887025 0.00229196 -1.00052e-06)
(-0.0911369 0.00156096 -7.6555e-07)
(-0.0927867 0.00104927 -5.7381e-07)
(-0.0939102 0.000722237 -4.32791e-07)
(-0.0947126 0.000540487 -3.42228e-07)
(-0.0953502 0.000470119 -2.96388e-07)
(-0.09594 0.00048507 -2.87154e-07)
(-0.0965685 0.00056486 -3.0504e-07)
(-0.0972954 0.000690002 -3.38468e-07)
(-0.0981518 0.000836186 -3.72121e-07)
(-0.0991308 0.000967987 -3.85108e-07)
(-0.100172 0.00103295 -3.49748e-07)
(-0.101139 0.000957783 -2.31974e-07)
(-0.1018 0.000649746 3.89447e-09)
(-0.101809 8.07502e-06 3.81153e-07)
(-0.100714 -0.00104988 8.91284e-07)
(-0.0979993 -0.00255042 1.50239e-06)
(-0.093182 -0.0044109 2.07726e-06)
(-0.119563 0.0115025 -1.877e-07)
(-0.126224 0.00849163 -3.25965e-07)
(-0.130904 0.00598987 -3.57671e-07)
(-0.134081 0.00409489 -3.40419e-07)
(-0.136202 0.00276938 -2.91363e-07)
(-0.13763 0.00191648 -2.3313e-07)
(-0.138637 0.00143081 -1.80227e-07)
(-0.139424 0.00122231 -1.383e-07)
(-0.140134 0.00122059 -1.08078e-07)
(-0.140868 0.00136883 -8.75858e-08)
(-0.141693 0.00161252 -7.33363e-08)
(-0.142637 0.00188579 -6.08826e-08)
(-0.143683 0.00209719 -4.49268e-08)
(-0.144747 0.0021168 -1.89232e-08)
(-0.145653 0.00176889 2.58415e-08)
(-0.146106 0.000836842 9.66962e-08)
(-0.145666 -0.000909307 1.89624e-07)
(-0.143747 -0.00365379 2.985e-07)
(-0.13966 -0.00743956 4.10706e-07)
(-0.132727 -0.0120548 3.49413e-07)
(-0.148958 0.0201368 -2.98191e-07)
(-0.1562 0.0146316 -4.79645e-07)
(-0.161011 0.0101712 -4.76866e-07)
(-0.16411 0.00686891 -4.24348e-07)
(-0.166082 0.00460067 -3.3825e-07)
(-0.167355 0.00315759 -2.50765e-07)
(-0.168222 0.0023354 -1.78025e-07)
(-0.168879 0.00196884 -1.22839e-07)
(-0.169456 0.00193317 -8.35406e-08)
(-0.170043 0.0021302 -5.70177e-08)
(-0.170694 0.00246791 -4.00021e-08)
(-0.171433 0.00283769 -2.95144e-08)
(-0.172243 0.00309077 -2.27396e-08)
(-0.173051 0.00301677 -1.52742e-08)
(-0.1737 0.00232949 3.89569e-09)
(-0.173909 0.000670551 4.69522e-08)
(-0.173235 -0.00235187 1.00752e-07)
(-0.17104 -0.00707051 2.02188e-07)
(-0.166496 -0.0135994 3.96405e-07)
(-0.158674 -0.0216197 3.50086e-07)
(-0.168436 0.0290727 -8.07719e-07)
(-0.175001 0.0205226 -9.05801e-07)
(-0.178857 0.0138765 -7.35064e-07)
(-0.181047 0.00914319 -5.75289e-07)
(-0.182275 0.00599678 -4.05639e-07)
(-0.182975 0.00404369 -2.67162e-07)
(-0.183401 0.00294582 -1.71007e-07)
(-0.183695 0.00245153 -1.08816e-07)
(-0.18394 0.00238253 -7.13713e-08)
(-0.184186 0.00260594 -5.14352e-08)
(-0.184465 0.00300276 -4.39722e-08)
(-0.184792 0.00343561 -4.56441e-08)
(-0.185167 0.00371597 -5.39924e-08)
(-0.18556 0.00357211 -6.41303e-08)
(-0.185887 0.0026224 -5.70371e-08)
(-0.185967 0.000365688 -5.90442e-09)
(-0.185451 -0.00378703 4.83586e-08)
(-0.183742 -0.0104012 1.99277e-07)
(-0.179911 -0.0197964 6.98537e-07)
(-0.172655 -0.0316811 1.00302e-06)
(-0.177582 0.0370767 -1.7207e-06)
(-0.182055 0.0249874 -1.47101e-06)
(-0.183838 0.0161698 -9.24009e-07)
(-0.184368 0.0102479 -6.19265e-07)
(-0.184381 0.00650321 -3.64853e-07)
(-0.184225 0.00426824 -1.92987e-07)
(-0.184033 0.0030458 -9.59432e-08)
(-0.183846 0.00250219 -4.43892e-08)
(-0.183665 0.0024205 -1.92077e-08)
(-0.183483 0.00265147 -9.58134e-09)
(-0.183298 0.00307003 -1.01475e-08)
(-0.183114 0.00353558 -1.90009e-08)
(-0.182953 0.00385226 -3.62767e-08)
(-0.182846 0.00372637 -6.12764e-08)
(-0.182825 0.0027215 -7.61427e-08)
(-0.182883 0.000218805 -4.60326e-08)
(-0.182886 -0.00459203 -2.4994e-08)
(-0.182425 -0.0126245 1.09991e-07)
(-0.180592 -0.0246488 1.2032e-06)
(-0.1756 -0.0407378 2.54951e-06)
(-0.17545 0.0426542 -4.57227e-06)
(-0.176156 0.0267002 -3.02465e-06)
(-0.174803 0.0161529 -1.40159e-06)
(-0.173161 0.00965891 -7.3126e-07)
(-0.171762 0.00584163 -3.11334e-07)
(-0.170704 0.00369219 -9.69787e-08)
(-0.169915 0.00256704 -1.25799e-08)
(-0.169289 0.0020844 1.52386e-08)
(-0.16873 0.00202137 1.87334e-08)
(-0.168168 0.00223984 1.10505e-08)
(-0.167558 0.00263434 -3.34943e-09)
(-0.166891 0.00309059 -2.40136e-08)
(-0.166197 0.00344497 -5.19733e-08)
(-0.165563 0.00343658 -8.97917e-08)
(-0.165144 0.00264473 -1.18347e-07)
(-0.165152 0.000405731 -6.01288e-08)
(-0.165783 -0.00427842 7.28167e-08)
(-0.167048 -0.0127574 3.64079e-07)
(-0.168399 -0.0266 2.91084e-06)
(-0.167638 -0.0469582 7.00688e-06)
(-0.160043 0.0436192 -7.76326e-06)
(-0.155018 0.0240637 -3.16138e-06)
(-0.149873 0.0130785 -6.45461e-07)
(-0.146122 0.00715998 -2.45208e-07)
(-0.143594 0.00403774 3.10462e-08)
(-0.141934 0.00242524 1.2815e-07)
(-0.140809 0.0016366 1.21331e-07)
(-0.139963 0.00132144 9.98706e-08)
(-0.139219 0.00130106 8.28155e-08)
(-0.138459 0.00147877 7.08437e-08)
(-0.137606 0.00178994 6.10149e-08)
(-0.136627 0.00216846 4.8665e-08)
(-0.135544 0.00251549 2.6472e-08)
(-0.134459 0.00265861 -2.60475e-08)
(-0.133596 0.00228632 -1.02703e-07)
(-0.13335 0.000832063 -3.27143e-08)
(-0.134277 -0.00271897 9.78108e-08)
(-0.137051 -0.0100554 -3.60274e-07)
(-0.142171 -0.0238521 2.57157e-06)
(-0.147833 -0.0477343 1.119e-05)
(-0.126905 0.0373187 -9.69652e-06)
(-0.114421 0.0160645 4.2968e-06)
(-0.106254 0.00712048 4.81604e-06)
(-0.101678 0.00331099 2.06046e-06)
(-0.0990508 0.00164826 1.06762e-06)
(-0.0975016 0.000914301 6.48784e-07)
(-0.0965229 0.000600152 4.08829e-07)
(-0.0958087 0.000495922 3.10521e-07)
(-0.0951742 0.000514904 2.98882e-07)
(-0.0945002 0.000619819 3.36516e-07)
(-0.0937062 0.000791527 4.03827e-07)
(-0.0927437 0.00101294 4.83823e-07)
(-0.0916046 0.00125569 5.46747e-07)
(-0.0903476 0.00146042 5.16175e-07)
(-0.0891535 0.00149628 2.94488e-07)
(-0.0884194 0.00106845 -6.72005e-08)
(-0.0888348 -0.00050599 -1.29423e-06)
(-0.0916772 -0.00484823 -5.98773e-06)
(-0.0994041 -0.0154806 -8.13753e-06)
(-0.1134 -0.0403574 1.20816e-05)
(-0.0645846 0.0228395 -5.39199e-05)
(-0.0479963 0.0065597 -9.19946e-06)
(-0.0413916 0.00199445 -6.74682e-07)
(-0.0389953 0.00063466 -1.47858e-06)
(-0.0379378 0.000215239 -9.61527e-07)
(-0.0373974 8.86452e-05 -4.53096e-07)
(-0.0370756 5.55757e-05 -2.57405e-07)
(-0.0368315 5.57433e-05 -1.8321e-07)
(-0.0365908 7.26829e-05 -1.62832e-07)
(-0.0363051 0.00010329 -1.79212e-07)
(-0.0359349 0.000148484 -2.21593e-07)
(-0.0354458 0.000210307 -2.79442e-07)
(-0.0348099 0.000290406 -3.37801e-07)
(-0.0340135 0.000386882 -3.70341e-07)
(-0.0330793 0.000483982 -2.86241e-07)
(-0.0321204 0.000520092 1.61267e-07)
(-0.031483 0.000271545 6.01683e-07)
(-0.0320804 -0.00111638 -1.99799e-06)
(-0.0375282 -0.00634675 3.95608e-06)
(-0.0564643 -0.0255362 6.82821e-05)
(-0.0306988 0.000692632 -1.69713e-06)
(-0.0326773 0.000501476 -1.18907e-06)
(-0.0340875 0.000342919 -7.88835e-07)
(-0.0350502 0.000224609 -4.99521e-07)
(-0.0356907 0.000144295 -3.07948e-07)
(-0.0361185 9.53324e-05 -1.92526e-07)
(-0.0364209 7.06329e-05 -1.32518e-07)
(-0.0366647 6.45604e-05 -1.12196e-07)
(-0.0369008 7.32816e-05 -1.20899e-07)
(-0.037169 9.42681e-05 -1.51836e-07)
(-0.0374997 0.000125363 -2.00219e-07)
(-0.0379128 0.000163596 -2.60995e-07)
(-0.0384141 0.00020383 -3.26507e-07)
(-0.0389864 0.000237346 -3.84059e-07)
(-0.0395793 0.000250639 -4.12624e-07)
(-0.0400958 0.000225066 -3.78238e-07)
(-0.0403835 0.000138632 -2.38394e-07)
(-0.0402322 -2.82718e-05 3.33463e-08)
(-0.0393931 -0.00028751 5.11383e-07)
(-0.0376262 -0.000627639 1.23124e-06)
(-0.080294 0.00439576 1.50924e-06)
(-0.0851858 0.00325163 1.26056e-06)
(-0.0887025 0.00229196 9.97878e-07)
(-0.0911369 0.00156096 7.63387e-07)
(-0.0927867 0.00104927 5.7204e-07)
(-0.0939102 0.000722237 4.31352e-07)