/*--------------------------------*- C++ -*----------------------------------*\
| =========                 |                                                 |
| \\      /  F ield         | OpenFOAM: The Open Source CFD Toolbox           |
|  \\    /   O peration     | Version:  2.4.0                                 |
|   \\  /    A nd           | Web:      www.OpenFOAM.org                      |
|    \\/     M anipulation  |                                                 |
\*---------------------------------------------------------------------------*/
FoamFile
{
    version     2.0;
    format      ascii;
    class       volScalarField;
    location    "0.0059";
    object      T;
}
// * * * * * * * * * * * * * * * * * * * * * * * * * * * * * * * * * * * * * //

dimensions      [0 0 0 1 0 0 0];

internalField   nonuniform List<scalar> 
4800
(
100.194
100.581
100.968
101.354
101.737
102.117
102.487
102.844
103.182
103.493
100.581
101.742
102.903
104.063
105.217
106.358
107.475
108.552
109.571
110.511
100.968
102.903
104.841
106.778
108.71
110.624
112.503
114.319
116.039
117.626
101.354
104.063
106.778
109.499
112.22
114.926
117.593
120.181
122.64
124.908
101.738
105.217
108.71
112.22
115.744
119.268
122.762
126.174
129.431
132.438
102.117
106.359
110.625
114.927
119.269
123.64
128.012
132.322
136.471
140.314
102.488
107.476
112.504
117.594
122.763
128.012
133.322
138.632
143.816
148.66
102.845
108.554
114.321
120.184
126.176
132.324
138.633
145.067
151.501
157.641
103.182
109.573
116.042
122.643
129.434
136.474
143.819
151.503
159.481
167.459
103.494
110.514
117.63
124.914
132.444
140.32
148.665
157.644
167.461
178.222
100.194
100.581
100.968
101.354
101.738
102.117
102.487
102.844
103.182
103.493
100.581
101.742
102.903
104.063
105.217
106.358
107.475
108.552
109.571
110.511
100.968
102.903
104.841
106.778
108.71
110.624
112.503
114.319
116.039
117.625
101.354
104.063
106.778
109.499
112.22
114.926
117.593
120.181
122.64
124.908
101.738
105.217
108.71
112.22
115.744
119.268
122.762
126.174
129.431
132.438
102.117
106.359
110.625
114.927
119.269
123.64
128.012
132.322
136.471
140.314
102.488
107.476
112.504
117.595
122.763
128.012
133.322
138.632
143.816
148.66
102.845
108.554
114.321
120.184
126.176
132.324
138.633
145.068
151.502
157.641
103.182
109.573
116.042
122.644
129.435
136.475
143.819
151.503
159.482
167.46
103.494
110.514
117.631
124.914
132.445
140.32
148.665
157.645
167.462
178.222
100.194
100.581
100.968
101.354
101.738
102.117
102.487
102.844
103.182
103.493
100.581
101.742
102.903
104.063
105.217
106.358
107.475
108.552
109.571
110.511
100.968
102.903
104.841
106.778
108.71
110.624
112.503
114.319
116.039
117.625
101.354
104.063
106.778
109.499
112.22
114.926
117.593
120.181
122.64
124.908
101.738
105.217
108.71
112.22
115.744
119.268
122.762
126.174
129.431
132.438
102.117
106.359
110.625
114.927
119.269
123.64
128.012
132.322
136.471
140.314
102.488
107.476
112.504
117.595
122.763
128.012
133.322
138.632
143.816
148.66
102.845
108.554
114.321
120.184
126.176
132.324
138.633
145.068
151.502
157.641
103.182
109.573
116.042
122.644
129.435
136.475
143.819
151.503
159.482
167.46
103.494
110.514
117.631
124.914
132.445
140.32
148.665
157.645
167.462
178.222
100.194
100.581
100.968
101.354
101.737
102.117
102.487
102.844
103.182
103.493
100.581
101.742
102.903
104.063
105.217
106.358
107.475
108.552
109.571
110.511
100.968
102.903
104.841
106.778
108.71
110.624
112.503
114.319
116.039
117.626
101.354
104.063
106.778
109.499
112.22
114.926
117.593
120.181
122.64
124.908
101.738
105.217
108.71
112.22
115.744
119.268
122.762
126.174
129.431
132.438
102.117
106.359
110.625
114.927
119.269
123.64
128.012
132.322
136.471
140.314
102.488
107.476
112.504
117.594
122.763
128.012
133.322
138.632
143.816
148.66
102.845
108.554
114.321
120.184
126.176
132.324
138.633
145.067
151.501
157.641
103.182
109.573
116.042
122.643
129.434
136.474
143.819
151.503
159.481
167.459
103.494
110.514
117.63
124.914
132.444
140.32
148.665
157.644
167.461
178.222
103.773
104.016
104.222
104.391
104.526
104.63
104.707
104.762
104.796
104.813
104.813
104.796
104.761
104.707
104.63
104.526
104.391
104.222
104.016
103.773
111.354
112.086
112.704
113.208
113.609
113.916
114.144
114.304
114.405
114.454
114.454
114.405
114.304
114.144
113.916
113.608
113.208
112.703
112.086
111.353
119.045
120.272
121.298
122.13
122.784
123.282
123.65
123.906
124.067
124.145
124.145
124.067
123.905
123.649
123.281
122.782
122.128
121.297
120.271
119.044
126.928
128.658
130.087
131.229
132.113
132.78
133.266
133.602
133.812
133.913
133.913
133.812
133.601
133.265
132.779
132.112
131.227
130.085
128.657
126.926
135.1
137.347
139.164
140.583
141.661
142.459
143.032
143.423
143.667
143.783
143.783
143.666
143.422
143.03
142.457
141.659
140.581
139.162
137.344
135.098
143.687
146.464
148.638
150.28
151.49
152.363
152.978
153.393
153.648
153.77
153.77
153.648
153.392
152.977
152.361
151.488
150.277
148.635
146.462
143.685
152.869
156.185
158.643
160.408
161.654
162.526
163.125
163.522
163.764
163.878
163.878
163.763
163.521
163.123
162.524
161.652
160.406
158.641
156.183
152.867
162.942
166.765
169.342
171.053
172.194
172.96
173.472
173.806
174.007
174.102
174.101
174.007
173.805
173.471
172.959
172.193
171.051
169.34
166.764
162.941
174.494
178.591
180.906
182.268
183.11
183.649
183.999
184.223
184.357
184.419
184.419
184.356
184.223
183.998
183.648
183.109
182.267
180.905
178.591
174.494
188.984
192.199
193.422
194.004
194.328
194.526
194.651
194.73
194.777
194.799
194.799
194.777
194.73
194.651
194.525
194.328
194.003
193.422
192.199
188.983
103.773
104.016
104.222
104.391
104.526
104.63
104.707
104.761
104.796
104.812
104.812
104.795
104.761
104.707
104.629
104.525
104.391
104.222
104.016
103.772
111.354
112.086
112.704
113.208
113.608
113.916
114.144
114.304
114.405
114.454
114.454
114.404
114.303
114.143
113.915
113.607
113.207
112.702
112.085
111.352
119.045
120.272
121.298
122.129
122.783
123.282
123.649
123.905
124.066
124.144
124.144
124.066
123.904
123.648
123.28
122.781
122.127
121.296
120.269
119.042
126.928
128.658
130.087
131.228
132.113
132.78
133.265
133.601
133.812
133.913
133.912
133.811
133.6
133.264
132.778
132.111
131.225
130.084
128.655
126.925
135.1
137.346
139.164
140.583
141.661
142.459
143.031
143.423
143.666
143.783
143.782
143.665
143.421
143.029
142.456
141.658
140.58
139.16
137.343
135.097
143.687
146.464
148.638
150.279
151.489
152.363
152.977
153.392
153.648
153.769
153.769
153.647
153.391
152.975
152.36
151.486
150.276
148.634
146.46
143.683
152.869
156.185
158.643
160.407
161.654
162.525
163.124
163.521
163.763
163.878
163.877
163.762
163.52
163.122
162.523
161.651
160.404
158.64
156.182
152.865
162.942
166.765
169.342
171.053
172.194
172.96
173.472
173.805
174.006
174.101
174.1
174.006
173.804
173.47
172.958
172.192
171.05
169.339
166.762
162.939
174.494
178.591
180.905
182.268
183.109
183.648
183.998
184.222
184.356
184.418
184.418
184.355
184.221
183.997
183.647
183.108
182.266
180.904
178.589
174.492
188.984
192.199
193.422
194.003
194.328
194.525
194.651
194.73
194.777
194.799
194.799
194.777
194.73
194.65
194.525
194.327
194.003
193.421
192.198
188.982
103.773
104.016
104.222
104.391
104.526
104.63
104.707
104.761
104.796
104.812
104.812
104.795
104.761
104.707
104.629
104.525
104.391
104.222
104.016
103.772
111.354
112.086
112.704
113.208
113.608
113.916
114.144
114.304
114.405
114.454
114.454
114.404
114.303
114.143
113.915
113.607
113.207
112.702
112.085
111.352
119.045
120.272
121.298
122.129
122.783
123.282
123.649
123.905
124.066
124.144
124.144
124.066
123.904
123.648
123.28
122.781
122.127
121.296
120.269
119.042
126.928
128.658
130.087
131.228
132.113
132.78
133.265
133.601
133.812
133.913
133.912
133.811
133.6
133.264
132.778
132.111
131.225
130.084
128.655
126.925
135.1
137.346
139.164
140.583
141.661
142.459
143.031
143.423
143.666
143.783
143.782
143.665
143.421
143.029
142.456
141.658
140.58
139.16
137.343
135.097
143.687
146.464
148.638
150.279
151.489
152.363
152.977
153.392
153.648
153.769
153.769
153.647
153.391
152.975
152.36
151.486
150.276
148.634
146.46
143.683
152.869
156.185
158.643
160.407
161.654
162.525
163.124
163.521
163.763
163.878
163.877
163.762
163.52
163.122
162.523
161.651
160.404
158.64
156.182
152.865
162.942
166.765
169.342
171.053
172.194
172.96
173.472
173.805
174.006
174.101
174.1
174.006
173.804
173.47
172.958
172.192
171.05
169.339
166.762
162.939
174.494
178.591
180.905
182.268
183.109
183.648
183.998
184.222
184.356
184.418
184.418
184.355
184.221
183.997
183.647
183.108
182.266
180.904
178.589
174.492
188.984
192.199
193.422
194.003
194.328
194.525
194.651
194.73
194.777
194.799
194.799
194.777
194.73
194.65
194.525
194.327
194.003
193.421
192.198
188.982
103.773
104.016
104.222
104.391
104.526
104.63
104.707
104.762
104.796
104.813
104.813
104.796
104.761
104.707
104.63
104.526
104.391
104.222
104.016
103.773
111.354
112.086
112.704
113.208
113.609
113.916
114.144
114.304
114.405
114.454
114.454
114.405
114.304
114.144
113.916
113.608
113.208
112.703
112.086
111.353
119.045
120.272
121.298
122.13
122.784
123.282
123.65
123.906
124.067
124.145
124.145
124.067
123.905
123.649
123.281
122.782
122.128
121.297
120.271
119.044
126.928
128.658
130.087
131.229
132.113
132.78
133.266
133.602
133.812
133.913
133.913
133.812
133.601
133.265
132.779
132.112
131.227
130.085
128.657
126.926
135.1
137.347
139.164
140.583
141.661
142.459
143.032
143.423
143.667
143.783
143.783
143.666
143.422
143.03
142.457
141.659
140.581
139.162
137.344
135.098
143.687
146.464
148.638
150.28
151.49
152.363
152.978
153.393
153.648
153.77
153.77
153.648
153.392
152.977
152.361
151.488
150.277
148.635
146.462
143.685
152.869
156.185
158.643
160.408
161.654
162.526
163.125
163.522
163.764
163.878
163.878
163.763
163.521
163.123
162.524
161.652
160.406
158.641
156.183
152.867
162.942
166.765
169.342
171.053
172.194
172.96
173.472
173.806
174.007
174.102
174.101
174.007
173.805
173.471
172.959
172.193
171.051
169.34
166.764
162.941
174.494
178.591
180.906
182.268
183.11
183.649
183.999
184.223
184.357
184.419
184.419
184.356
184.223
183.998
183.648
183.109
182.267
180.905
178.591
174.494
188.984
192.199
193.422
194.004
194.328
194.526
194.651
194.73
194.777
194.799
194.799
194.777
194.73
194.651
194.525
194.328
194.003
193.422
192.199
188.983
103.493
103.182
102.844
102.488
102.117
101.738
101.354
100.968
100.581
100.194
110.51
109.571
108.552
107.475
106.359
105.218
104.064
102.904
101.743
100.581
117.625
116.038
114.319
112.503
110.625
108.711
106.779
104.842
102.904
100.968
124.907
122.639
120.181
117.593
114.927
112.221
109.5
106.779
104.064
101.354
132.437
129.43
126.174
122.762
119.269
115.745
112.221
108.711
105.218
101.738
140.313
136.47
132.322
128.012
123.641
119.27
114.928
110.626
106.36
102.117
148.659
143.816
138.632
133.323
128.014
122.764
117.596
112.505
107.477
102.488
157.641
151.502
145.069
138.635
132.326
126.178
120.186
114.322
108.555
102.845
167.46
159.483
151.505
143.821
136.477
129.437
122.646
116.044
109.574
103.183
178.223
167.463
157.647
148.668
140.323
132.448
124.917
117.633
110.516
103.495
103.492
103.181
102.844
102.487
102.116
101.737
101.353
100.967
100.58
100.193
110.509
109.569
108.551
107.474
106.357
105.216
104.062
102.903
101.741
100.58
117.623
116.037
114.317
112.502
110.623
108.709
106.778
104.84
102.903
100.967
124.905
122.637
120.18
117.592
114.925
112.219
109.498
106.778
104.063
101.353
132.435
129.428
126.172
122.76
119.267
115.743
112.22
108.71
105.217
101.737
140.311
136.468
132.32
128.01
123.639
119.268
114.927
110.625
106.358
102.116
148.657
143.814
138.631
133.321
128.012
122.763
117.594
112.504
107.476
102.487
157.639
151.5
145.067
138.633
132.324
126.177
120.184
114.321
108.553
102.844
167.458
159.481
151.503
143.819
136.475
129.435
122.644
116.042
109.573
103.182
178.221
167.461
157.645
148.666
140.321
132.446
124.915
117.631
110.514
103.494
103.492
103.181
102.844
102.487
102.116
101.737
101.353
100.967
100.58
100.193
110.509
109.569
108.551
107.474
106.357
105.216
104.062
102.903
101.741
100.58
117.623
116.037
114.317
112.502
110.623
108.709
106.778
104.84
102.903
100.967
124.905
122.637
120.18
117.592
114.925
112.219
109.498
106.778
104.063
101.353
132.435
129.428
126.172
122.76
119.267
115.743
112.22
108.71
105.217
101.737
140.311
136.468
132.32
128.01
123.639
119.268
114.927
110.625
106.358
102.116
148.657
143.814
138.631
133.321
128.012
122.763
117.594
112.504
107.476
102.487
157.639
151.5
145.067
138.633
132.324
126.177
120.184
114.321
108.553
102.844
167.458
159.481
151.503
143.819
136.475
129.435
122.644
116.042
109.573
103.182
178.221
167.461
157.645
148.666
140.321
132.446
124.915
117.631
110.514
103.494
103.493
103.182
102.844
102.488
102.117
101.738
101.354
100.968
100.581
100.194
110.51
109.571
108.552
107.475
106.359
105.218
104.064
102.904
101.743
100.581
117.625
116.038
114.319
112.503
110.625
108.711
106.779
104.842
102.904
100.968
124.907
122.639
120.181
117.593
114.927
112.221
109.5
106.779
104.064
101.354
132.437
129.43
126.174
122.762
119.269
115.745
112.221
108.711
105.218
101.738
140.313
136.47
132.322
128.012
123.641
119.27
114.928
110.626
106.36
102.117
148.659
143.816
138.632
133.323
128.014
122.764
117.596
112.505
107.477
102.488
157.641
151.502
145.069
138.635
132.326
126.178
120.186
114.322
108.555
102.845
167.46
159.483
151.505
143.821
136.477
129.437
122.646
116.044
109.574
103.183
178.223
167.463
157.647
148.668
140.323
132.448
124.917
117.633
110.516
103.495
188.986
174.5
162.952
152.881
143.7
135.113
126.94
119.055
111.36
103.775
192.203
178.6
166.779
156.202
146.483
137.365
128.675
120.286
112.095
104.02
193.426
180.918
169.361
158.666
148.663
139.189
130.11
121.317
112.716
104.227
194.01
182.285
171.079
160.44
150.315
140.619
131.26
122.155
113.225
104.397
194.336
183.133
172.229
161.698
151.538
141.709
132.157
122.818
113.631
104.534
194.537
183.68
173.008
162.585
152.429
142.525
132.839
123.329
113.947
104.641
194.666
184.041
173.538
163.206
153.068
143.121
133.347
123.714
114.186
104.722
194.751
184.281
173.895
163.634
153.516
143.546
133.712
123.993
114.36
104.781
194.805
184.436
174.129
163.917
153.817
143.834
133.963
124.186
114.482
104.822
194.837
184.528
174.269
164.088
154.001
144.012
134.118
124.307
114.558
104.848
194.851
184.569
174.332
164.166
154.086
144.096
134.193
124.365
114.595
104.861
194.849
184.563
174.325
164.159
154.08
144.093
134.192
124.365
114.596
104.861
194.83
184.509
174.246
164.066
153.985
144.004
134.117
124.309
114.561
104.85
194.791
184.399
174.083
163.875
153.789
143.823
133.964
124.195
114.49
104.826
194.723
184.211
173.813
163.564
153.475
143.535
133.724
124.015
114.38
104.789
194.612
183.912
173.393
163.096
153.014
143.121
133.383
123.763
114.226
104.737
194.424
183.431
172.755
162.413
152.366
142.555
132.926
123.43
114.023
104.669
194.074
182.636
171.784
161.44
151.484
141.81
132.339
123.008
113.77
104.585
193.311
181.255
170.308
160.084
150.324
140.868
131.614
122.497
113.466
104.484
191.227
178.769
168.114
158.271
148.866
139.727
130.759
121.902
113.116
104.368
188.984
174.498
162.949
152.878
143.698
135.111
126.938
119.053
111.359
103.774
192.201
178.598
166.776
156.2
146.48
137.363
128.673
120.284
112.094
104.019
193.425
180.915
169.358
158.664
148.661
139.187
130.108
121.315
112.714
104.226
194.008
182.282
171.076
160.437
150.312
140.616
131.258
122.153
113.223
104.396
194.334
183.13
172.226
161.695
151.535
141.707
132.154
122.816
113.629
104.533
194.535
183.677
173.005
162.582
152.426
142.522
132.837
123.327
113.945
104.639
194.664
184.038
173.535
163.203
153.065
143.119
133.344
123.711
114.184
104.72
194.749
184.278
173.892
163.631
153.513
143.543
133.709
123.991
114.358
104.78
194.803
184.433
174.126
163.914
153.814
143.832
133.96
124.184
114.48
104.821
194.835
184.525
174.266
164.085
153.998
144.009
134.116
124.304
114.556
104.847
194.849
184.565
174.329
164.163
154.082
144.093
134.19
124.362
114.593
104.86
194.847
184.56
174.321
164.156
154.077
144.09
134.189
124.363
114.594
104.86
194.828
184.506
174.242
164.062
153.981
144.001
134.114
124.307
114.559
104.849
194.788
184.395
174.079
163.872
153.786
143.82
133.962
124.192
114.488
104.825
194.721
184.208
173.809
163.561
153.472
143.532
133.721
124.012
114.378
104.787
194.61
183.908
173.389
163.092
153.01
143.118
133.38
123.76
114.223
104.735
194.421
183.427
172.751
162.409
152.362
142.552
132.923
123.427
114.021
104.668
194.072
182.632
171.78
161.436
151.48
141.807
132.336
123.006
113.768
104.583
193.309
181.251
170.304
160.081
150.32
140.864
131.611
122.494
113.464
104.482
191.224
178.765
168.11
158.267
148.863
139.724
130.756
121.899
113.113
104.367
188.984
174.498
162.949
152.878
143.698
135.111
126.938
119.053
111.359
103.774
192.201
178.598
166.776
156.2
146.48
137.363
128.673
120.284
112.094
104.019
193.425
180.915
169.358
158.664
148.661
139.187
130.108
121.315
112.714
104.226
194.008
182.282
171.076
160.437
150.312
140.616
131.258
122.153
113.223
104.396
194.334
183.13
172.226
161.695
151.535
141.707
132.154
122.816
113.629
104.533
194.535
183.677
173.005
162.582
152.426
142.522
132.837
123.327
113.945
104.639
194.664
184.038
173.535
163.203
153.065
143.119
133.344
123.711
114.184
104.72
194.749
184.278
173.892
163.631
153.513
143.543
133.709
123.991
114.358
104.78
194.803
184.433
174.126
163.914
153.814
143.832
133.96
124.184
114.48
104.821
194.835
184.525
174.266
164.085
153.998
144.009
134.116
124.304
114.556
104.847
194.849
184.565
174.329
164.163
154.082
144.093
134.19
124.362
114.593
104.86
194.847
184.56
174.321
164.156
154.077
144.09
134.189
124.363
114.594
104.86
194.828
184.506
174.242
164.062
153.981
144.001
134.114
124.307
114.559
104.849
194.788
184.395
174.079
163.872
153.786
143.82
133.962
124.192
114.488
104.825
194.721
184.208
173.809
163.561
153.472
143.532
133.721
124.012
114.378
104.787
194.61
183.908
173.389
163.092
153.01
143.118
133.38
123.76
114.223
104.735
194.421
183.427
172.751
162.409
152.362
142.552
132.923
123.427
114.021
104.668
194.072
182.632
171.78
161.436
151.48
141.807
132.336
123.006
113.768
104.583
193.309
181.251
170.304
160.081
150.32
140.864
131.611
122.494
113.464
104.482
191.224
178.765
168.11
158.267
148.863
139.724
130.756
121.899
113.114
104.367
188.986
174.5
162.952
152.881
143.7
135.113
126.94
119.055
111.36
103.775
192.203
178.6
166.779
156.202
146.483
137.365
128.675
120.286
112.095
104.02
193.426
180.918
169.361
158.666
148.663
139.189
130.11
121.317
112.716
104.227
194.01
182.285
171.079
160.44
150.315
140.619
131.26
122.155
113.225
104.397
194.336
183.133
172.229
161.698
151.538
141.709
132.157
122.818
113.631
104.534
194.537
183.68
173.008
162.585
152.429
142.525
132.839
123.329
113.947
104.641
194.666
184.041
173.538
163.206
153.068
143.121
133.347
123.714
114.186
104.722
194.751
184.281
173.895
163.634
153.516
143.546
133.712
123.993
114.36
104.781
194.805
184.436
174.129
163.917
153.817
143.834
133.963
124.186
114.482
104.822
194.837
184.528
174.269
164.088
154.001
144.012
134.118
124.307
114.558
104.848
194.851
184.569
174.332
164.166
154.086
144.096
134.193
124.365
114.595
104.861
194.849
184.563
174.325
164.159
154.08
144.093
134.192
124.365
114.596
104.861
194.83
184.509
174.246
164.066
153.985
144.004
134.117
124.309
114.561
104.85
194.791
184.399
174.083
163.875
153.789
143.823
133.964
124.195
114.49
104.826
194.723
184.211
173.813
163.564
153.475
143.535
133.724
124.015
114.38
104.789
194.612
183.912
173.393
163.096
153.014
143.121
133.383
123.763
114.226
104.737
194.424
183.431
172.755
162.413
152.366
142.555
132.926
123.43
114.023
104.669
194.074
182.636
171.784
161.44
151.484
141.81
132.339
123.008
113.77
104.585
193.311
181.255
170.308
160.084
150.324
140.868
131.614
122.497
113.466
104.484
191.227
178.769
168.114
158.271
148.866
139.727
130.759
121.902
113.116
104.368
184.054
174.483
165.116
156.027
147.15
138.422
129.797
121.241
112.729
104.241
177.736
170.005
161.851
153.58
145.294
137.024
128.774
120.541
112.321
104.106
172.628
165.96
158.716
151.16
143.434
135.615
127.741
119.835
111.909
103.971
168.534
162.509
155.909
148.923
141.682
134.273
126.751
119.155
111.511
103.84
165.263
159.651
153.505
146.957
140.113
133.056
125.846
118.531
111.146
103.72
162.679
157.346
151.524
145.304
138.774
132.005
125.058
117.984
110.824
103.614
160.692
155.553
149.96
143.982
137.69
131.146
124.411
117.533
110.558
103.526
159.246
154.239
148.803
142.995
136.873
130.496
123.917
117.188
110.353
103.459
158.301
153.376
148.04
142.34
136.329
130.06
123.586
116.956
110.215
103.413
157.834
152.95
147.661
142.013
136.057
129.842
123.42
116.84
110.147
103.395
184.05
174.479
165.113
156.023
147.146
138.419
129.794
121.238
112.726
104.239
177.732
170.001
161.847
153.576
145.291
137.021
128.771
120.538
112.318
104.105
172.624
165.957
158.713
151.156
143.431
135.612
127.738
119.832
111.906
103.969
168.532
162.506
155.906
148.92
141.679
134.269
126.748
119.152
111.509
103.839
165.26
159.648
153.502
146.954
140.11
133.052
125.843
118.527
111.142
103.718
162.676
157.343
151.521
145.301
138.771
132.002
125.055
117.98
110.821
103.612
160.69
155.551
149.957
143.979
137.686
131.143
124.407
117.528
110.554
103.523
159.243
154.236
148.8
142.992
136.87
130.492
123.913
117.183
110.348
103.455
158.298
153.374
148.037
142.336
136.325
130.056
123.581
116.95
110.209
103.409
157.832
152.947
147.658
142.01
136.053
129.838
123.416
116.834
110.14
103.389
184.05
174.479
165.113
156.023
147.146
138.419
129.794
121.238
112.726
104.239
177.732
170.001
161.847
153.576
145.291
137.021
128.771
120.538
112.318
104.105
172.624
165.957
158.713
151.156
143.431
135.612
127.738
119.832
111.906
103.969
168.531
162.506
155.906
148.92
141.679
134.269
126.748
119.152
111.509
103.839
165.26
159.648
153.502
146.954
140.11
133.052
125.843
118.527
111.142
103.718
162.676
157.343
151.521
145.301
138.771
132.002
125.055
117.98
110.821
103.612
160.69
155.551
149.957
143.979
137.686
131.143
124.407
117.528
110.554
103.523
159.243
154.236
148.8
142.991
136.87
130.492
123.913
117.183
110.348
103.455
158.298
153.374
148.037
142.336
136.325
130.056
123.582
116.95
110.209
103.409
157.832
152.947
147.658
142.01
136.053
129.838
123.416
116.834
110.14
103.389
184.054
174.483
165.116
156.027
147.15
138.422
129.797
121.241
112.729
104.241
177.736
170.004
161.851
153.58
145.294
137.024
128.774
120.541
112.321
104.106
172.628
165.96
158.716
151.16
143.434
135.615
127.741
119.835
111.909
103.971
168.534
162.509
155.909
148.923
141.682
134.273
126.751
119.155
111.511
103.84
165.263
159.651
153.505
146.957
140.113
133.056
125.846
118.531
111.146
103.72
162.678
157.346
151.524
145.304
138.774
132.005
125.058
117.984
110.824
103.614
160.692
155.553
149.96
143.982
137.69
131.146
124.411
117.533
110.558
103.526
159.246
154.238
148.803
142.995
136.873
130.496
123.917
117.188
110.353
103.459
158.301
153.376
148.04
142.34
136.329
130.06
123.586
116.956
110.215
103.413
157.835
152.95
147.661
142.013
136.057
129.842
123.42
116.84
110.147
103.395
192.772
195.553
196.729
197.366
197.77
198.046
198.239
198.372
198.455
198.495
198.496
198.456
198.373
198.241
198.048
197.772
197.369
196.732
195.555
192.774
184.262
188.268
190.731
192.337
193.441
194.224
194.782
195.168
195.411
195.53
195.53
195.413
195.171
194.787
194.23
193.447
192.344
190.738
188.273
184.267
178.285
182.532
185.599
187.818
189.443
190.638
191.507
192.115
192.502
192.691
192.692
192.506
192.121
191.514
190.646
189.453
187.829
185.61
182.543
178.295
173.74
177.99
181.328
183.909
185.889
187.392
188.508
189.3
189.808
190.057
190.058
189.812
189.307
188.518
187.405
185.904
183.926
181.345
178.008
173.757
170.184
174.379
177.834
180.62
182.832
184.553
185.854
186.789
187.393
187.691
187.693
187.4
186.8
185.869
184.571
182.853
180.644
177.859
174.405
170.21
167.399
171.53
175.03
177.932
180.289
182.16
183.594
184.635
185.313
185.648
185.651
185.321
184.649
183.613
182.184
180.318
177.964
175.065
171.567
167.437
165.267
169.34
172.852
175.816
178.264
180.233
181.759
182.875
183.606
183.969
183.973
183.617
182.893
181.783
180.263
178.3
175.857
172.897
169.389
165.317
163.714
167.743
171.253
174.25
176.751
178.782
180.368
181.535
182.303
182.685
182.69
182.316
181.556
180.397
178.818
176.795
174.3
171.309
167.803
163.778
162.699
166.697
170.202
173.214
175.746
177.812
179.435
180.633
181.424
181.818
181.823
181.438
180.657
179.468
177.854
175.796
173.272
170.266
166.767
162.774
162.197
166.179
169.68
172.699
175.244
177.327
178.967
180.18
180.981
181.381
181.386
180.996
180.205
179.002
177.372
175.298
172.762
169.75
166.255
162.278
192.775
195.555
196.731
197.368
197.771
198.047
198.24
198.372
198.455
198.495
198.495
198.455
198.372
198.24
198.047
197.771
197.368
196.731
195.554
192.772
184.266
188.27
190.733
192.339
193.443
194.226
194.783
195.168
195.412
195.53
195.53
195.413
195.17
194.785
194.228
193.446
192.342
190.735
188.271
184.264
178.289
182.535
185.602
187.821
189.445
190.639
191.508
192.116
192.503
192.691
192.692
192.505
192.12
191.513
190.645
189.451
187.827
185.608
182.54
178.292
173.744
177.993
181.331
183.911
185.891
187.393
188.509
189.3
189.808
190.057
190.058
189.812
189.306
188.517
187.403
185.902
183.923
181.343
178.005
173.754
170.187
174.382
177.836
180.623
182.834
184.555
185.856
186.79
187.394
187.691
187.693
187.399
186.799
185.868
184.569
182.851
180.642
177.857
174.403
170.207
167.402
171.533
175.033
177.934
180.291
182.161
183.596
184.636
185.313
185.648
185.651
185.321
184.648
183.612
182.182
180.316
177.962
175.063
171.565
167.434
165.27
169.343
172.855
175.819
178.266
180.234
181.76
182.876
183.607
183.969
183.973
183.616
182.892
181.782
180.261
178.298
175.855
172.895
169.387
165.315
163.717
167.745
171.255
174.252
176.753
178.783
180.369
181.536
182.303
182.685
182.689
182.315
181.555
180.396
178.817
176.793
174.298
171.306
167.801
163.775
162.702
166.699
170.204
173.217
175.747
177.814
179.436
180.634
181.424
181.818
181.823
181.437
180.656
179.467
177.853
175.794
173.27
170.264
166.764
162.771
162.2
166.181
169.682
172.701
175.246
177.329
178.968
180.18
180.981
181.381
181.386
180.996
180.204
179.001
177.371
175.296
172.76
169.748
166.253
162.276
192.775
195.555
196.731
197.368
197.771
198.047
198.24
198.372
198.455
198.495
198.495
198.455
198.372
198.24
198.047
197.771
197.368
196.731
195.554
192.772
184.265
188.27
190.733
192.339
193.443
194.226
194.783
195.168
195.411
195.53
195.53
195.413
195.17
194.785
194.228
193.446
192.342
190.735
188.271
184.264
178.289
182.535
185.601
187.821
189.445
190.639
191.508
192.116
192.503
192.691
192.692
192.505
192.12
191.513
190.645
189.451
187.827
185.608
182.54
178.292
173.743
177.993
181.331
183.911
185.891
187.393
188.509
189.3
189.808
190.057
190.058
189.812
189.306
188.517
187.403
185.902
183.923
181.343
178.005
173.754
170.187
174.382
177.836
180.623
182.834
184.555
185.856
186.79
187.394
187.691
187.693
187.399
186.799
185.868
184.569
182.851
180.642
177.857
174.403
170.207
167.402
171.533
175.033
177.934
180.291
182.161
183.596
184.636
185.313
185.648
185.651
185.321
184.648
183.612
182.182
180.316
177.962
175.063
171.565
167.434
165.27
169.343
172.855
175.819
178.266
180.234
181.76
182.876
183.607
183.969
183.972
183.616
182.892
181.782
180.261
178.298
175.855
172.895
169.387
165.315
163.717
167.745
171.255
174.252
176.753
178.783
180.369
181.536
182.303
182.685
182.689
182.315
181.555
180.396
178.817
176.793
174.298
171.306
167.801
163.775
162.702
166.699
170.204
173.217
175.748
177.814
179.436
180.634
181.424
181.818
181.823
181.437
180.656
179.467
177.853
175.794
173.27
170.264
166.765
162.771
162.2
166.181
169.683
172.702
175.246
177.329
178.968
180.18
180.981
181.381
181.386
180.996
180.204
179.001
177.371
175.296
172.76
169.748
166.253
162.276
192.772
195.553
196.729
197.366
197.77
198.046
198.239
198.372
198.455
198.495
198.496
198.456
198.373
198.241
198.048
197.772
197.369
196.732
195.555
192.774
184.262
188.267
190.731
192.337
193.441
194.224
194.782
195.168
195.411
195.53
195.53
195.413
195.171
194.787
194.23
193.447
192.344
190.738
188.273
184.267
178.285
182.532
185.599
187.818
189.443
190.638
191.507
192.115
192.502
192.691
192.692
192.506
192.12
191.514
190.646
189.453
187.829
185.61
182.543
178.295
173.74
177.99
181.328
183.909
185.889
187.392
188.508
189.3
189.808
190.057
190.058
189.812
189.307
188.518
187.405
185.904
183.926
181.345
178.008
173.757
170.184
174.379
177.834
180.62
182.832
184.553
185.854
186.789
187.393
187.691
187.693
187.4
186.8
185.869
184.571
182.853
180.644
177.859
174.405
170.21
167.399
171.53
175.03
177.932
180.289
182.16
183.594
184.635
185.313
185.648
185.651
185.321
184.649
183.613
182.184
180.318
177.964
175.065
171.567
167.437
165.266
169.34
172.852
175.816
178.264
180.232
181.759
182.875
183.606
183.969
183.973
183.617
182.892
181.783
180.263
178.3
175.857
172.897
169.389
165.317
163.714
167.743
171.253
174.25
176.751
178.782
180.368
181.535
182.303
182.685
182.69
182.316
181.556
180.397
178.818
176.795
174.3
171.308
167.803
163.778
162.699
166.696
170.202
173.214
175.746
177.812
179.435
180.633
181.424
181.818
181.823
181.438
180.657
179.468
177.854
175.796
173.272
170.266
166.767
162.774
162.197
166.179
169.68
172.699
175.244
177.327
178.967
180.18
180.981
181.381
181.387
180.996
180.205
179.002
177.372
175.298
172.762
169.75
166.255
162.278
104.241
112.731
121.245
129.803
138.43
147.157
156.033
165.121
174.486
184.053
104.106
112.321
120.544
128.779
137.03
145.3
153.584
161.854
170.005
177.733
103.97
111.908
119.836
127.744
135.618
143.436
151.16
158.714
165.956
172.62
103.839
111.509
119.153
126.749
134.27
141.677
148.916
155.899
162.497
168.52
103.718
111.141
118.524
125.838
133.045
140.099
146.94
153.485
159.628
165.238
103.61
110.816
117.973
125.042
131.984
138.748
145.275
151.49
157.31
162.641
103.521
110.546
117.514
124.385
131.114
137.651
143.938
149.912
155.503
160.641
103.452
110.337
117.161
123.88
130.45
136.82
142.935
148.74
154.173
159.181
103.405
110.195
116.92
123.537
130.001
136.262
142.267
147.963
153.298
158.224
103.377
110.123
116.798