/*--------------------------------*- C++ -*----------------------------------*\
| =========                 |                                                 |
| \\      /  F ield         | OpenFOAM: The Open Source CFD Toolbox           |
|  \\    /   O peration     | Version:  2.4.0                                 |
|   \\  /    A nd           | Web:      www.OpenFOAM.org                      |
|    \\/     M anipulation  |                                                 |
\*---------------------------------------------------------------------------*/
FoamFile
{
    version     2.0;
    format      ascii;
    class       volScalarField;
    location    "0.955";
    object      T;
}
// * * * * * * * * * * * * * * * * * * * * * * * * * * * * * * * * * * * * * //

dimensions      [0 0 0 1 0 0 0];

internalField   nonuniform List<scalar> 
1600
(
101.413
104.239
107.063
109.881
112.694
115.498
118.293
121.076
123.845
126.6
129.338
132.057
134.757
137.436
140.092
142.724
145.332
147.915
150.471
153.001
155.504
157.98
160.429
162.852
165.248
167.619
169.965
172.288
174.589
176.87
179.131
181.375
183.603
185.818
188.02
190.212
192.396
194.573
196.746
198.916
101.414
104.242
107.067
109.888
112.702
115.508
118.305
121.089
123.861
126.617
129.356
132.077
134.778
137.458
140.115
142.749
145.358
147.941
150.498
153.028
155.531
158.006
160.455
162.877
165.272
167.642
169.988
172.31
174.609
176.888
179.148
181.391
183.617
185.83
188.031
190.221
192.403
194.578
196.749
198.917
101.416
104.247
107.076
109.9
112.718
115.528
118.328
121.116
123.89
126.649
129.392
132.115
134.819
137.501
140.161
142.796
145.407
147.991
150.549
153.08
155.583
158.059
160.507
162.928
165.322
167.69
170.034
172.354
174.651
176.927
179.184
181.423
183.646
185.855
188.052
190.238
192.416
194.588
196.754
198.919
101.419
104.255
107.089
109.919
112.742
115.557
118.362
121.155
123.934
126.698
129.444
132.172
134.88
137.565
140.228
142.866
145.479
148.065
150.625
153.156
155.66
158.136
160.583
163.003
165.396
167.762
170.102
172.419
174.712
176.984
179.236
181.471
183.689
185.892
188.084
190.265
192.437
194.602
196.763
198.922
101.422
104.266
107.107
109.943
112.773
115.595
118.407
121.206
123.992
126.761
129.514
132.247
134.959
137.65
140.316
142.958
145.574
148.163
150.724
153.257
155.762
158.237
160.684
163.102
165.493
167.856
170.193
172.505
174.794
177.06
179.307
181.534
183.746
185.942
188.126
190.299
192.464
194.622
196.775
198.925
101.427
104.279
107.129
109.974
112.812
115.643
118.462
121.27
124.063
126.84
129.599
132.339
135.058
137.753
140.425
143.071
145.691
148.283
150.847
153.382
155.887
158.362
160.808
163.225
165.613
167.973
170.306
172.613
174.896
177.156
179.394
181.614
183.817
186.005
188.179
190.343
192.498
194.647
196.79
198.93
101.432
104.294
107.155
110.01
112.859
115.699
118.529
121.346
124.148
126.934
129.701
132.449
135.174
137.877
140.554
143.206
145.83
148.426
150.992
153.529
156.035
158.511
160.956
163.371
165.756
168.112
170.44
172.741
175.017
177.269
179.5
181.71
183.903
186.08
188.244
190.396
192.54
194.676
196.808
198.936
101.438
104.313
107.185
110.053
112.913
115.765
118.606
121.433
124.246
127.042
129.819
132.575
135.309
138.019
140.704
143.361
145.99
148.59
151.16
153.699
156.207
158.683
161.127
163.54
165.922
168.274
170.596
172.891
175.159
177.402
179.622
181.822
184.003
186.168
188.319
190.458
192.588
194.711
196.828
198.943
101.445
104.333
107.22
110.101
112.975
115.84
118.693
121.533
124.358
127.165
129.953
132.719
135.462
138.18
140.872
143.536
146.171
148.776
151.35
153.891
156.4
158.877
161.32
163.731
166.109
168.456
170.773
173.06
175.319
177.553
179.762
181.949
184.117
186.268
188.405
190.529
192.643
194.75
196.852
198.951
101.453
104.357
107.259
110.155
113.044
115.924
118.792
121.645
124.483
127.303
130.102
132.879
135.633
138.36
141.061
143.732
146.373
148.983
151.56
154.105
156.615
159.092
161.534
163.943
166.318
168.66
170.97
173.249
175.499
177.722
179.919
182.093
184.246
186.382
188.502
190.609
192.706
194.795
196.879
198.96
101.461
104.383
107.302
110.215
113.121
116.017
118.901
121.77
124.622
127.455
130.268
133.057
135.821
138.559
141.268
143.947
146.595
149.21
151.792
154.339
156.851
159.328
161.77
164.176
166.547
168.884
171.187
173.458
175.698
177.909
180.093
182.252
184.39
186.508
188.61
190.698
192.776
194.845
196.91
198.97
101.471
104.412
107.35
110.282
113.206
116.12
119.021
121.907
124.775
127.623
130.45
133.252
136.028
138.776
141.495
144.183
146.837
149.458
152.044
154.594
157.108
159.585
162.026
164.429
166.796
169.127
171.423
173.685
175.914
178.113
180.283
182.427
184.548
186.647
188.729
190.797
192.853
194.901
196.943
198.981
101.482
104.443
107.402
110.355
113.3
116.233
119.153
122.057
124.942
127.807
130.648
133.464
136.253
139.013
141.742
144.438
147.1
149.727
152.317
154.87
157.386
159.863
162.301
164.702
167.064
169.389
171.677
173.93
176.148
178.334
180.49
182.618
184.72
186.8
188.86
190.905
192.938
194.962
196.98
198.993
101.493
104.478
107.46
110.436
113.402
116.357
119.298
122.221
125.125
128.007
130.865
133.696
136.498
139.27
142.009
144.714
147.384
150.017
152.611
155.167
157.684
160.161
162.598
164.995
167.352
169.671
171.951
174.194
176.4
178.573
180.713
182.823
184.906
186.965
189.003
191.024
193.031
195.029
197.02
199.007
101.506
104.516
107.523
110.524
113.514
116.492
119.455
122.4
125.324
128.224
131.099
133.946
136.763
139.548
142.298
145.013
147.69
150.329
152.928
155.487
158.005
160.481
162.916
165.309
167.661
169.972
172.244
174.476
176.67
178.829
180.953
183.045
185.107
187.144
189.157
191.152
193.132
195.101
197.064
199.021
101.52
104.558
107.593
110.62
113.636
116.64
119.627
122.594
125.54
128.461
131.355
134.218
137.05
139.848
142.611
145.335
148.02
150.666
153.269
155.831
158.35
160.825
163.257
165.647
167.993
170.296
172.558
174.778
176.959
179.102
181.209
183.282
185.323
187.336
189.324
191.291
193.242
195.18
197.112
199.037
101.535
104.604
107.668
110.725
113.77
116.801
119.814
122.806
125.775
128.718
131.632
134.514
137.362
140.174
142.948
145.683
148.377
151.029
153.637
156.202
158.721
161.196
163.625
166.01
168.349
170.644
172.895
175.103
177.27
179.396
181.484
183.536
185.555
187.543
189.504
191.441
193.36
195.266
197.163
199.054
101.552
104.654
107.751
110.839
113.916
116.976
120.018
123.038
126.032
128.998
131.933
134.834
137.7
140.527
143.314
146.06
148.763
151.422
154.035
156.602
159.123
161.597
164.023
166.402
168.734
171.019
173.259
175.453
177.604
179.712
181.78
183.81
185.804
187.765
189.697
191.604
193.489
195.358
197.219
199.073
101.57
104.708
107.841
110.965
114.075
117.169
120.241
123.29
126.312
129.303
132.261
135.183
138.067
140.91
143.712
146.47
149.182
151.848
154.467
157.037
159.558
162.031
164.453
166.827
169.151
171.426
173.652
175.832
177.965
180.054
182.1
184.105
186.073
188.005
189.906
191.778
193.628
195.459
197.28
199.093
101.59
104.768
107.941
111.103
114.25
117.379
120.486
123.566
126.617
129.636
132.618
135.563
138.467
141.328
144.145
146.915
149.638
152.312
154.936
157.509
160.032
162.502
164.921
167.288
169.603
171.867
174.08
176.243
178.358
180.425
182.447
184.425
186.363
188.264
190.131
191.967
193.778
195.568
197.346
199.115
101.612
104.835
108.05
111.254
114.443
117.61
120.754
123.869
126.952
130
133.01
135.978
138.904
141.784
144.616
147.4
150.134
152.816
155.446
158.023
160.547
163.016
165.43
167.791
170.096
172.348
174.546
176.691
178.785
180.828
182.824
184.773
186.679
188.545
190.375
192.172
193.941
195.687
197.418
199.139
101.637
104.908
108.171
111.421
114.654
117.865
121.049
124.202
127.32
130.4
133.438
136.433
139.382
142.282
145.132
147.93
150.676
153.367
156.004
158.584
161.109
163.576
165.986
168.339
170.634
172.872
175.054
177.18
179.251
181.269
183.236
185.153
187.024
188.852
190.641
192.395
194.118
195.816
197.497
199.165
101.664
104.988
108.304
111.606
114.888
118.146
121.374
124.568
127.724
130.838
133.909
136.932
139.905
142.827
145.696
148.51
151.268
153.969
156.612
159.197
161.722
164.187
166.592
168.937
171.221
173.445
175.609
177.714
179.761
181.751
183.686
185.569
187.401
189.187
190.932
192.638
194.312
195.957
197.584
199.193
101.694
105.078
108.452
111.81
115.147
118.456
121.732
124.971
128.169
131.321
134.426
137.479
140.479
143.424
146.313
149.144
151.915
154.626
157.277
159.866
162.392
164.855
167.255
169.591
171.863
174.071
176.216
178.299
180.319
182.279
184.18
186.025
187.816
189.556
191.251
192.905
194.524
196.112
197.678
199.225
101.727
105.177
108.616
112.037
115.433
118.799
122.129
125.417
128.66
131.853
134.994
138.08
141.109
144.08
146.989
149.838
152.623
155.345
158.003
160.596
163.124
165.585
167.979
170.305
172.565
174.756
176.881
178.939
180.931
182.859
184.723
186.526
188.272
189.962
191.603
193.2
194.757
196.282
197.783
199.259
101.764
105.288
108.799
112.289
115.752
119.18
122.568
125.91
129.202
132.44
135.621
138.742
141.802
144.798
147.73
150.597
153.398
156.132
158.797
161.395
163.923
166.381
168.769
171.086
173.332
175.506
177.609
179.641
181.603
183.495
185.32
187.079
188.774
190.411
191.992
193.525
195.016
196.47
197.899
199.298
101.805
105.411
109.003
112.57
116.107
119.604
123.056
126.456
129.802
133.087
136.311
139.469
142.562
145.586
148.542
151.429
154.245
156.99
159.664
162.266
164.795
167.25
169.632
171.938
174.17
176.325
178.406
180.41
182.339
184.194
185.976
187.687
189.329
190.906
192.423
193.887
195.302
196.679
198.027
199.34
101.852
105.55
109.231
112.885
116.503
120.076
123.598
127.062
130.465
133.802
137.071
140.27
143.397
146.451
149.431
152.338
155.171
157.928
160.61
163.217
165.746
168.199
170.573
172.869
175.085
177.221
179.277
181.253
183.148
184.963
186.699
188.359
189.943
191.456
192.902
194.288
195.622
196.912
198.169
199.388
101.904
105.706
109.487
113.237
116.946
120.603
124.201
127.735
131.199
134.592
137.909
141.15
144.313
147.398
150.404
153.332
156.181
158.951
161.641
164.252
166.782
169.231
171.598
173.883
176.083
178.2
180.231
182.176
184.035
185.808
187.496
189.1
190.622
192.065
193.434
194.736
195.978
197.172
198.329
199.441
101.963
105.882
109.776
113.634
117.443
121.192
124.874
128.482
132.013
135.464
138.832
142.116
145.317
148.434
151.467
154.416
157.282
160.064
162.763
165.378
167.909
170.355
172.714
174.987
177.172
179.267
181.272
183.186
185.008
186.738
188.375
189.92
191.375
192.743
194.028
195.237
196.379
197.465
198.507
199.501
102.03
106.081
110.104
114.083
118.002
121.852
125.625
129.313
132.915
136.427
139.848
143.178
146.418
149.567
152.626
155.597
158.48
161.275
163.982
166.601
169.132
171.574
173.927
176.187
178.356
180.43
182.409
184.291
186.075
187.759
189.343
190.827
192.211
193.499
194.693
195.8
196.83
197.795
198.709
199.569
102.107
106.31
110.478
114.592
118.635
122.595
126.465
130.239
133.915
137.49
140.966
144.342
147.621
150.803
153.889
156.882
159.781
162.588
165.304
167.927
170.458
172.897
175.241
177.49
179.642
181.696
183.649
185.498
187.243
188.882
190.411
191.831
193.142
194.343
195.439
196.435
197.341
198.171
198.939
199.646
102.197
106.574
110.908
115.174
119.353
123.433
127.407
131.271
135.023
138.664
142.195
145.618
148.935
152.149
155.262
158.276
161.191
164.01
166.734
169.361
171.892
174.327
176.664
178.901
181.038
183.071
184.998
186.816
188.523
190.115
191.59
192.945
194.178
195.289
196.28
197.155
197.923
198.601
199.202
199.736
102.301
106.882
111.407
115.844
120.173
124.382
128.466
132.422
136.252
139.958
143.543
147.012
150.367
153.612
156.751
159.784
162.716
165.546
168.277
170.908
173.439
175.871
178.2
180.427
182.548
184.562
186.464
188.252
189.921
191.469
192.889
194.179
195.334
196.352
197.233
197.978
198.594
199.099
199.509
199.843
102.426
107.249
111.994
116.623
121.115
125.46
129.657
133.706
137.613
141.383
145.021
148.533
151.924
155.199
158.361
161.413
164.359
167.2
169.938
172.572
175.104
177.532
179.855
182.072
184.18
186.175
188.054
189.814
191.449
192.954
194.323
195.549
196.628
197.552
198.317
198.924
199.374
199.685
199.872
199.971
102.58
107.695
112.697
117.54
122.205
126.69
130.999
135.139
139.12
142.95
146.637
150.189
153.613
156.914
160.098
163.168
166.127
168.977
171.721
174.359
176.891
179.316
181.634
183.842
185.937
187.917
189.777
191.511
193.115
194.582
195.903
197.071
198.076
198.909
199.559
200.022
200.293
200.387
200.312
200.128
102.778
108.258
113.557
118.631
123.475
128.098
132.514
136.738
140.785
144.669
148.399
151.987
155.439
158.764
161.966
165.051
168.022
170.881
173.63
176.271
178.804
181.228
183.541
185.742
187.828
189.795
191.638
193.351
194.929
196.363
197.644
198.761
199.701
200.45
200.992
201.311
201.394
201.245
200.856
200.322
103.051
109.001
114.636
119.947
124.963
129.711
134.222
138.518
142.622
146.55
150.316
153.933
157.409
160.753
163.971
167.068
170.049
172.916
175.67
178.315
180.849
183.272
185.583
187.779
189.858
191.815
193.646
195.343
196.901
198.31
199.559
200.636
201.523
202.204
202.653
202.844
202.742
202.332
201.561
200.584
103.511
110.041
116.011
121.543
126.707
131.559
136.144
140.496
144.642
148.604
152.398
156.037
159.531
162.89
166.12
169.227
172.215
175.088
177.848
180.495
183.031
185.454
187.764
189.958
192.033
193.985
195.807
197.495
199.04
200.432
201.66
202.709
203.561
204.193
204.575
204.671
204.421
203.769
202.574
201.023
104.359
111.625
117.87
123.551
128.807
133.717
138.341
142.722
146.891
150.871
154.679
158.329
161.833
165.2
168.437
171.55
174.543
177.419
180.182
182.831
185.368
187.792
190.101
192.294
194.366
196.315
198.134
199.816
201.354
202.738
203.954
204.987
205.819
206.424
206.769
206.813
206.479
205.691
204.204
202.073
)
;

boundaryField
{
    carasuperior
    {
        type            fixedGradient;
        gradient        uniform 100;
    }
    lateralizquierda
    {
        type            fixedValue;
        value           uniform 100;
    }
    lateralderecha
    {
        type            fixedValue;
        value           uniform 200;
    }
    carainferior
    {
        type            zeroGradient;
    }
    frontAndBack
    {
        type            empty;
    }
}


// ************************************************************************* //
