/*--------------------------------*- C++ -*----------------------------------*\
| =========                 |                                                 |
| \\      /  F ield         | OpenFOAM: The Open Source CFD Toolbox           |
|  \\    /   O peration     | Version:  2.4.0                                 |
|   \\  /    A nd           | Web:      www.OpenFOAM.org                      |
|    \\/     M anipulation  |                                                 |
\*---------------------------------------------------------------------------*/
FoamFile
{
    version     2.0;
    format      ascii;
    class       volScalarField;
    location    "4.8";
    object      p;
}
// * * * * * * * * * * * * * * * * * * * * * * * * * * * * * * * * * * * * * //

dimensions      [0 2 -2 0 0 0 0];

internalField   nonuniform List<scalar> 
4800
(
3.44989e-06
-0.00159752
-0.00328312
-0.00453381
-0.00502461
-0.00460386
-0.00322425
-0.00088936
0.00235616
0.00641661
0.0016024
-3.14085e-05
-0.00122935
-0.00194442
-0.00205281
-0.00144423
-7.09502e-05
0.00208372
0.00501031
0.00866244
0.00332779
0.00111669
-8.9249e-05
-0.000648487
-0.000630454
2.33843e-05
0.00134468
0.00336083
0.00609411
0.00954163
0.00449791
0.00162884
0.000247996
-0.00032671
-0.000324245
0.000269728
0.00147539
0.00333874
0.0059266
0.00929638
0.00455877
0.00116737
-0.000399231
-0.00106378
-0.00117142
-0.00073401
0.000274986
0.00194059
0.00440227
0.00782529
0.00314172
-0.000561257
-0.00228057
-0.00308591
-0.00339186
-0.00321677
-0.00250515
-0.00110573
0.0012355
0.0048968
6.74959e-05
-0.00370577
-0.00552237
-0.0065047
-0.00709333
-0.00729782
-0.00701323
-0.0059958
-0.00383064
0.0002932
-0.00466649
-0.00826974
-0.0101193
-0.0113035
-0.0122534
-0.0129648
-0.0132735
-0.0128319
-0.0110484
-0.00626323
-0.0108963
-0.0141159
-0.0159327
-0.0173263
-0.0186939
-0.0200262
-0.0211058
-0.0214858
-0.0204782
-0.0148606
-0.0183064
-0.0209836
-0.0227034
-0.0242841
-0.02608
-0.0281115
-0.0301763
-0.031832
-0.0328371
-0.0284575
4.06036e-06
-0.00161846
-0.00331457
-0.00457421
-0.00507035
-0.00465183
-0.00327237
-0.000935594
0.00231416
0.00638149
0.00162015
-3.60234e-05
-0.00121198
-0.00191688
-0.00202016
-0.00140838
-3.49911e-05
0.00211715
0.00503963
0.00868774
0.00335831
0.00109061
-9.04495e-05
-0.000647399
-0.000631812
2.21122e-05
0.00134327
0.00335873
0.00609122
0.00953985
0.00454232
0.0015921
0.000248218
-0.000323392
-0.000325183
0.000268292
0.00147348
0.00333558
0.00592113
0.00929155
0.00461314
0.00112418
-0.000394177
-0.001053
-0.00116487
-0.00072777
0.000280556
0.00194387
0.00439884
0.00781851
0.00320121
-0.000609013
-0.00227394
-0.00307219
-0.00338233
-0.00320731
-0.00249592
-0.0010983
0.00122956
0.00487792
0.000127972
-0.00375466
-0.00551526
-0.00648967
-0.00708187
-0.00728596
-0.0070001
-0.00598009
-0.00383844
0.000245188
-0.0046115
-0.0083168
-0.0101129
-0.0112889
-0.0122414
-0.0129527
-0.0132598
-0.0128076
-0.0110715
-0.00643036
-0.0108506
-0.0141586
-0.0159282
-0.0173141
-0.0186828
-0.0200141
-0.0210896
-0.0214291
-0.0204613
-0.0152358
-0.0182733
-0.0210205
-0.0227025
-0.0242771
-0.0260726
-0.0281008
-0.0301535
-0.0316911
-0.0325076
-0.0285709
4.24963e-06
-0.00161836
-0.00331448
-0.00457414
-0.0050703
-0.00465179
-0.00327234
-0.00093557
0.00231418
0.00638151
0.00162025
-3.59361e-05
-0.0012119
-0.00191681
-0.00202011
-0.00140834
-3.49599e-05
0.00211717
0.00503965
0.00868775
0.0033584
0.00109069
-9.03789e-05
-0.000647341
-0.000631765
2.21494e-05
0.0013433
0.00335876
0.00609124
0.00953986
0.00454239
0.00159217
0.000248275
-0.000323343
-0.000325143
0.000268325
0.00147351
0.00333561
0.00592115
0.00929156
0.00461319
0.00112423
-0.000394134
-0.00105296
-0.00116484
-0.000727742
0.00028058
0.0019439
0.00439885
0.00781853
0.00320125
-0.000608976
-0.00227391
-0.00307216
-0.0033823
-0.00320729
-0.00249589
-0.00109828
0.00122958
0.00487793
0.000128001
-0.00375463
-0.00551523
-0.00648965
-0.00708185
-0.00728594
-0.00700009
-0.00598007
-0.00383842
0.000245201
-0.00461148
-0.00831677
-0.0101128
-0.0112888
-0.0122414
-0.0129527
-0.0132598
-0.0128076
-0.0110714
-0.00643035
-0.0108506
-0.0141586
-0.0159282
-0.0173141
-0.0186827
-0.0200141
-0.0210896
-0.0214291
-0.0204613
-0.0152358
-0.0182733
-0.0210205
-0.0227025
-0.0242771
-0.0260726
-0.0281008
-0.0301535
-0.0316911
-0.0325075
-0.0285709
5.43905e-06
-0.00159693
-0.00328282
-0.00453361
-0.00502447
-0.00460376
-0.00322418
-0.000889299
0.00235621
0.00641665
0.00160297
-3.10669e-05
-0.00122909
-0.00194423
-0.00205267
-0.00144413
-7.08695e-05
0.00208378
0.00501036
0.00866248
0.00332808
0.00111694
-8.90433e-05
-0.000648326
-0.000630328
2.34817e-05
0.00134476
0.00336089
0.00609416
0.00954167
0.00449811
0.00162903
0.000248154
-0.00032658
-0.000324137
0.000269814
0.00147546
0.00333879
0.00592665
0.00929642
0.0045589
0.0011675
-0.000399112
-0.00106368
-0.00117133
-0.000733937
0.000275047
0.00194064
0.00440231
0.00782532
0.00314181
-0.00056116
-0.00228048
-0.00308583
-0.00339179
-0.00321671
-0.0025051
-0.00110569
0.00123554
0.00489684
6.75626e-05
-0.0037057
-0.0055223
-0.00650463
-0.00709327
-0.00729777
-0.00701318
-0.00599576
-0.0038306
0.000293233
-0.00466644
-0.00826968
-0.0101193
-0.0113034
-0.0122533
-0.0129648
-0.0132735
-0.0128319
-0.0110484
-0.0062632
-0.0108962
-0.0141159
-0.0159327
-0.0173262
-0.0186939
-0.0200262
-0.0211058
-0.0214857
-0.0204782
-0.0148606
-0.0183063
-0.0209836
-0.0227033
-0.0242841
-0.02608
-0.0281115
-0.0301763
-0.031832
-0.0328371
-0.0284575
0.0111391
0.0163362
0.0218387
0.0275186
0.0332911
0.0391065
0.0449412
0.0507895
0.0566595
0.0625715
0.068558
0.0746651
0.0809524
0.0874912
0.0943582
0.101622
0.109323
0.117442
0.12586
0.134339
0.0129435
0.0177158
0.0228493
0.0282363
0.0337942
0.0394649
0.0452123
0.0510178
0.0568778
0.0628017
0.068811
0.0749383
0.0812263
0.0877244
0.0944832
0.101544
0.108923
0.116588
0.124442
0.132289
0.0136385
0.0182463
0.0232421
0.0285225
0.0340034
0.0396227
0.0453386
0.0511264
0.0569763
0.0628908
0.0688833
0.0749772
0.0812042
0.087602
0.0942105
0.101065
0.108186
0.115562
0.123126
0.130732
0.0134082
0.0180604
0.023107
0.0284363
0.0339585
0.03961
0.0453488
0.0511496
0.0570005
0.0628999
0.0688548
0.07488
0.0809974
0.0872357
0.0936299
0.10022
0.107047
0.114139
0.121494
0.129039
0.0122089
0.017155
0.0224613
0.0280025
0.0336847
0.0394498
0.0452644
0.0511099
0.0569771
0.0628632
0.0687699
0.0747029
0.0806733
0.0866987
0.0928086
0.09905
0.105491
0.11222
0.119332
0.126897
0.00999008
0.0155838
0.0213966
0.0273157
0.0332619
0.0392032
0.0451299
0.05104
0.0569329
0.0628075
0.0686608
0.0744888
0.0802889
0.086064
0.0918314
0.0976384
0.103581
0.109814
0.11657
0.124193
0.00688359
0.013615
0.0201848
0.0266013
0.0328569
0.0389848
0.0450215
0.0509912
0.0569061
0.0627677
0.068568
0.0742919
0.0799198
0.0854334
0.0908274
0.0961327
0.10146
0.107023
0.113218
0.120901
0.00330604
0.0117776
0.0192588
0.0261697
0.0326718
0.0389189
0.045014
0.0510102
0.0569298
0.0627744
0.0685289
0.0741648
0.0796427
0.0849175
0.0899482
0.0947295
0.0993661
0.104085
0.10941
0.117007
0.00130914
0.0117579
0.0195619
0.026503
0.0329447
0.0391216
0.0451674
0.0511351
0.0570387
0.0628696
0.0686011
0.074189
0.0795708
0.0846662
0.08938
0.0936347
0.0974803
0.100935
0.104354
0.110657
0.00586051
0.0170931
0.0227404
0.0282736
0.0339377
0.0396968
0.045532
0.0514065
0.0572836
0.0631261
0.0688881
0.0745057
0.0798877
0.0849032
0.0893647
0.0930091
0.0954814
0.0964863
0.0952185
0.0967484
0.0111126
0.0163177
0.0218264
0.0275108
0.0332863
0.0391035
0.0449391
0.0507877
0.0566576
0.0625691
0.0685549
0.0746611
0.0809473
0.0874852
0.0943518
0.101616
0.109319
0.117442
0.125868
0.134358
0.0129659
0.0177344
0.0228641
0.0282476
0.0338027
0.0394713
0.0452174
0.0510222
0.0568821
0.0628062
0.068816
0.0749438
0.081232
0.0877296
0.0944866
0.101544
0.108917
0.116575
0.12442
0.132258
0.0136412
0.0182511
0.0232474
0.0285276
0.0340077
0.0396262
0.0453412
0.0511284
0.0569779
0.0628921
0.0688844
0.0749781
0.0812049
0.0876022
0.0942101
0.101064
0.108184
0.115557
0.12312
0.130727
0.0134126
0.0180675
0.023114
0.0284425
0.0339635
0.0396137
0.0453514
0.0511514
0.0570018
0.0629007
0.0688554
0.0748804
0.0809977
0.0872359
0.0936298
0.10022
0.107045
0.114136
0.121488
0.129034
0.0122208
0.0171684
0.0224722
0.028011
0.0336907
0.0394538
0.0452669
0.0511115
0.0569781
0.062864
0.0687705
0.0747036
0.080674
0.0866997
0.0928094
0.0990501
0.10549
0.112217
0.119322
0.126882
0.0100155
0.0156055
0.0214102
0.0273248
0.0332673
0.0392061
0.0451313
0.0510406
0.0569332
0.0628076
0.0686609
0.0744891
0.0802894
0.0860649
0.0918325
0.0976391
0.103581
0.109813
0.116552
0.124155
0.00695124
0.0136597
0.0202055
0.0266121
0.0328615
0.0389862
0.0450217
0.050991
0.0569059
0.0627675
0.0685681
0.0742923
0.0799205
0.0854348
0.0908292
0.0961335
0.101459
0.107017
0.113175
0.120797
0.00342092
0.0118244
0.0192684
0.0261733
0.0326713
0.038917
0.0450122
0.0510087
0.0569286
0.0627733
0.068528
0.074164
0.0796423
0.0849179
0.0899497
0.09473
0.0993646
0.104091
0.109371
0.116841
0.00145263
0.0116943
0.0194906
0.0264725
0.0329289
0.039112
0.0451613
0.0511305
0.0570342
0.0628646
0.0685952
0.0741818
0.0795627
0.0846585
0.0893757
0.0936357
0.0974995
0.101024
0.104474
0.110478
0.00670162
0.0172366
0.0227509
0.0282966
0.0339527
0.0397039
0.0455361
0.0514094
0.0572861
0.0631289
0.0688915
0.07451
0.079893
0.084909
0.0893691
0.0930066
0.095472
0.0965174
0.0951567
0.0956833
0.0111126
0.0163177
0.0218264
0.0275109
0.0332863
0.0391035
0.0449391
0.0507877
0.0566576
0.0625691
0.0685549
0.0746611
0.0809473
0.0874852
0.0943518
0.101616
0.109319
0.117442
0.125868
0.134358
0.0129659
0.0177345
0.0228641
0.0282476
0.0338027
0.0394713
0.0452174
0.0510222
0.0568821
0.0628062
0.068816
0.0749438
0.081232
0.0877296
0.0944866
0.101544
0.108917
0.116575
0.12442
0.132258
0.0136413
0.0182511
0.0232474
0.0285276
0.0340078
0.0396262
0.0453412
0.0511285
0.0569779
0.0628921
0.0688844
0.0749781
0.0812049
0.0876022
0.0942101
0.101064
0.108184
0.115557
0.12312
0.130727
0.0134126
0.0180675
0.0231141
0.0284425
0.0339635
0.0396138
0.0453514
0.0511514
0.0570018
0.0629007
0.0688554
0.0748804
0.0809977
0.0872359
0.0936298
0.10022
0.107045
0.114136
0.121488
0.129034
0.0122208
0.0171684
0.0224722
0.0280111
0.0336907
0.0394538
0.0452669
0.0511115
0.0569782
0.062864
0.0687705
0.0747036
0.080674
0.0866997
0.0928094
0.0990501
0.10549
0.112217
0.119322
0.126882
0.0100155
0.0156055
0.0214102
0.0273248
0.0332673
0.0392061
0.0451313
0.0510406
0.0569332
0.0628076
0.0686609
0.0744891
0.0802894
0.0860649
0.0918325
0.0976391
0.103581
0.109813
0.116552
0.124155
0.00695125
0.0136597
0.0202055
0.0266121
0.0328615
0.0389862
0.0450217
0.050991
0.0569059
0.0627675
0.0685681
0.0742923
0.0799205
0.0854348
0.0908292
0.0961335
0.101459
0.107017
0.113175
0.120797
0.00342094
0.0118244
0.0192684
0.0261733
0.0326714
0.038917
0.0450122
0.0510087
0.0569286
0.0627733
0.068528
0.074164
0.0796423
0.0849179
0.0899497
0.09473
0.0993646
0.104091
0.109371
0.116841
0.00145265
0.0116943
0.0194906
0.0264725
0.0329289
0.039112
0.0451613
0.0511305
0.0570342
0.0628646
0.0685952
0.0741818
0.0795627
0.0846585
0.0893757
0.0936357
0.0974995
0.101024
0.104474
0.110478
0.00670163
0.0172366
0.0227509
0.0282966
0.0339527
0.0397039
0.0455361
0.0514094
0.0572861
0.0631289
0.0688915
0.07451
0.079893
0.084909
0.0893691
0.0930066
0.095472
0.0965174
0.0951567
0.0956833
0.0111391
0.0163363
0.0218387
0.0275186
0.0332911
0.0391065
0.0449412
0.0507895
0.0566595
0.0625715
0.0685581
0.0746651
0.0809524
0.0874912
0.0943582
0.101622
0.109323
0.117442
0.12586
0.134339
0.0129436
0.0177158
0.0228493
0.0282363
0.0337942
0.0394649
0.0452123
0.0510178
0.0568778
0.0628017
0.068811
0.0749383
0.0812263
0.0877244
0.0944832
0.101544
0.108923
0.116588
0.124442
0.132289
0.0136385
0.0182464
0.0232421
0.0285225
0.0340035
0.0396228
0.0453386
0.0511264
0.0569763
0.0628908
0.0688833
0.0749772
0.0812042
0.087602
0.0942105
0.101065
0.108186
0.115562
0.123126
0.130732
0.0134083
0.0180604
0.023107
0.0284363
0.0339586
0.0396101
0.0453488
0.0511496
0.0570005
0.0628999
0.0688548
0.07488
0.0809974
0.0872357
0.0936299
0.10022
0.107047
0.114139
0.121494
0.129039
0.0122089
0.017155
0.0224613
0.0280026
0.0336847
0.0394498
0.0452644
0.0511099
0.0569771
0.0628632
0.0687699
0.0747029
0.0806733
0.0866987
0.0928086
0.09905
0.105491
0.11222
0.119332
0.126897
0.00999011
0.0155838
0.0213966
0.0273157
0.033262
0.0392032
0.0451299
0.05104
0.0569329
0.0628075
0.0686608
0.0744888
0.0802889
0.086064
0.0918314
0.0976384
0.103581
0.109814
0.11657
0.124193
0.00688362
0.013615
0.0201848
0.0266013
0.0328569
0.0389848
0.0450215
0.0509912
0.0569061
0.0627677
0.068568
0.0742919
0.0799198
0.0854334
0.0908274
0.0961327
0.10146
0.107023
0.113218
0.120901
0.00330607
0.0117777
0.0192589
0.0261697
0.0326718
0.0389189
0.045014
0.0510102
0.0569299
0.0627744
0.0685289
0.0741648
0.0796427
0.0849175
0.0899482
0.0947295
0.0993661
0.104085
0.10941
0.117007
0.00130917
0.011758
0.0195619
0.026503
0.0329447
0.0391216
0.0451674
0.0511351
0.0570387
0.0628696
0.0686011
0.074189
0.0795708
0.0846662
0.08938
0.0936347
0.0974803
0.100935
0.104354
0.110657
0.00586053
0.0170931
0.0227404
0.0282736
0.0339377
0.0396969
0.0455321
0.0514065
0.0572836
0.0631261
0.0688881
0.0745057
0.0798877
0.0849032
0.0893647
0.0930091
0.0954814
0.0964863
0.0952185
0.0967484
0.142509
0.14992
0.156153
0.160891
0.163969
0.165389
0.165331
0.164162
0.162436
0.160837
0.139833
0.146702
0.15255
0.157117
0.160265
0.161997
0.16246
0.161949
0.160801
0.159233
0.138114
0.144885
0.150701
0.155301
0.158546
0.16043
0.161079
0.160743
0.159602
0.157546
0.136533
0.143491
0.149516
0.154318
0.15774
0.159766
0.160505
0.160184
0.158888
0.156295
0.134737
0.142123
0.148565
0.153728
0.157434
0.159658
0.160509
0.160204
0.158781
0.155806
0.132704
0.140788
0.147851
0.153522
0.157608
0.160096
0.161105
0.160861
0.159393
0.156229
0.130638
0.139706
0.147539
0.153804
0.158319
0.161107
0.162314
0.162187
0.160773
0.157615
0.128981
0.139322
0.147976
0.154818
0.159717
0.162774
0.164182
0.164211
0.162936
0.159959
0.127974
0.140323
0.149753
0.156978
0.162057
0.165239
0.166777
0.166955
0.165876
0.163219
0.132348
0.145928
0.154526
0.161094
0.165716
0.168665
0.170156
0.170417
0.169547
0.167302
0.142542
0.149966
0.156207
0.16095
0.164028
0.165444
0.165375
0.164192
0.162453
0.160836
0.139796
0.146659
0.152503
0.157068
0.160217
0.161953
0.162423
0.161923
0.160796
0.159211
0.138115
0.14489
0.150707
0.155308
0.158552
0.160435
0.161079
0.160742
0.159619
0.157514
0.13654
0.143503
0.14953
0.154333
0.157754
0.159776
0.160508
0.160185
0.158915
0.156255
0.134744
0.142134
0.148577
0.153739
0.157443
0.159665
0.160508
0.160203
0.158814
0.15576
0.132715
0.1408
0.147863
0.153534
0.157618
0.160103
0.161103
0.16086
0.159429
0.156181
0.130661
0.139722
0.147553
0.153817
0.158328
0.161112
0.162312
0.162186
0.160809
0.157566
0.129122
0.139379
0.148
0.154834
0.159725
0.162777
0.164179
0.164209
0.16297
0.159913
0.128303
0.14034
0.14973
0.15697
0.162051
0.165235
0.166771
0.166952
0.165905
0.163177
0.132235
0.145553
0.154359
0.161046
0.165697
0.168659
0.170151
0.170415
0.169572
0.167267
0.142542
0.149966
0.156207
0.16095
0.164028
0.165444
0.165375
0.164192
0.162453
0.160836
0.139796
0.146659
0.152503
0.157068
0.160217
0.161953
0.162423
0.161923
0.160796
0.159211
0.138115
0.14489
0.150707
0.155308
0.158552
0.160435
0.161079
0.160742
0.159619
0.157514
0.13654
0.143503
0.14953
0.154333
0.157754
0.159776
0.160508
0.160185
0.158915
0.156255
0.134744
0.142134
0.148577
0.153739
0.157443
0.159665
0.160508
0.160203
0.158814
0.15576
0.132715
0.1408
0.147863
0.153534
0.157618
0.160103
0.161103
0.16086
0.159429
0.156181
0.130661
0.139722
0.147553
0.153817
0.158328
0.161112
0.162312
0.162186
0.160809
0.157566
0.129122
0.139379
0.148
0.154834
0.159725
0.162777
0.164179
0.164209
0.16297
0.159913
0.128303
0.14034
0.14973
0.15697
0.162051
0.165235
0.166771
0.166952
0.165905
0.163177
0.132235
0.145553
0.154359
0.161046
0.165697
0.168659
0.170151
0.170415
0.169572
0.167267
0.142509
0.14992
0.156153
0.160891
0.163969
0.165389
0.165331
0.164162
0.162436
0.160837
0.139833
0.146702
0.15255
0.157117
0.160265
0.161997
0.16246
0.161949
0.160801
0.159233
0.138114
0.144885
0.150701
0.155301
0.158546
0.16043
0.161079
0.160743
0.159602
0.157546
0.136533
0.143491
0.149516
0.154318
0.15774
0.159766
0.160505
0.160184
0.158888
0.156295
0.134737
0.142123
0.148565
0.153728
0.157434
0.159658
0.160509
0.160204
0.158781
0.155806
0.132704
0.140788
0.147851
0.153522
0.157608
0.160096
0.161105
0.160861
0.159393
0.156229
0.130638
0.139706
0.147539
0.153804
0.158319
0.161107
0.162314
0.162187
0.160773
0.157615
0.128981
0.139322
0.147976
0.154818
0.159717
0.162774
0.164182
0.164211
0.162936
0.159959
0.127974
0.140323
0.149753
0.156978
0.162057
0.165239
0.166777
0.166955
0.165876
0.163219
0.132348
0.145928
0.154526
0.161094
0.165716
0.168665
0.170156
0.170417
0.169547
0.167302
0.166618
0.162065
0.164073
0.167672
0.170806
0.173054
0.17428
0.174533
0.173853
0.172057
0.177789
0.172472
0.172516
0.174387
0.176395
0.178006
0.178947
0.179164
0.178658
0.177298
0.183371
0.180231
0.179967
0.180939
0.182202
0.183318
0.184011
0.184187
0.18383
0.182856
0.188831
0.187126
0.186848
0.187338
0.188116
0.188865
0.189356
0.189494
0.189258
0.188604
0.194418
0.193527
0.193328
0.193582
0.194059
0.194551
0.19489
0.194995
0.194854
0.19445
0.200106
0.199682
0.199573
0.199713
0.200002
0.200315
0.200539
0.200617
0.200545
0.200334
0.205898
0.205744
0.205702
0.205777
0.205939
0.20612
0.206252
0.206301
0.206277
0.206212
0.211782
0.211803
0.211795
0.211816
0.211874
0.211941
0.211986
0.211997
0.211998
0.212047
0.217785
0.217914
0.217911
0.217865
0.217814
0.21776
0.217706
0.217661
0.217663
0.217794
0.223945
0.224135
0.224101
0.223957
0.223768
0.223564
0.22338
0.223248
0.223222
0.223403
0.230327
0.230528
0.230413
0.230122
0.229742
0.229339
0.228978
0.228715
0.228621
0.22881
0.237026
0.23716
0.236895
0.236386
0.235744
0.235072
0.23447
0.23402
0.233805
0.233938
0.244157
0.244099
0.243587
0.242768
0.241776
0.24075
0.239831
0.239127
0.23872
0.238704
0.251864
0.251406
0.250512
0.249273
0.247829
0.246362
0.245047
0.244012
0.243325
0.243022
0.260326
0.25909
0.257645
0.255868
0.25388
0.251898
0.250121
0.248683
0.247611
0.246822
0.269652
0.26712
0.26487
0.262445
0.259859
0.257341
0.255079
0.253187
0.251611
0.250091
0.279902
0.275164
0.271845
0.268737
0.265606
0.262646
0.259974
0.257637
0.255447
0.252875
0.290751
0.28246
0.277864
0.274224
0.270804
0.267701
0.264872
0.262221
0.259346
0.255346
0.302192
0.288024
0.281757
0.277959
0.274842
0.272243
0.269815
0.267203
0.263686
0.257852
0.313169
0.288269
0.280325
0.277773
0.27646
0.275704
0.27476
0.272927
0.269034
0.260997
0.167459
0.162209
0.164188
0.167739
0.170831
0.173066
0.174284
0.174535
0.173875
0.17203
0.177932
0.172409
0.172563
0.174432
0.176416
0.178019
0.178954
0.179169
0.178676
0.177279
0.183381
0.18016
0.179976
0.180959
0.182216
0.183329
0.184018
0.184192
0.183844
0.182844
0.188853
0.187096
0.186852
0.187349
0.188125
0.188874
0.189363
0.189499
0.189269
0.188597
0.194432
0.193513
0.193328
0.193587
0.194064
0.194557
0.194894
0.194999
0.19486
0.194446
0.200112
0.199675
0.199571
0.199714
0.200005
0.200319
0.200543
0.20062
0.200549
0.200333
0.2059
0.205742
0.2057
0.205777
0.20594
0.206122
0.206254
0.206303
0.206278
0.206212
0.211781
0.211804
0.211794
0.211815
0.211875
0.211942
0.211988
0.211998
0.211997
0.212048
0.217783
0.217917
0.21791
0.217865
0.217814
0.217761
0.217707
0.217661
0.21766
0.217797
0.223941
0.224139
0.2241
0.223957
0.223768
0.223564
0.223381
0.223248
0.223218
0.223407
0.230323
0.230533
0.230413
0.230121
0.229742
0.229339
0.228978
0.228715
0.228616
0.228814
0.23702
0.237164
0.236894
0.236384
0.235744
0.235071
0.23447
0.234021
0.233801
0.233943
0.244151
0.244101
0.243585
0.242766
0.241774
0.240749
0.239831
0.239128
0.238718
0.238709
0.25186
0.251401
0.250508
0.24927
0.247827
0.246361
0.245047
0.244014
0.243327
0.243026
0.260325
0.259072
0.257639
0.255864
0.253876
0.251897
0.250121
0.248686
0.247621
0.246823
0.269665
0.267082
0.264863
0.262442
0.259855
0.25734
0.25508
0.253192
0.251633
0.250086
0.279953
0.275095
0.271839
0.268736
0.265601
0.262644
0.259975
0.257646
0.255486
0.25286
0.290816
0.282286
0.27784
0.274222
0.270797
0.267701
0.264874
0.262234
0.259411
0.255317
0.302306
0.287701
0.281763
0.278002
0.274856
0.272256
0.269824
0.267224
0.263784
0.257803
0.314499
0.288378
0.28062
0.277957
0.276529
0.275737
0.274776
0.272957
0.269176
0.260921
0.167459
0.162209
0.164188
0.167739
0.170831
0.173066
0.174284
0.174535
0.173875
0.17203
0.177932
0.172409
0.172563
0.174432
0.176416
0.178019
0.178954
0.179169
0.178676
0.177279
0.183381
0.18016
0.179976
0.180959
0.182216
0.183329
0.184018
0.184192
0.183844
0.182844
0.188853
0.187096
0.186852
0.187349
0.188125
0.188874
0.189363
0.189499
0.189269
0.188597
0.194432
0.193513
0.193328
0.193587
0.194064
0.194557
0.194894
0.194999
0.19486
0.194446
0.200112
0.199675
0.199571
0.199714
0.200005
0.200319
0.200543
0.20062
0.200549
0.200333
0.2059
0.205742
0.2057
0.205777
0.20594
0.206122
0.206254
0.206303
0.206278
0.206212
0.211781
0.211804
0.211794
0.211815
0.211875
0.211942
0.211988
0.211998
0.211997
0.212048
0.217783
0.217917
0.21791
0.217865
0.217814
0.217761
0.217707
0.217661
0.21766
0.217797
0.223941
0.224139
0.2241
0.223957
0.223768
0.223564
0.223381
0.223248
0.223218
0.223407
0.230323
0.230533
0.230413
0.230121
0.229742
0.229339
0.228978
0.228715
0.228616
0.228814
0.23702
0.237164
0.236894
0.236384
0.235744
0.235071
0.23447
0.234021
0.233801
0.233943
0.244151
0.244101
0.243585
0.242766
0.241774
0.240749
0.239831
0.239128
0.238718
0.238709
0.25186
0.251401
0.250508
0.24927
0.247827
0.246361
0.245047
0.244014
0.243327
0.243026
0.260325
0.259072
0.257639
0.255864
0.253876
0.251897
0.250121
0.248686
0.247621
0.246823
0.269665
0.267082
0.264863
0.262442
0.259855
0.25734
0.25508
0.253192
0.251633
0.250086
0.279953
0.275095
0.271839
0.268736
0.265601
0.262644
0.259975
0.257646
0.255486
0.25286
0.290816
0.282286
0.27784
0.274222
0.270797
0.267701
0.264874
0.262234
0.259411
0.255317
0.302306
0.287701
0.281763
0.278002
0.274856
0.272256
0.269824
0.267224
0.263784
0.257803
0.314499
0.288378
0.28062
0.277957
0.276529
0.275737
0.274776
0.272957
0.269176
0.260921
0.166618
0.162065
0.164073
0.167672
0.170806
0.173054
0.17428
0.174533
0.173853
0.172057
0.177789
0.172472
0.172516
0.174387
0.176395
0.178006
0.178947
0.179164
0.178658
0.177298
0.183371
0.180231
0.179967
0.180939
0.182202
0.183318
0.184011
0.184187
0.18383
0.182856
0.188831
0.187126
0.186848
0.187338
0.188116
0.188865
0.189356
0.189494
0.189258
0.188604
0.194418
0.193527
0.193328
0.193582
0.194059
0.194551
0.19489
0.194995
0.194854
0.19445
0.200106
0.199682
0.199573
0.199713
0.200002
0.200315
0.200539
0.200617
0.200545
0.200334
0.205898
0.205744
0.205702
0.205777
0.205939
0.20612
0.206252
0.206301
0.206277
0.206212
0.211782
0.211803
0.211795
0.211816
0.211874
0.211941
0.211986
0.211997
0.211998
0.212047
0.217785
0.217914
0.217911
0.217865
0.217814
0.21776
0.217706
0.217661
0.217663
0.217794
0.223945
0.224135
0.224101
0.223957
0.223768
0.223564
0.22338
0.223248
0.223222
0.223403
0.230327
0.230528
0.230413
0.230122
0.229742
0.229339
0.228978
0.228715
0.228621
0.22881
0.237026
0.23716
0.236895
0.236386
0.235744
0.235072
0.23447
0.23402
0.233805
0.233938
0.244157
0.244099
0.243587
0.242768
0.241776
0.24075
0.239831
0.239127
0.23872
0.238704
0.251864
0.251406
0.250512
0.249273
0.247829
0.246362
0.245047
0.244012
0.243325
0.243022
0.260326
0.25909
0.257645
0.255868
0.25388
0.251898
0.250121
0.248683
0.247611
0.246822
0.269652
0.26712
0.26487
0.262445
0.259859
0.257341
0.255079
0.253187
0.251611
0.250091
0.279902
0.275164
0.271845
0.268737
0.265606
0.262646
0.259974
0.257637
0.255447
0.252875
0.290751
0.28246
0.277864
0.274224
0.270804
0.267701
0.264872
0.262221
0.259346
0.255346
0.302192
0.288024
0.281757
0.277959
0.274842
0.272243
0.269815
0.267203
0.263686
0.257852
0.313169
0.288269
0.280325
0.277773
0.27646
0.275704
0.27476
0.272927
0.269034
0.260997
0.252751
0.261358
0.266579
0.270676
0.274237
0.277485
0.2797
0.279883
0.276244
0.265773
0.223627
0.239428
0.250647
0.260196
0.269282
0.277938
0.285021
0.288862
0.286586
0.273749
0.206146
0.221466
0.234825
0.248329
0.262798
0.277778
0.291434
0.301021
0.301894
0.287384
0.192638
0.206475
0.220675
0.237109
0.256558
0.278393
0.300251
0.318125
0.324866
0.310621
0.182813
0.195476
0.210161
0.228937
0.252951
0.281922
0.313523
0.342751
0.359478
0.349923
0.176924
0.18928
0.204804
0.225909
0.254375
0.290782
0.333727
0.378188
0.411315
0.415396
0.174779
0.187885
0.205005
0.228926
0.26219
0.306666
0.362918
0.42764
0.486875
0.521354
0.17549
0.190079
0.209361
0.236517
0.275001
0.328451
0.400529
0.491316
0.591099
0.694965
0.177433
0.19314
0.21386
0.243064
0.285168
0.346066
0.434067
0.557396
0.726238
1.00609
0.178783
0.193998
0.213531
0.240754
0.280359
0.339695
0.432752
0.587054
0.87342
1.49054
0.253092
0.260895
0.266452
0.270666
0.274235
0.277493
0.279705
0.279916
0.27644
0.26566
0.224045
0.239352
0.250582
0.260162
0.269259
0.277932
0.285013
0.288898
0.286849
0.273596
0.206401
0.221484
0.234793
0.248288
0.262758
0.27775
0.291403
0.301054
0.302235
0.287188
0.192727
0.206459
0.220622
0.23704
0.256484
0.278326
0.300177
0.318141
0.325276
0.310382
0.18284
0.195442
0.210091
0.228839
0.252837
0.2818
0.313385
0.342727
0.35991
0.349669
0.176931
0.189243
0.204724
0.225789
0.254217
0.290583
0.333485
0.37807
0.411669
0.415349
0.174794
0.187863
0.204937
0.228803
0.261993
0.306353
0.362487
0.427305
0.486852
0.521844
0.175534
0.190113
0.209383
0.236517
0.274948
0.32825
0.400151
0.490968
0.589804
0.694647
0.177501
0.193253
0.214045
0.243354
0.285599
0.346627
0.434809
0.557999
0.723006
1.0038
0.178833
0.194036
0.213549
0.240757
0.280371
0.339769
0.433109
0.587488
0.869731
1.49979
0.253092
0.260895
0.266452
0.270666
0.274235
0.277493
0.279705
0.279916
0.27644
0.26566
0.224045
0.239352
0.250582
0.260162
0.269259
0.277932
0.285013
0.288898
0.286849
0.273596
0.206401
0.221484
0.234793
0.248288
0.262758
0.27775
0.291403
0.301054
0.302235
0.287188
0.192727
0.206459
0.220622
0.23704
0.256484
0.278326
0.300177
0.318141
0.325276
0.310382
0.18284
0.195442
0.210091
0.228839
0.252837
0.2818
0.313385
0.342727
0.35991
0.349669
0.176931
0.189243
0.204724
0.225789
0.254217
0.290583
0.333485
0.37807
0.411669
0.415349
0.174794
0.187863
0.204937
0.228803
0.261993
0.306353
0.362487
0.427305
0.486852
0.521844
0.175534
0.190113
0.209383
0.236517
0.274948
0.32825
0.400151
0.490968
0.589804
0.694647
0.177501
0.193253
0.214045
0.243354
0.285599
0.346627
0.434809
0.557999
0.723006
1.0038
0.178833
0.194036
0.213549
0.240757
0.280371
0.339769
0.433109
0.587488
0.869731
1.49979
0.252751
0.261358
0.266579
0.270676
0.274237
0.277485
0.2797
0.279883
0.276244
0.265773
0.223627
0.239428
0.250647
0.260196
0.269282
0.277938
0.285021
0.288862
0.286586
0.273749
0.206146
0.221466
0.234825
0.248329
0.262798
0.277778
0.291434
0.301021
0.301894
0.287384
0.192638
0.206475
0.220675
0.237109
0.256558
0.278393
0.300251
0.318125
0.324866
0.310621
0.182814
0.195476
0.210161
0.228937
0.252951
0.281922
0.313523
0.342751
0.359478
0.349923
0.176924
0.18928
0.204804
0.225909
0.254375
0.290782
0.333727
0.378188
0.411315
0.415396
0.174779
0.187885
0.205005
0.228926
0.26219
0.306666
0.362918
0.42764
0.486875
0.521354
0.17549
0.190079
0.209361
0.236517
0.275001
0.328451
0.400529
0.491316
0.591099
0.694965
0.177433
0.19314
0.21386
0.243064
0.285168
0.346066
0.434067
0.557396
0.726238
1.00609
0.178783
0.193998
0.213531
0.240754
0.280359
0.339695
0.432752
0.587054
0.87342
1.49054
-0.153798
-0.133127
-0.115079
-0.0984357
-0.081817
-0.0650155
-0.0480228
-0.0308737
-0.0136287
0.00364136
0.0208601
0.0379554
0.0548617
0.0715302
0.0879879
0.104423
0.121319
0.139716
0.162914
0.200679
-0.139827
-0.126343
-0.11182
-0.0965681
-0.0806362
-0.0642347
-0.0474988
-0.0305254
-0.0133987
0.00380658
0.0210253
0.0381992
0.0552887
0.0722973
0.0892969
0.106494
0.124286
0.143294
0.165028
0.192932
-0.136612
-0.124619
-0.11092
-0.0960613
-0.0803651
-0.0640955
-0.0474255
-0.0304774
-0.013345
0.00389688
0.0211875
0.038478
0.0557351
0.0729522
0.0901683
0.1075
0.125159
0.14344
0.162897
0.18443
-0.137799
-0.125499
-0.111623
-0.0966315
-0.0808324
-0.0644663
-0.0477026
-0.0306616
-0.0134316
0.00392101
0.021343
0.0387893
0.0562196
0.0735986
0.0908988
0.108109
0.125229
0.14226
0.159259
0.176327
-0.140489
-0.127516
-0.113151
-0.0977803
-0.0816892
-0.0650937
-0.0481458
-0.0309503
-0.0135807
0.00390972
0.021477
0.0390775
0.056659
0.0741504
0.0914536
0.108441
0.124935
0.140735
0.155667
0.169695
-0.142911
-0.129323
-0.114492
-0.0987606
-0.0823945
-0.0655895
-0.0484797
-0.031154
-0.0136718
0.00392395
0.0215952
0.0392962
0.0569602
0.0744835
0.0917087
0.108446
0.124386
0.13926
0.152856
0.165235
-0.143406
-0.129579
-0.114616
-0.0988065
-0.0823953
-0.0655627
-0.0484336
-0.0310908
-0.0135901
0.00402706
0.0217202
0.0394364
0.057095
0.0745705
0.0916778
0.108172
0.123752
0.138139
0.151192
0.16313
-0.141096
-0.127628
-0.113049
-0.0975911
-0.0814744
-0.0648754
-0.0479243
-0.030714
-0.013311
0.00423205
0.0218634
0.0395177
0.057102
0.0744796
0.0914593
0.107798
0.123225
0.137523
0.150656
0.162985
-0.135994
-0.123662
-0.110059
-0.0953934
-0.0798905
-0.063751
-0.0471359
-0.0301681
-0.0129404
0.00447294
0.022005
0.0395749
0.0570804
0.0743836
0.0913003
0.107607
0.123071
0.137531
0.151021
0.163971
-0.127731
-0.117695
-0.105852
-0.0924898
-0.0779236
-0.0624407
-0.0462771
-0.0296154
-0.0125934
0.0046828
0.0221229
0.0396444
0.0571446
0.0744877
0.0914997
0.107968
0.123668
0.138422
0.15222
0.165386
-0.154181
-0.13301
-0.115065
-0.0984581
-0.0818297
-0.0650231
-0.0480281
-0.030877
-0.0136304
0.00364099
0.0208607
0.0379562
0.0548616
0.0715272
0.0879782
0.104403
0.121296
0.139666
0.162584
0.20008
-0.13977
-0.126173
-0.111743
-0.0965312
-0.0806097
-0.0642162
-0.0474862
-0.0305168
-0.0133932
0.00381
0.0210277
0.0382021
0.055294
0.0723082
0.0893162
0.106526
0.124345
0.143365
0.164927
0.192675
-0.136673
-0.124594
-0.110895
-0.096043
-0.0803503
-0.0640848
-0.0474181
-0.0304722
-0.0133414
0.00389928
0.021189
0.0384789
0.0557358
0.0729526
0.0901669
0.107495