/*--------------------------------*- C++ -*----------------------------------*\
| =========                 |                                                 |
| \\      /  F ield         | OpenFOAM: The Open Source CFD Toolbox           |
|  \\    /   O peration     | Version:  2.4.0                                 |
|   \\  /    A nd           | Web:      www.OpenFOAM.org                      |
|    \\/     M anipulation  |                                                 |
\*---------------------------------------------------------------------------*/
FoamFile
{
    version     2.0;
    format      ascii;
    class       surfaceScalarField;
    location    "4.8";
    object      phi;
}
// * * * * * * * * * * * * * * * * * * * * * * * * * * * * * * * * * * * * * //

dimensions      [0 3 -1 0 0 0 0];

internalField   nonuniform List<scalar> 
12720
(
1.55233e-07
-1.56023e-07
-4.7723e-11
-5.40148e-07
6.93658e-07
1.72366e-09
-2.06848e-06
1.52575e-06
2.58763e-09
-4.18259e-06
2.11078e-06
3.32429e-09
-6.64584e-06
2.45949e-06
3.76468e-09
-9.26321e-06
2.61342e-06
3.94726e-09
-1.18741e-05
2.60696e-06
3.95965e-09
-1.43395e-05
2.46153e-06
3.80473e-09
-1.65377e-05
2.19477e-06
3.45602e-09
1.83554e-06
2.88991e-09
-1.83761e-05
-7.25562e-07
5.71e-07
-1.46077e-09
-3.29752e-06
3.26522e-06
4.00903e-10
-7.50536e-06
5.7351e-06
-1.50874e-09
-1.29244e-05
7.53217e-06
-2.3925e-09
-1.91053e-05
8.64323e-06
-2.83582e-09
-2.56283e-05
9.13952e-06
-3.11434e-09
-3.21127e-05
9.09456e-06
-3.12386e-09
-3.82155e-05
8.56718e-06
-2.90412e-09
-4.36407e-05
7.6225e-06
-2.54696e-09
6.36907e-06
-2.19729e-09
-4.8172e-05
-1.69475e-06
2.26826e-06
-2.51176e-09
-6.13931e-06
7.70751e-06
2.26551e-09
-1.27378e-05
1.23334e-05
1.0429e-10
-2.08935e-05
1.5688e-05
-9.45566e-11
-3.00188e-05
1.77685e-05
1.17944e-10
-3.95543e-05
1.86749e-05
1.10511e-10
-4.89711e-05
1.85112e-05
1.22613e-10
-5.77746e-05
1.73705e-05
1.82197e-10
-6.55291e-05
1.53768e-05
2.51223e-10
1.27541e-05
1.54691e-10
-7.19143e-05
-2.49188e-06
4.7638e-06
-3.6546e-09
-8.52334e-06
1.37358e-05
3.19198e-09
-1.71075e-05
2.09177e-05
-1.9285e-11
-2.74586e-05
2.60393e-05
-2.88299e-10
-3.88742e-05
2.9184e-05
8.15098e-11
-5.06974e-05
3.0498e-05
1.24743e-10
-6.22932e-05
3.01069e-05
1.66464e-10
-7.30447e-05
2.81217e-05
2.73906e-10
-8.23837e-05
2.47153e-05
4.75626e-10
2.02426e-05
4.1959e-10
-8.98726e-05
-3.05626e-06
7.82454e-06
-4.4743e-09
-1.02489e-05
2.09247e-05
3.75213e-09
-2.02867e-05
3.09559e-05
-4.38985e-10
-3.22246e-05
3.79781e-05
-9.36688e-10
-4.52706e-05
4.22306e-05
-5.68539e-10
-5.86999e-05
4.39279e-05
-5.42084e-10
-7.17995e-05
4.32069e-05
-4.83855e-10
-8.38448e-05
4.01673e-05
-2.85542e-10
-9.41208e-05
3.4991e-05
2.98173e-10
2.81404e-05
5.88472e-10
-0.000102019
-3.36325e-06
1.11927e-05
-4.89592e-09
-1.1209e-05
2.87664e-05
4.14865e-09
-2.20717e-05
4.18191e-05
-5.75731e-10
-3.49074e-05
5.08151e-05
-1.19224e-09
-4.88705e-05
5.61944e-05
-8.28347e-10
-6.31991e-05
5.82573e-05
-8.21589e-10
-7.71321e-05
5.71407e-05
-8.02503e-10
-8.98545e-05
5.28903e-05
-6.45974e-10
-0.000100482
4.56184e-05
5.15634e-10
3.5785e-05
1.64083e-09
-0.000108129
-3.40341e-06
1.46007e-05
-4.55719e-09
-1.13525e-05
3.67112e-05
4.24684e-09
-2.23473e-05
5.28145e-05
-6.17662e-10
-3.53161e-05
6.37852e-05
-1.30517e-09
-4.93993e-05
7.02787e-05
-9.95269e-10
-6.38333e-05
7.26923e-05
-1.03051e-09
-7.78489e-05
7.11575e-05
-1.13999e-09
-9.05809e-05
6.56237e-05
-1.36497e-09
-0.000100979
5.60159e-05
6.77451e-10
4.2518e-05
4.17092e-09
-0.000107716
-3.18303e-06
1.77882e-05
-4.52483e-09
-1.06851e-05
4.42092e-05
4.08797e-09
-2.1098e-05
6.3228e-05
-5.62345e-10
-3.33828e-05
7.60713e-05
-1.26795e-09
-4.66959e-05
8.35928e-05
-1.03668e-09
-6.02962e-05
8.62936e-05
-1.0525e-09
-7.34497e-05
8.43122e-05
-1.19084e-09
-8.53135e-05
7.74896e-05
-2.10901e-09
-9.47586e-05
6.5459e-05
2.00385e-09
4.75846e-05
1.45192e-08
-9.98397e-05
-2.73335e-06
2.05253e-05
-3.75745e-09
-9.29197e-06
5.07641e-05
3.71035e-09
-1.84538e-05
7.23902e-05
-3.89648e-10
-2.92473e-05
8.68658e-05
-1.06113e-09
-4.0843e-05
9.51895e-05
-9.72044e-10
-5.25058e-05
9.79574e-05
-1.04991e-09
-6.35364e-05
9.53442e-05
-1.40724e-09
-7.31672e-05
8.71252e-05
-4.92187e-09
-8.04103e-05
7.27036e-05
-1.46759e-09
4.98868e-05
3.25935e-08
-8.2745e-05
-2.11889e-06
-2.72406e-09
2.26469e-05
-7.36311e-06
3.20628e-09
5.60051e-05
-1.47488e-05
-7.32508e-11
7.97759e-05
-2.33758e-05
-6.06296e-10
9.54935e-05
-3.23847e-05
-6.41241e-10
0.000104199
-4.09432e-05
-9.35116e-10
0.000106517
-4.82272e-05
-1.98027e-09
0.00010263
-5.3315e-05
-1.22374e-08
9.22254e-05
-5.50945e-05
-2.86306e-08
7.45117e-05
9.84778e-09
-5.2393e-05
4.71755e-05
1.5683e-07
-1.56863e-07
-1.4426e-11
-5.40689e-07
6.99251e-07
-8.3925e-12
-2.06919e-06
1.5311e-06
-6.46901e-12
-4.1827e-06
2.11684e-06
-5.44581e-12
-6.64569e-06
2.46676e-06
-4.20592e-12
-9.26306e-06
2.62132e-06
-3.30139e-12
-1.18741e-05
2.61499e-06
-2.62922e-12
-1.43396e-05
2.46932e-06
-2.0814e-12
-1.65381e-05
2.20195e-06
-1.66125e-12
1.84155e-06
-1.33339e-12
-1.83767e-05
-7.3018e-07
5.71864e-07
-8.12871e-12
-3.30311e-06
3.27259e-06
-6.4645e-12
-7.51033e-06
5.73682e-06
-6.46266e-12
-1.29278e-05
7.53191e-06
-5.81257e-12
-1.91069e-05
8.64307e-06
-4.65685e-12
-2.56284e-05
9.13965e-06
-3.69964e-12
-3.21116e-05
9.09512e-06
-2.95285e-12
-3.82135e-05
8.56832e-06
-2.34986e-12
-4.36384e-05
7.62425e-06
-1.87401e-12
6.37068e-06
-1.5019e-12
-4.81697e-05
-1.70014e-06
2.2695e-06
-6.39957e-12
-6.14004e-06
7.71475e-06
-6.42825e-12
-1.27385e-05
1.23354e-05
-6.15176e-12
-2.08945e-05
1.56878e-05
-5.28918e-12
-3.00194e-05
1.77681e-05
-4.32174e-12
-3.95544e-05
1.86748e-05
-3.49531e-12
-4.89707e-05
1.85116e-05
-2.83488e-12
-5.7774e-05
1.73718e-05
-2.29257e-12
-6.55288e-05
1.53793e-05
-1.84898e-12
1.27564e-05
-1.49577e-12
-7.19143e-05
-2.49871e-06
4.76457e-06
-5.36532e-12
-8.52218e-06
1.37414e-05
-5.63058e-12
-1.71063e-05
2.09196e-05
-5.15934e-12
-2.74583e-05
2.60395e-05
-4.49214e-12
-3.88741e-05
2.9184e-05
-3.77414e-12
-5.06974e-05
3.04982e-05
-3.12214e-12
-6.22931e-05
3.01075e-05
-2.58848e-12
-7.30446e-05
2.81235e-05
-2.14132e-12
-8.23842e-05
2.47194e-05
-1.75733e-12
2.02466e-05
-1.43901e-12
-8.9874e-05
-3.06479e-06
7.82489e-06
-4.06408e-12
-1.02475e-05
2.09279e-05
-4.41412e-12
-2.02851e-05
3.09567e-05
-4.10954e-12
-3.22242e-05
3.79777e-05
-3.68269e-12
-4.52706e-05
4.22298e-05
-3.18705e-12
-5.87001e-05
4.39271e-05
-2.69816e-12
-7.17995e-05
4.32064e-05
-2.2899e-12
-8.38444e-05
4.01681e-05
-1.94417e-12
-9.41212e-05
3.49965e-05
-1.63198e-12
2.81476e-05
-1.36019e-12
-0.000102022
-3.37263e-06
1.11926e-05
-3.1687e-12
-1.12075e-05
2.87669e-05
-3.41275e-12
-2.207e-05
4.18186e-05
-3.21229e-12
-3.49073e-05
5.08139e-05
-2.94669e-12
-4.8871e-05
5.61927e-05
-2.62568e-12
-6.32e-05
5.82552e-05
-2.27704e-12
-7.71328e-05
5.71384e-05
-1.98424e-12
-8.98542e-05
5.28888e-05
-1.73883e-12
-0.000100483
4.56256e-05
-1.5064e-12
3.57997e-05
-1.30315e-12
-0.000108133
-3.41272e-06
1.46008e-05
-2.72906e-12
-1.13509e-05
3.67093e-05
-2.65736e-12
-2.23458e-05
5.2813e-05
-2.50519e-12
-3.53166e-05
6.37833e-05
-2.32534e-12
-4.94009e-05
7.0276e-05
-2.12078e-12
-6.38357e-05
7.2689e-05
-1.88322e-12
-7.78513e-05
7.11529e-05
-1.68921e-12
-9.05811e-05
6.56172e-05
-1.53045e-12
-0.000100978
5.60233e-05
-1.35929e-12
4.25505e-05
-1.21614e-12
-0.000107725
-3.19181e-06
1.77881e-05
-1.9618e-12
-1.06837e-05
4.42052e-05
-2.07203e-12
-2.10969e-05
6.32257e-05
-1.9599e-12
-3.3384e-05
7.60691e-05
-1.82642e-12
-4.66987e-05
8.35897e-05
-1.702e-12
-6.03003e-05
8.62895e-05
-1.55429e-12
-7.34543e-05
8.43057e-05
-1.43931e-12
-8.53138e-05
7.74746e-05
-1.34125e-12
-9.4746e-05
6.54576e-05
-1.16967e-12
4.76676e-05
-9.75072e-13
-9.98486e-05
-2.74077e-06
2.05251e-05
-1.52117e-12
-9.29063e-06
5.07588e-05
-1.62641e-12
-1.8453e-05
7.23877e-05
-1.53909e-12
-2.92492e-05
8.68642e-05
-1.44323e-12
-4.08478e-05
9.51874e-05
-1.38299e-12
-5.25144e-05
9.7955e-05
-1.31024e-12
-6.35509e-05
9.53409e-05
-1.26212e-12
-7.31871e-05
8.71058e-05
-1.23786e-12
-8.03865e-05
7.26555e-05
-1.0775e-12
5.00047e-05
-7.80541e-13
-8.26909e-05
-2.1243e-06
-1.19245e-12
2.26467e-05
-7.36149e-06
-1.28461e-12
5.59992e-05
-1.47474e-05
-1.21381e-12
7.97735e-05
-2.33767e-05
-1.15108e-12
9.54929e-05
-3.23895e-05
-1.14029e-12
0.0001042
-4.09552e-05
-1.11426e-12
0.00010652
-4.8256e-05
-1.09392e-12
0.00010264
-5.34037e-05
-1.16632e-12
9.22413e-05
-5.5236e-05
-1.14872e-12
7.44591e-05
-9.36017e-13
-5.21639e-05
4.69425e-05
1.56885e-07
-1.56807e-07
-9.29816e-11
-5.40647e-07
6.99287e-07
-1.76302e-09
-2.06916e-06
1.53112e-06
-2.60505e-09
-4.18268e-06
2.11685e-06
-3.33526e-09
-6.64568e-06
2.46676e-06
-3.77208e-09
-9.26305e-06
2.62133e-06
-3.95252e-09
-1.18741e-05
2.61499e-06
-3.96368e-09
-1.43396e-05
2.46932e-06
-3.80789e-09
-1.65381e-05
2.20195e-06
-3.45855e-09
1.84155e-06
-2.89194e-09
-1.83767e-05
-7.30144e-07
5.71907e-07
1.42233e-09
-3.30307e-06
3.27263e-06
-4.22997e-10
-7.5103e-06
5.73685e-06
1.49367e-09
-1.29278e-05
7.53193e-06
2.38176e-09
-1.91069e-05
8.64307e-06
2.82811e-09
-2.56284e-05
9.13966e-06
3.10872e-09
-3.21116e-05
9.09512e-06
3.11956e-09
-3.82135e-05
8.56832e-06
2.90074e-09
-4.36384e-05
7.62425e-06
2.54428e-09
6.37068e-06
2.19515e-09
-4.81697e-05
-1.70012e-06
2.26953e-06
2.49494e-09
-6.14001e-06
7.71479e-06
-2.28027e-09
-1.27385e-05
1.23355e-05
-1.16034e-10
-2.08945e-05
1.56878e-05
8.55955e-11
-3.00194e-05
1.77681e-05
-1.24827e-10
-3.95544e-05
1.86748e-05
-1.15747e-10
-4.89707e-05
1.85116e-05
-1.26712e-10
-5.7774e-05
1.73718e-05
-1.8547e-10
-6.55288e-05
1.53793e-05
-2.53843e-10
1.27564e-05
-1.56802e-10
-7.19143e-05
-2.4987e-06
4.76458e-06
3.64413e-09
-8.52217e-06
1.37414e-05
-3.20232e-09
-1.71063e-05
2.09196e-05
1.0482e-11
-2.74583e-05
2.60395e-05
2.81154e-10
-3.88741e-05
2.9184e-05
-8.73584e-11
-5.06974e-05
3.04982e-05
-1.29384e-10
-6.22931e-05
3.01075e-05
-1.70201e-10
-7.30446e-05
2.81235e-05
-2.76963e-10
-8.23842e-05
2.47194e-05
-4.78121e-10
2.02466e-05
-4.21628e-10
-8.9874e-05
-3.06478e-06
7.8249e-06
4.46747e-09
-1.02475e-05
2.09279e-05
-3.75936e-09
-2.02851e-05
3.09567e-05
4.3248e-10
-3.22242e-05
3.79777e-05
9.31149e-10
-4.52706e-05
4.22298e-05
5.63785e-10
-5.87001e-05
4.39271e-05
5.38184e-10
-7.17995e-05
4.32064e-05
4.80629e-10
-8.38444e-05
4.01681e-05
2.82828e-10
-9.41212e-05
3.49966e-05
-3.00446e-10
2.81476e-05
-5.90361e-10
-0.000102022
-3.37263e-06
1.11926e-05
4.89122e-09
-1.12075e-05
2.87669e-05
-4.1539e-09
-2.207e-05
4.18186e-05
5.70806e-10
-3.49073e-05
5.08139e-05
1.1879e-09
-4.8871e-05
5.61927e-05
8.245e-10
-6.32e-05
5.82553e-05
8.1834e-10
-7.71328e-05
5.71384e-05
7.99729e-10
-8.98541e-05
5.28888e-05
6.43557e-10
-0.000100483
4.56256e-05
-5.17737e-10
3.57997e-05
-1.64263e-09
-0.000108133
-3.41272e-06
1.46008e-05
4.55178e-09
-1.13509e-05
3.67093e-05
-4.25066e-09
-2.23458e-05
5.2813e-05
6.13948e-10
-3.53166e-05
6.37833e-05
1.30182e-09
-4.94009e-05
7.02761e-05
9.92221e-10
-6.38357e-05
7.2689e-05
1.02786e-09
-7.78513e-05
7.11529e-05
1.13764e-09
-9.05811e-05
6.56172e-05
1.36282e-09
-0.000100978
5.60233e-05
-6.79424e-10
4.25505e-05
-4.17269e-09
-0.000107725
-3.19181e-06
1.77881e-05
4.5223e-09
-1.06837e-05
4.42052e-05
-4.09083e-09
-2.10969e-05
6.32257e-05
5.59542e-10
-3.3384e-05
7.60691e-05
1.26538e-09
-4.66987e-05
8.35897e-05
1.03429e-09
-6.03003e-05
8.62895e-05
1.05034e-09
-7.34543e-05
8.43057e-05
1.18885e-09
-8.53138e-05
7.74746e-05
2.10711e-09
-9.4746e-05
6.54576e-05
-2.00569e-09
4.76676e-05
-1.45209e-08
-9.98486e-05
-2.74077e-06
2.05251e-05
3.75543e-09
-9.29063e-06
5.07588e-05
-3.71254e-09
-1.8453e-05
7.23877e-05
3.87501e-10
-2.92491e-05
8.68642e-05
1.05914e-09
-4.08478e-05
9.51874e-05
9.70156e-10
-5.25144e-05
9.7955e-05
1.04813e-09
-6.35509e-05
9.53409e-05
1.40554e-09
-7.31871e-05
8.71058e-05
4.92025e-09
-8.03865e-05
7.26555e-05
1.46601e-09
5.00047e-05
-3.25951e-08
-8.26909e-05
-2.1243e-06
2.72244e-09
2.26467e-05
-7.36149e-06
-3.20799e-09
5.59992e-05
-1.47474e-05
7.15881e-11
7.97735e-05
-2.33767e-05
6.04724e-10
9.54929e-05
-3.23895e-05
6.39714e-10
0.0001042
-4.09552e-05
9.33604e-10
0.00010652
-4.8256e-05
1.9788e-09
0.00010264
-5.34037e-05
1.22361e-08
9.22413e-05
-5.5236e-05
2.86294e-08
7.44591e-05
-9.84914e-09
-5.21639e-05
4.69425e-05
1.55581e-07
-1.55674e-07
-5.39985e-07
6.93804e-07
-2.0684e-06
1.52581e-06
-4.18254e-06
2.11081e-06
-6.64581e-06
2.4595e-06
-9.26319e-06
2.61343e-06
-1.18741e-05
2.60696e-06
-1.43395e-05
2.46153e-06
-1.65377e-05
2.19477e-06
1.83554e-06
-1.83761e-05
-7.25417e-07
5.71165e-07
-3.29739e-06
3.26535e-06
-7.50527e-06
5.73518e-06
-1.29243e-05
7.53221e-06
-1.91052e-05
8.64326e-06
-2.56282e-05
9.13953e-06
-3.21127e-05
9.09457e-06
-3.82155e-05
8.56719e-06
-4.36406e-05
7.6225e-06
6.36907e-06
-4.8172e-05
-1.69469e-06
2.26835e-06
-6.13923e-06
7.70761e-06
-1.27377e-05
1.23335e-05
-2.08934e-05
1.5688e-05
-3.00188e-05
1.77685e-05
-3.95543e-05
1.86749e-05
-4.8971e-05
1.85112e-05
-5.77745e-05
1.73705e-05
-6.55291e-05
1.53768e-05
1.27541e-05
-7.19143e-05
-2.49185e-06
4.76385e-06
-8.52329e-06
1.37358e-05
-1.71075e-05
2.09177e-05
-2.74585e-05
2.60394e-05
-3.88741e-05
2.9184e-05
-5.06974e-05
3.0498e-05
-6.22932e-05
3.01069e-05
-7.30447e-05
2.81217e-05
-8.23837e-05
2.47153e-05
2.02426e-05
-8.98726e-05
-3.05625e-06
7.82457e-06
-1.02489e-05
2.09248e-05
-2.02867e-05
3.09559e-05
-3.22246e-05
3.79782e-05
-4.52706e-05
4.22306e-05
-5.86999e-05
4.39279e-05
-7.17995e-05
4.32069e-05
-8.38447e-05
4.01673e-05
-9.41208e-05
3.4991e-05
2.81404e-05
-0.000102019
-3.36325e-06
1.11927e-05
-1.1209e-05
2.87664e-05
-2.20716e-05
4.18191e-05
-3.49074e-05
5.08151e-05
-4.88705e-05
5.61945e-05
-6.31991e-05
5.82573e-05
-7.71321e-05
5.71407e-05
-8.98545e-05
5.28903e-05
-0.000100482
4.56184e-05
3.5785e-05
-0.000108129
-3.40341e-06
1.46007e-05
-1.13525e-05
3.67112e-05
-2.23473e-05
5.28145e-05
-3.53161e-05
6.37852e-05
-4.93993e-05
7.02787e-05
-6.38333e-05
7.26923e-05
-7.78489e-05
7.11575e-05
-9.05809e-05
6.56237e-05
-0.000100979
5.60159e-05
4.2518e-05
-0.000107716
-3.18303e-06
1.77882e-05
-1.06851e-05
4.42092e-05
-2.1098e-05
6.3228e-05
-3.33828e-05
7.60713e-05
-4.66959e-05
8.35928e-05
-6.02962e-05
8.62936e-05
-7.34497e-05
8.43122e-05
-8.53135e-05
7.74896e-05
-9.47585e-05
6.5459e-05
4.75846e-05
-9.98397e-05
-2.73335e-06
2.05253e-05
-9.29197e-06
5.07641e-05
-1.84538e-05
7.23902e-05
-2.92473e-05
8.68658e-05
-4.0843e-05
9.51895e-05
-5.25058e-05
9.79574e-05
-6.35364e-05
9.53442e-05
-7.31672e-05
8.71253e-05
-8.04103e-05
7.27036e-05
4.98868e-05
-8.2745e-05
-2.11889e-06
2.26469e-05
-7.36311e-06
5.60051e-05
-1.47487e-05
7.97759e-05
-2.33758e-05
9.54935e-05
-3.23847e-05
0.000104199
-4.09432e-05
0.000106517
-4.82272e-05
0.00010263
-5.3315e-05
9.22254e-05
-5.50944e-05
7.45117e-05
-5.2393e-05
4.71755e-05
-1.9813e-05
1.43473e-06
2.17545e-09
-2.08697e-05
1.05511e-06
1.52381e-09
-2.16089e-05
7.38202e-07
1.01049e-09
-2.2108e-05
4.98456e-07
6.39469e-10
-2.24404e-05
3.32077e-07
3.93848e-10
-2.26676e-05
2.26961e-07
2.45922e-10
-2.28375e-05
1.69722e-07
1.69074e-10
-2.29868e-05
1.4911e-07
1.43138e-10
-2.31437e-05
1.56714e-07
1.54429e-10
-2.333e-05
1.86121e-07
1.94231e-10
-2.35615e-05
2.3131e-07
2.56406e-10
-2.38465e-05
2.84644e-07
3.34481e-10
-2.41816e-05
3.34674e-07
4.18625e-10
-2.45461e-05
3.64009e-07
4.92548e-10
-2.48945e-05
3.47825e-07
5.2926e-10
-2.51491e-05
2.54098e-07
4.85167e-10
-2.51976e-05
4.82573e-08
3.05696e-10
-2.4895e-05
-3.02617e-07
-4.30818e-11
-2.4088e-05
-8.06314e-07
-6.56698e-10
-1.43723e-06
-1.58074e-09
-2.26492e-05
-5.17206e-05
4.98532e-06
-1.94378e-09
-5.43467e-05
3.68275e-06
-1.62343e-09
-5.62044e-05
2.59721e-06
-1.28521e-09
-5.74786e-05
1.77364e-06
-9.83333e-10
-5.83433e-05
1.19751e-06
-7.37e-10
-5.89434e-05
8.27642e-07
-5.55844e-10
-5.93919e-05
6.18686e-07
-4.39555e-10
-5.97742e-05
5.31766e-07
-3.80731e-10
-6.01537e-05
5.36635e-07
-3.68939e-10
-6.05763e-05
6.09032e-07
-3.91981e-10
-6.10702e-05
7.25691e-07
-4.34979e-10
-6.16433e-05
8.58209e-07
-4.78241e-10
-6.22747e-05
9.6656e-07
-4.94928e-10
-6.29034e-05
9.93178e-07
-4.49461e-10
-6.34147e-05
8.59434e-07
-2.98043e-10
-6.36283e-05
4.67719e-07
5.19913e-12
-6.32945e-05
-2.86103e-07
4.90222e-10
-6.21115e-05
-1.4867e-06
1.14606e-09
-5.97654e-05
-3.15438e-06
1.93172e-09
-5.19438e-06
2.6708e-09
-5.60109e-05
-7.68124e-05
9.88367e-06
-2.39508e-10
-8.03556e-05
7.22637e-06
-4.17605e-10
-8.28101e-05
5.0521e-06
-4.58662e-10
-8.44643e-05
3.42831e-06
-4.36723e-10
-8.55715e-05
2.30504e-06
-3.73845e-10
-8.63307e-05
1.58718e-06
-2.99099e-10
-8.689e-05
1.17823e-06
-2.31221e-10
-8.73566e-05
9.98496e-07
-1.77435e-10
-8.78068e-05
9.87043e-07
-1.38666e-10
-8.82931e-05
1.09543e-06
-1.12356e-10
-8.88452e-05
1.27785e-06
-9.4044e-11
-8.94666e-05
1.47969e-06
-7.80243e-11
-9.01257e-05
1.62574e-06
-5.75043e-11
-9.07419e-05
1.60936e-06
-2.408e-11
-9.11682e-05
1.28569e-06
3.34546e-11
-9.11749e-05
4.74374e-07
1.24528e-10
-9.04418e-05
-1.01951e-06
2.43977e-10
-8.85707e-05
-3.35817e-06
3.83932e-10
-8.51352e-05
-6.59041e-06
5.28169e-10
-1.05458e-05
4.4935e-10
-7.97842e-05
-9.53654e-05
1.53769e-05
-3.81581e-10
-9.91312e-05
1.09927e-05
-6.15191e-10
-0.000101602
7.5234e-06
-6.11923e-10
-0.000103185
5.01155e-06
-5.44658e-10
-0.000104197
3.31777e-06
-4.34212e-10
-0.000104864
2.2547e-06
-3.21828e-10
-0.000105339
1.65326e-06
-2.28413e-10
-0.000105723
1.38331e-06
-1.57555e-10
-0.000106086
1.35014e-06
-1.07101e-10
-0.000106472
1.48151e-06
-7.30292e-11
-0.000106906
1.71149e-06
-5.11507e-11
-0.000107389
1.96316e-06
-3.7655e-11
-0.000107895
2.13106e-06
-2.89398e-11
-0.00010835
2.06437e-06
-1.93506e-11
-0.000108618
1.55394e-06
5.28074e-12
-0.000108474
3.30211e-07
6.06235e-11
-0.00010758
-1.91329e-06
1.29767e-10
-0.000105479
-5.45951e-06
2.60157e-10
-0.000101626
-1.04445e-05
5.09824e-10
-1.6669e-05
4.50254e-10
-9.55029e-05
-0.00010733
2.0689e-05
-1.03675e-09
-0.000110584
1.4248e-05
-1.1631e-09
-0.000112472
9.41216e-06
-9.43876e-10
-0.000113537
6.07719e-06
-7.38668e-10
-0.000114137
3.91841e-06
-5.20918e-10
-0.000114488
2.60539e-06
-3.42996e-10
-0.000114711
1.87736e-06
-2.19456e-10
-0.000114879
1.55119e-06
-1.39561e-10
-0.000115032
1.50317e-06
-9.14647e-11
-0.000115195
1.64498e-06
-6.58484e-11
-0.000115384
1.90025e-06
-5.62462e-11
-0.000115603
2.18211e-06
-5.83845e-11
-0.000115842
2.37041e-06
-6.91152e-11
-0.000116066
2.28831e-06
-8.21569e-11
-0.000116192
1.67976e-06
-7.30439e-11
-0.000116055
1.92783e-07
-7.30986e-12
-0.00011536
-2.60758e-06
6.2402e-11
-0.000113631
-7.18912e-06
2.56379e-10
-0.000110181
-1.38951e-05
8.98192e-10
-2.26439e-05
1.28961e-09
-0.000104208
-0.000112397
2.49601e-05
-2.21066e-09
-0.000114346
1.61987e-05
-1.88975e-09
-0.000115067
1.01336e-05
-1.1868e-09
-0.000115232
6.24305e-06
-7.95026e-10
-0.000115184
3.87155e-06
-4.68382e-10
-0.000115074
2.49567e-06
-2.47603e-10
-0.000114955
1.75856e-06
-1.22959e-10
-0.00011484
1.43593e-06
-5.6757e-11
-0.000114727
1.38981e-06
-2.44196e-11
-0.000114612
1.53012e-06
-1.20467e-11
-0.000114496
1.78471e-06
-1.27597e-11
-0.000114388
2.07395e-06
-2.41238e-11
-0.000114303
2.28558e-06
-4.63188e-11
-0.000114261
2.24634e-06
-7.84475e-11
-0.00011427
1.68826e-06
-9.75607e-11
-0.000114285
2.08413e-07
-5.88911e-11
-0.000114139
-2.75344e-06
-3.19473e-11
-0.000113415
-7.91322e-06
1.41469e-10
-0.000111299
-1.60125e-05
1.54681e-09
-2.74239e-05
3.27756e-09
-0.000106523
-0.000109888
2.71374e-05
-5.87705e-09
-0.000109676
1.59911e-05
-3.88718e-09
-0.000108739
9.19844e-06
-1.80098e-09
-0.000107783
5.28725e-06
-9.39022e-10
-0.000107013
3.10223e-06
-3.99497e-10
-0.000106436
1.91853e-06
-1.24052e-10
-0.000105994
1.3169e-06
-1.5662e-11
-0.000105624
1.06627e-06
1.99906e-11
-0.000105275
1.04003e-06
2.44198e-11
-0.000104909
1.16436e-06
1.45288e-11
-0.00010451
1.38598e-06
-3.96918e-12
-0.000104085
1.64851e-06
-3.05089e-11
-0.000103669
1.87e-06
-6.64239e-11
-0.000103337
1.91504e-06
-1.15026e-10
-0.000103204
1.55447e-06
-1.51785e-10
-0.000103397
4.01909e-07
-7.71112e-11
-0.000103981
-2.16964e-06
9.35687e-11
-0.000104769
-7.1259e-06
4.67795e-10
-0.000104959
-1.58258e-05
3.74185e-09
-2.97611e-05
9.00768e-09
-0.000102631
-9.84329e-05
2.57406e-05
-9.98012e-09
-9.52553e-05
1.28176e-05
-4.06299e-09
-9.24872e-05
6.43116e-06
-8.28948e-10
-9.05205e-05
3.3209e-06
-3.14382e-10
-8.92146e-05
1.79632e-06
4.04786e-11
-8.83477e-05
1.05142e-06
1.65296e-10
-8.77338e-05
7.02822e-07
1.56525e-10
-8.72387e-05
5.71037e-07
1.28866e-10
-8.67701e-05
5.7135e-07
1.0687e-10
-8.62671e-05
6.61261e-07
9.14489e-11
-8.56956e-05
8.14391e-07
7.88193e-11
-8.50518e-05
1.00465e-06
6.29707e-11
-8.43739e-05
1.1921e-06
3.44737e-11
-8.37626e-05
1.30375e-06
-3.30507e-11
-8.34079e-05
1.1999e-06
-1.31731e-10
-8.36117e-05
6.05773e-07
-4.20594e-11
-8.47515e-05
-1.02995e-06
1.2539e-10
-8.71432e-05
-4.73382e-06
-4.63697e-10
-9.04534e-05
-1.25189e-05
3.30569e-09
-2.801e-05
1.43858e-08
-9.22189e-05
-7.51696e-05
1.81776e-05
-1.2466e-08
-6.88431e-05
6.4856e-06
5.52554e-09
-6.49471e-05
2.52893e-06
6.19289e-09
-6.2701e-05
1.07222e-06
2.64984e-09
-6.1406e-05
4.99866e-07
1.37298e-09
-6.06237e-05
2.68307e-07
8.34447e-10
-6.00984e-05
1.77056e-07
5.26007e-10
-5.96793e-05
1.51461e-07
3.9961e-10
-5.92721e-05
1.63829e-07
3.84592e-10
-5.8815e-05
2.03673e-07
4.32935e-10
-5.82676e-05
2.6647e-07
5.19462e-10
-5.76121e-05
3.48569e-07
6.22324e-10
-5.6864e-05
4.43293e-07
7.0324e-10
-5.60958e-05
5.34877e-07
6.6389e-10
-5.54811e-05
5.84851e-07
3.78685e-10
-5.53792e-05
5.03971e-07
-8.66433e-11
-5.6375e-05
-3.25341e-08
-1.6643e-09
-5.95134e-05
-1.5877e-06
-7.69811e-09
-6.58897e-05
-6.13213e-06
-1.04613e-08
-1.94182e-05
1.55328e-08
-7.44971e-05
-3.41462e-05
-6.92177e-08
-2.76488e-05
-1.18078e-08
-2.5119e-05
-8.64428e-10
-2.40449e-05
-1.89694e-09
-2.35438e-05
-1.23374e-09
-2.32749e-05
-5.81269e-10
-2.30975e-05
-3.30072e-10
-2.29458e-05
-2.34831e-10
-2.27818e-05
-2.08702e-10
-2.25779e-05
-2.2975e-10
-2.23111e-05
-2.84144e-10
-2.19622e-05
-3.5837e-10
-2.15185e-05
-4.33261e-10
-2.09831e-05
-4.75091e-10
-2.03979e-05
-3.67315e-10
-1.98941e-05
2.06943e-10
-1.99274e-05
7.72334e-10
-2.15126e-05
-2.56421e-09
-2.76498e-05
5.07948e-09
8.7654e-08
-4.71556e-05
-1.98136e-05
1.43907e-06
-1.07055e-12
-2.08702e-05
1.05804e-06
-8.63711e-13
-2.16092e-05
7.401e-07
-7.01833e-13
-2.21082e-05
4.99622e-07
-5.7334e-13
-2.24406e-05
3.32777e-07
-4.69394e-13
-2.26678e-05
2.27398e-07
-3.90234e-13
-2.28376e-05
1.70039e-07
-3.24494e-13
-2.29869e-05
1.49405e-07
-2.66124e-13
-2.31438e-05
1.57056e-07
-2.18777e-13
-2.33302e-05
1.86561e-07
-1.7973e-13
-2.35618e-05
2.31882e-07
-1.43954e-13
-2.38468e-05
2.85367e-07
-1.11225e-13
-2.41819e-05
3.3554e-07
-8.13584e-14
-2.45464e-05
3.64972e-07
-5.55074e-14
-2.48947e-05
3.48796e-07
-3.78969e-14
-2.51491e-05
2.54934e-07
-3.00014e-14
-2.51973e-05
4.85109e-08
-2.80617e-14
-2.48945e-05
-3.0283e-07
-2.99175e-14
-2.40876e-05
-8.07629e-07
-3.62972e-14
-1.44027e-06
-4.38064e-14
-2.26489e-05
-5.17182e-05
4.98561e-06
-1.20985e-12
-5.43442e-05
3.68242e-06
-9.81813e-13
-5.62021e-05
2.59677e-06
-8.02204e-13
-5.74767e-05
1.77324e-06
-6.56e-13
-5.83419e-05
1.19721e-06
-5.28375e-13
-5.89425e-05
8.27448e-07
-4.34744e-13
-5.93915e-05
6.18565e-07
-3.66569e-13
-5.97741e-05
5.31682e-07
-3.05409e-13
-6.0154e-05
5.36549e-07
-2.53222e-13
-6.05767e-05
6.08908e-07
-2.10297e-13
-6.10708e-05
7.25488e-07
-1.71425e-13
-6.16438e-05
8.57891e-07
-1.34161e-13
-6.22748e-05
9.66102e-07
-1.00036e-13
-6.29029e-05
9.92589e-07
-7.03793e-14
-6.34132e-05
8.58794e-07
-4.54129e-14
-6.36254e-05
4.67202e-07
-2.4327e-14
-6.32902e-05
-2.86254e-07
-4.34107e-15
-6.21059e-05
-1.48593e-06
1.53815e-14
-5.97593e-05
-3.15238e-06
3.424e-14
-5.19183e-06
4.6682e-14
-5.6005e-05
-7.68118e-05
9.88279e-06
-1.21719e-12
-8.03543e-05
7.22452e-06
-9.97404e-13
-8.28084e-05
5.05046e-06
-8.25966e-13
-8.44627e-05
3.42709e-06
-6.89884e-13
-8.55701e-05
2.30425e-06
-5.46748e-13
-8.63297e-05
1.58673e-06
-4.3582e-13
-8.68894e-05
1.178e-06
-3.64372e-13
-8.73562e-05
9.98375e-07
-3.0002e-13
-8.78068e-05
9.86945e-07
-2.41325e-13
-8.82933e-05
1.09528e-06
-1.93305e-13
-8.88454e-05
1.27757e-06
-1.53658e-13
-8.94668e-05
1.47922e-06
-1.17703e-13
-9.01258e-05
1.62502e-06
-8.73901e-14
-9.07416e-05
1.60838e-06
-6.46062e-14
-9.11673e-05
1.28454e-06
-4.89538e-14
-9.11733e-05
4.73337e-07
-3.61963e-14
-9.04393e-05
-1.02002e-06
-2.18288e-14
-8.85676e-05
-3.35732e-06
-2.58399e-15
-8.51321e-05
-6.58731e-06
1.79189e-14
-1.05417e-05
4.18084e-14
-7.97818e-05
-9.53652e-05
1.53737e-05
-1.18179e-12
-9.91296e-05
1.09883e-05
-9.69613e-13
-0.0001016
7.52008e-06
-8.09344e-13
-0.000103183
5.0093e-06
-7.17927e-13
-0.000104195
3.31644e-06
-5.78817e-13
-0.000104863
2.25401e-06
-4.50484e-13
-0.000105338
1.65296e-06
-3.77211e-13
-0.000105723
1.3832e-06
-3.14102e-13
-0.000106086
1.35008e-06
-2.47183e-13
-0.000106472
1.48142e-06
-1.87461e-13
-0.000106906
1.71125e-06
-1.4178e-13
-0.00010739
1.96269e-06
-1.06053e-13
-0.000107895
2.13028e-06
-7.81787e-14
-0.00010835
2.0632e-06
-5.67817e-14
-0.000108618
1.55247e-06
-4.23416e-14
-0.000108473
3.28832e-07
-3.09403e-14
-0.000107579
-1.91431e-06
-1.72894e-14
-0.000105477
-5.45879e-06
-3.82366e-15
-0.000101624
-1.044e-05
1.08076e-14
-1.66628e-05
2.63624e-14
-9.55023e-05
-0.000107329
2.06804e-05
-1.13296e-12
-0.000110581
1.42391e-05
-9.1035e-13
-0.000112469
9.40673e-06
-7.19209e-13
-0.000113534
6.07398e-06
-6.92169e-13
-0.000114135
3.91673e-06
-5.86524e-13
-0.000114486
2.60464e-06
-4.44121e-13
-0.000114711
1.87708e-06
-3.67862e-13
-0.000114879
1.55114e-06
-3.18548e-13
-0.000115032
1.50318e-06
-2.5824e-13
-0.000115195
1.64493e-06
-1.93217e-13
-0.000115384
1.90005e-06
-1.4004e-13
-0.000115603
2.18165e-06
-1.00147e-13
-0.000115843
2.36956e-06
-6.8255e-14
-0.000116067
2.28697e-06
-3.97916e-14
-0.000116192
1.67793e-06
-1.51478e-14
-0.000116054
1.91108e-07
6.452e-15
-0.000115359
-2.60941e-06
1.98371e-14
-0.000113629
-7.18896e-06
1.86759e-14
-0.000110179
-1.38884e-05
1.14156e-14
-2.26328e-05
-2.8627e-15
-0.000104208
-0.000112395
2.49399e-05
-1.15438e-12
-0.000114341
1.61833e-05
-9.33569e-13
-0.000115062
1.01267e-05
-6.36648e-13
-0.000115228
6.23978e-06
-6.39134e-13
-0.000115182
3.8702e-06
-5.80204e-13
-0.000115073
2.49527e-06
-4.16238e-13
-0.000114955
1.75855e-06
-3.14064e-13
-0.00011484
1.43604e-06
-2.75356e-13
-0.000114727
1.38991e-06
-2.38098e-13
-0.000114612
1.53014e-06
-1.86143e-13
-0.000114496
1.78458e-06
-1.35505e-13
-0.000114388
2.07356e-06
-9.38644e-14
-0.000114304
2.28479e-06
-5.72652e-14
-0.000114262
2.24498e-06
-2.41758e-14
-0.00011427
1.6862e-06
4.35236e-15
-0.000114285
2.06362e-07
2.41631e-14
-0.000114138
-2.75648e-06
2.3654e-14
-0.000113412
-7.91459e-06
5.12038e-15
-0.000111297
-1.60024e-05
-9.40691e-15
-2.74008e-05
-2.89294e-14
-0.000106526
-0.00010988
2.70895e-05
-1.22451e-12
-0.000109666
1.59651e-05
-1.08643e-12
-0.000108733
9.19147e-06
-6.90827e-13
-0.000107779
5.28532e-06
-6.5901e-13
-0.000107011
3.10195e-06
-6.55701e-13
-0.000106435
1.9188e-06
-4.706e-13
-0.000105994
1.31722e-06
-2.99495e-13
-0.000105624
1.06651e-06
-2.26599e-13
-0.000105274
1.04018e-06
-1.96246e-13
-0.000104909
1.16439e-06
-1.61655e-13
-0.00010451
1.38585e-06
-1.20172e-13
-0.000104084
1.64815e-06
-7.74154e-14
-0.000103669
1.86925e-06
-3.77864e-14
-0.000103338
1.91367e-06
-6.83136e-15
-0.000103204
1.55225e-06
1.17506e-14
-0.000103397
3.99231e-07
5.51162e-15
-0.00010398
-2.17378e-06
-2.23992e-14
-0.000104765
-7.1291e-06
-4.99653e-14
-0.000104955
-1.58084e-05
-1.28012e-15
-2.97061e-05
5.58507e-14
-0.00010264
-9.84185e-05
2.56494e-05
-1.10118e-12
-9.52449e-05
1.27875e-05
-9.92064e-13
-9.24838e-05
6.42956e-06
-6.50202e-13
-9.05204e-05
3.32159e-06
-5.48062e-13
-8.92154e-05
1.79695e-06
-6.65344e-13
-8.83484e-05
1.05197e-06
-5.64216e-13
-8.77342e-05
7.03173e-07
-3.63322e-13
-8.72387e-05
5.71229e-07
-2.31115e-13
-8.67699e-05
5.71444e-07
-1.7246e-13
-8.62667e-05
6.6128e-07
-1.36934e-13
-8.56951e-05
8.14329e-07
-9.95095e-14
-8.50514e-05
1.00448e-06
-5.60481e-14
-8.43738e-05
1.19172e-06
-1.70368e-14
-8.37631e-05
1.30298e-06
3.58745e-15
-8.34094e-05
1.19842e-06
-9.73703e-15
-8.36138e-05
6.03552e-07
-6.21244e-14
-8.47553e-05
-1.03214e-06
-1.43494e-13
-8.7146e-05
-4.73889e-06
-1.81985e-13
-9.04512e-05
-1.24999e-05
-4.71866e-14
-2.79082e-05
1.06408e-13
-9.22347e-05
-7.5151e-05
1.8097e-05
-1.13823e-12
-6.88508e-05
6.49283e-06
-1.01741e-12
-6.4956e-05
2.54091e-06
-8.36234e-13
-6.27076e-05
1.07587e-06
-4.51151e-13
-6.14098e-05
5.00586e-07
-4.88257e-13
-6.06256e-05
2.68552e-07
-4.87405e-13
-6.00991e-05
1.77259e-07
-3.63276e-13
-5.96792e-05
1.51714e-07
-2.3496e-13
-5.92716e-05
1.64188e-07
-1.57544e-13
-5.88141e-05
2.04193e-07
-1.12529e-13
-5.82664e-05
2.67216e-07
-7.4526e-14
-5.7611e-05
3.49619e-07
-3.5135e-14
-5.68633e-05
4.4474e-07
-2.57642e-15
-5.60965e-05
5.3684e-07
-7.77308e-15
-5.5485e-05
5.87284e-07
-6.2939e-14
-5.53857e-05
5.04219e-07
-1.8146e-13
-5.63902e-05
-2.9272e-08
-3.40583e-13
-5.95401e-05
-1.59674e-06
-4.84087e-13
-6.59059e-05
-6.14451e-06
-3.04802e-13
-1.9354e-05
-2.77178e-14
-7.44446e-05
-3.41361e-05
-1.01457e-12
-2.76551e-05
-7.24932e-13
-2.51151e-05
-9.87531e-13
-2.40411e-05
-6.62333e-13
-2.35417e-05
-4.80591e-13
-2.32738e-05
-3.96794e-13
-2.30968e-05
-3.05311e-13
-2.29454e-05
-2.1059e-13
-2.27814e-05
-1.40008e-13
-2.25774e-05
-9.13176e-14
-2.23105e-05
-5.00506e-14
-2.19612e-05
-1.05632e-14
-2.15169e-05
8.09622e-15
-2.09806e-05
-1.96882e-14
-2.03936e-05
-9.86721e-14
-1.98892e-05
-2.34892e-13
-1.99177e-05
-4.56946e-13
-2.1517e-05
-6.22629e-13
-2.76564e-05
-7.31139e-14
1.05164e-13
-4.69228e-05
-1.98136e-05
1.43907e-06
-2.17709e-09
-2.08702e-05
1.05804e-06
-1.52515e-09
-2.16092e-05
7.40099e-07
-1.01159e-09
-2.21082e-05
4.99622e-07
-6.40381e-10
-2.24406e-05
3.32777e-07
-3.94609e-10
-2.26678e-05
2.27398e-07
-2.46563e-10
-2.28376e-05
1.70039e-07
-1.69624e-10
-2.29869e-05
1.49405e-07
-1.4361e-10
-2.31438e-05
1.57056e-07
-1.54833e-10
-2.33302e-05
1.86561e-07
-1.94578e-10
-2.35618e-05
2.31882e-07
-2.56702e-10
-2.38468e-05
2.85367e-07
-3.34735e-10
-2.41819e-05
3.3554e-07
-4.18844e-10
-2.45464e-05
3.64972e-07
-4.92734e-10
-2.48947e-05
3.48796e-07
-5.29417e-10
-2.51491e-05
2.54934e-07
-4.853e-10
-2.51973e-05
4.8511e-08
-3.0581e-10
-2.48945e-05
-3.0283e-07
4.29837e-11
-2.40876e-05
-8.07629e-07
6.56612e-10
-1.44027e-06
1.58067e-09
-2.26489e-05
-5.17182e-05
4.98561e-06
1.94205e-09
-5.43442e-05
3.68242e-06
1.62202e-09
-5.62021e-05
2.59677e-06
1.28404e-09
-5.74767e-05
1.77324e-06
9.82372e-10