/*--------------------------------*- C++ -*----------------------------------*\
| =========                 |                                                 |
| \\      /  F ield         | OpenFOAM: The Open Source CFD Toolbox           |
|  \\    /   O peration     | Version:  2.4.0                                 |
|   \\  /    A nd           | Web:      www.OpenFOAM.org                      |
|    \\/     M anipulation  |                                                 |
\*---------------------------------------------------------------------------*/
FoamFile
{
    version     2.0;
    format      ascii;
    class       volVectorField;
    location    "4.8";
    object      U;
}
// * * * * * * * * * * * * * * * * * * * * * * * * * * * * * * * * * * * * * //

dimensions      [0 1 -1 0 0 0 0];

internalField   nonuniform List<vector> 
4800
(
(0.000307175 -0.0003112 -4.81427e-07)
(1.89006e-05 0.00015659 0.000217296)
(-0.00184429 0.000665294 0.00044579)
(-0.00484118 0.00100924 0.000615407)
(-0.00857454 0.00120449 0.000682092)
(-0.012702 0.00128885 0.000625385)
(-0.0169395 0.00128995 0.000438961)
(-0.0210484 0.00122171 0.000123308)
(-0.024818 0.00109153 -0.000315562)
(-0.0280708 0.000911501 -0.000864737)
(-0.000182341 -2.09267e-05 -0.00021774)
(-0.00248576 0.00239492 4.81656e-06)
(-0.00807803 0.00475232 0.00017438)
(-0.01597 0.00645285 0.000275807)
(-0.0254155 0.00749026 0.000290926)
(-0.0357333 0.00795759 0.000203758)
(-0.0462813 0.00794171 7.56724e-06)
(-0.0564771 0.007503 -0.000300062)
(-0.0658008 0.0066973 -0.000717853)
(-0.0738252 0.00561465 -0.0012393)
(-0.000780091 0.00197252 -0.000451764)
(-0.00522571 0.00810757 -0.000157664)
(-0.0143315 0.0135724 1.28356e-05)
(-0.026412 0.0175709 9.25633e-05)
(-0.0404618 0.0200608 9.01619e-05)
(-0.0556064 0.0211723 -3.24975e-06)
(-0.0709742 0.0210488 -0.000191997)
(-0.0857387 0.0198137 -0.000479969)
(-0.0991392 0.0176156 -0.00087038)
(-0.110538 0.0147063 -0.00136296)
(-0.00126019 0.00539776 -0.000610827)
(-0.00751464 0.0166402 -0.000230068)
(-0.0195921 0.0259399 -3.54439e-05)
(-0.0350949 0.0326518 4.64359e-05)
(-0.0527761 0.0368076 4.63877e-05)
(-0.0716263 0.0385945 -3.843e-05)
(-0.0906169 0.0381986 -0.000210634)
(-0.108738 0.0357911 -0.000476737)
(-0.125019 0.0316166 -0.000846267)
(-0.138599 0.0261322 -0.00132771)
(-0.0015898 0.00992241 -0.000619724)
(-0.00915292 0.0273874 -0.000163682)
(-0.023417 0.0410589 5.6672e-05)
(-0.0414145 0.0507305 0.000151198)
(-0.0617012 0.056636 0.000166878)
(-0.0831714 0.0590563 0.000104413)
(-0.10469 0.0582054 -3.96816e-05)
(-0.125104 0.0542663 -0.000277462)
(-0.143241 0.0475436 -0.00062865)
(-0.157945 0.0387018 -0.00111741)
(-0.00176252 0.0151533 -0.000428576)
(-0.0100509 0.0396088 8.35907e-05)
(-0.0255555 0.0580314 0.000325322)
(-0.0449706 0.0708275 0.000439865)
(-0.0667286 0.0785288 0.000483871)
(-0.0896708 0.0815427 0.000458863)
(-0.112604 0.0800937 0.000357219)
(-0.134282 0.0743178 0.00015743)
(-0.153347 0.0644918 -0.000176075)
(-0.168225 0.0514018 -0.000698194)
(-0.00177835 0.0206638 -1.32073e-05)
(-0.0101719 0.0524444 0.000532888)
(-0.0258807 0.0757882 0.000788402)
(-0.045521 0.0917767 0.000928169)
(-0.0674881 0.101288 0.00101251)
(-0.090616 0.104878 0.0010417)
(-0.113711 0.102763 0.00100095)
(-0.135509 0.0949568 0.00085542)
(-0.154552 0.08155 0.000547791)
(-0.168708 0.0631794 -3.84562e-05)
(-0.00164411 0.0260242 0.000626891)
(-0.00953133 0.0649971 0.00118475)
(-0.0243941 0.0931835 0.00144516)
(-0.0430122 0.112297 0.00161374)
(-0.063814 0.123559 0.00174963)
(-0.085654 0.12769 0.00185125)
(-0.107381 0.124896 0.00189524)
(-0.127806 0.115007 0.00183139)
(-0.14561 0.0977161 0.00157999)
(-0.158061 0.0729003 0.000906685)
(-0.00138025 0.0308325 0.00146938)
(-0.00821889 0.0764071 0.00201961)
(-0.0212754 0.109081 0.00227578)
(-0.0376779 0.131059 0.00247431)
(-0.0559158 0.143854 0.00266976)
(-0.0748361 0.148357 0.00286003)
(-0.0932941 0.144819 0.00301396)
(-0.110194 0.132928 0.00306535)
(-0.12474 0.111931 0.00292425)
(-0.134038 0.0801014 0.00214975)
(-0.00102657 0.034761 0.0024716)
(-0.00642142 0.0859516 0.00300029)
(-0.0169402 0.122481 0.00324328)
(-0.0301677 0.146812 0.00346866)
(-0.0446299 0.16063 0.00372519)
(-0.0590517 0.164958 0.00401517)
(-0.0720769 0.16014 0.00430927)
(-0.0823103 0.145858 0.00453737)
(-0.0894615 0.121229 0.00466748)
(-0.0925215 0.0835462 0.00407346)
(0.000312411 -0.000315482 -4.87647e-08)
(2.63829e-05 0.000150798 1.3357e-06)
(-0.00184041 0.00065132 2.00995e-06)
(-0.00483851 0.000989479 2.5852e-06)
(-0.00857302 0.00118155 2.92937e-06)
(-0.0127014 0.00126435 3.07231e-06)
(-0.0169397 0.0012654 3.08247e-06)
(-0.0210495 0.00119846 2.9622e-06)
(-0.0248202 0.0010707 2.69088e-06)
(-0.0280742 0.000893739 2.25014e-06)
(-0.000174848 -2.79277e-05 -1.14458e-06)
(-0.00248256 0.00239308 3.05915e-07)
(-0.00808548 0.00474114 -1.1789e-06)
(-0.0159747 0.00643649 -1.86523e-06)
(-0.0254178 0.00747205 -2.20904e-06)
(-0.035734 0.00793853 -2.42492e-06)
(-0.0462803 0.00792277 -2.43178e-06)
(-0.0564751 0.00748523 -2.26043e-06)
(-0.0657988 0.00668159 -1.9823e-06)
(-0.073824 0.00560107 -1.71007e-06)
(-0.00076401 0.00196703 -1.96218e-06)
(-0.00521435 0.00811424 1.75658e-06)
(-0.0143384 0.0135756 7.63459e-08)
(-0.0264142 0.0175742 -7.74678e-08)
(-0.0404618 0.020066 8.85942e-08)
(-0.0556062 0.0211786 8.34399e-08)
(-0.0709734 0.0210554 9.33363e-08)
(-0.0857376 0.0198205 1.40071e-07)
(-0.099139 0.0176225 1.94075e-07)
(-0.11054 0.014712 1.19247e-07)
(-0.00123712 0.00539287 -2.851e-06)
(-0.00749821 0.0166443 2.47833e-06)
(-0.0196013 0.025939 -1.88269e-08)
(-0.0350968 0.0326492 -2.27507e-07)
(-0.0527751 0.0368054 6.06769e-08)
(-0.0716254 0.0385927 9.47893e-08)
(-0.0906156 0.0381972 1.27625e-07)
(-0.108736 0.0357908 2.1151e-07)
(-0.125019 0.0316184 3.68677e-07)
(-0.138603 0.0261343 3.2532e-07)
(-0.00156213 0.00991923 -3.48828e-06)
(-0.00913424 0.0273897 2.91508e-06)
(-0.0234296 0.0410569 -3.44403e-07)
(-0.0414176 0.0507263 -7.31184e-07)
(-0.0617003 0.0566314 -4.44478e-07)
(-0.0831704 0.0590516 -4.23541e-07)
(-0.104687 0.0582009 -3.7796e-07)
(-0.125099 0.054263 -2.23473e-07)
(-0.143239 0.0475449 2.30748e-07)
(-0.157953 0.0387053 4.56729e-07)
(-0.00173223 0.0151522 -3.81597e-06)
(-0.010031 0.0396101 3.22426e-06)
(-0.0255705 0.0580304 -4.50086e-07)
(-0.0449748 0.070825 -9.29402e-07)
(-0.0667281 0.0785257 -6.46142e-07)
(-0.0896699 0.0815391 -6.40631e-07)
(-0.112601 0.0800896 -6.25578e-07)
(-0.134274 0.0743143 -5.03664e-07)
(-0.15334 0.0644964 3.9997e-07)
(-0.168239 0.0514138 1.27527e-06)
(-0.0017476 0.0206651 -3.87856e-06)
(-0.0101521 0.0524447 3.30121e-06)
(-0.0258967 0.0757881 -4.82176e-07)
(-0.045526 0.091776 -1.01678e-06)
(-0.0674882 0.101286 -7.75603e-07)
(-0.090616 0.104875 -8.02843e-07)
(-0.113709 0.102759 -8.87859e-07)
(-0.135496 0.094952 -1.06274e-06)
(-0.154534 0.0815608 5.25928e-07)
(-0.168737 0.063218 3.24318e-06)
(-0.00161536 0.0260278 -3.52599e-06)
(-0.00951332 0.0649965 3.17806e-06)
(-0.0244101 0.0931845 -4.3876e-07)
(-0.0430177 0.112298 -9.87473e-07)
(-0.0638149 0.12356 -8.07509e-07)
(-0.085655 0.127689 -8.19708e-07)
(-0.10738 0.124892 -9.27233e-07)
(-0.127783 0.114991 -1.64131e-06)
(-0.145558 0.0977122 1.5577e-06)
(-0.158108 0.0729618 1.1292e-05)
(-0.00135529 0.0308378 -2.92795e-06)
(-0.00820352 0.0764061 2.88466e-06)
(-0.0212899 0.109084 -3.04145e-07)
(-0.0376836 0.131063 -8.26343e-07)
(-0.0559179 0.143858 -7.57014e-07)
(-0.0748406 0.14836 -8.17524e-07)
(-0.0933052 0.144817 -1.09542e-06)
(-0.110177 0.132895 -3.82903e-06)
(-0.124633 0.111856 -1.14227e-06)
(-0.134087 0.0800712 2.53499e-05)
(-0.00100661 0.0347671 -2.12276e-06)
(-0.00640906 0.0859503 2.49285e-06)
(-0.0169516 0.122485 -5.7833e-08)
(-0.0301718 0.14682 -4.72379e-07)
(-0.0446313 0.160643 -4.99557e-07)
(-0.0590584 0.164981 -7.28112e-07)
(-0.0721103 0.160185 -1.541e-06)
(-0.0823519 0.145924 -9.51889e-06)
(-0.0893715 0.121292 -2.22692e-05)
(-0.0926008 0.0836659 7.65868e-06)
(0.000312471 -0.000315421 -8.40664e-08)
(2.64757e-05 0.000150839 -1.38023e-06)
(-0.00184036 0.000651339 -2.03487e-06)
(-0.00483847 0.000989487 -2.60223e-06)
(-0.008573 0.00118155 -2.94136e-06)
(-0.0127014 0.00126435 -3.0812e-06)
(-0.0169397 0.0012654 -3.08938e-06)
(-0.0210495 0.00119846 -2.96763e-06)
(-0.0248202 0.0010707 -2.69521e-06)
(-0.0280742 0.000893739 -2.25361e-06)
(-0.000174807 -2.78346e-05 1.1012e-06)
(-0.00248248 0.00239315 -3.34896e-07)
(-0.00808542 0.00474118 1.15631e-06)
(-0.0159747 0.00643651 1.84808e-06)
(-0.0254178 0.00747206 2.19624e-06)
(-0.035734 0.00793854 2.41523e-06)
(-0.0462803 0.00792277 2.42422e-06)
(-0.0564751 0.00748524 2.25446e-06)
(-0.0657988 0.00668159 1.97756e-06)
(-0.073824 0.00560107 1.70627e-06)
(-0.00076399 0.00196708 1.93778e-06)
(-0.00521431 0.0081143 -1.77902e-06)
(-0.0143383 0.0135756 -9.50168e-08)
(-0.0264142 0.0175742 6.26505e-08)
(-0.0404618 0.020066 -1.00228e-07)
(-0.0556062 0.0211786 -9.25379e-08)
(-0.0709734 0.0210554 -1.00583e-07)
(-0.0857376 0.0198205 -1.45892e-07)
(-0.099139 0.0176225 -1.98754e-07)
(-0.11054 0.014712 -1.23025e-07)
(-0.00123712 0.0053929 2.83433e-06)
(-0.00749818 0.0166443 -2.49503e-06)
(-0.0196012 0.025939 4.32514e-09)
(-0.0350968 0.0326492 2.15401e-07)
(-0.0527751 0.0368054 -7.0665e-08)
(-0.0716254 0.0385927 -1.02864e-07)
(-0.0906156 0.0381972 -1.34225e-07)
(-0.108736 0.0357908 -2.16944e-07)
(-0.125019 0.0316184 -3.73127e-07)
(-0.138603 0.0261343 -3.28961e-07)
(-0.00156213 0.00991925 3.47689e-06)
(-0.00913423 0.0273898 -2.92719e-06)
(-0.0234296 0.0410569 3.33404e-07)
(-0.0414176 0.0507264 7.21578e-07)
(-0.0617003 0.0566315 4.36219e-07)
(-0.0831704 0.0590516 4.16667e-07)
(-0.104687 0.0582009 3.72195e-07)
(-0.125099 0.054263 2.18593e-07)
(-0.143239 0.0475449 -2.34845e-07)
(-0.157953 0.0387053 -4.60141e-07)
(-0.00173223 0.0151522 3.8077e-06)
(-0.010031 0.0396102 -3.23328e-06)
(-0.0255704 0.0580304 4.41665e-07)
(-0.0449748 0.070825 9.2182e-07)
(-0.0667281 0.0785257 6.39406e-07)
(-0.0896699 0.0815392 6.3487e-07)
(-0.112601 0.0800896 6.20602e-07)
(-0.134274 0.0743143 4.99304e-07)
(-0.15334 0.0644964 -4.03763e-07)
(-0.168239 0.0514139 -1.27854e-06)
(-0.00174759 0.0206651 3.87238e-06)
(-0.0101521 0.0524447 -3.30796e-06)
(-0.0258967 0.0757881 4.75744e-07)
(-0.045526 0.091776 1.01088e-06)
(-0.0674882 0.101286 7.70222e-07)
(-0.0906159 0.104875 7.98112e-07)
(-0.113709 0.102759 8.8363e-07)
(-0.135496 0.094952 1.05888e-06)
(-0.154534 0.0815608 -5.29419e-07)
(-0.168737 0.063218 -3.2463e-06)
(-0.00161536 0.0260278 3.52125e-06)
(-0.00951332 0.0649966 -3.18323e-06)
(-0.0244101 0.0931845 4.33819e-07)
(-0.0430177 0.112298 9.82898e-07)
(-0.0638148 0.12356 8.03246e-07)
(-0.085655 0.127689 8.15833e-07)
(-0.10738 0.124892 9.23636e-07)
(-0.127783 0.114991 1.6379e-06)
(-0.145558 0.0977122 -1.56083e-06)
(-0.158108 0.0729618 -1.12947e-05)
(-0.00135529 0.0308378 2.92419e-06)
(-0.00820352 0.0764062 -2.8887e-06)
(-0.0212899 0.109084 3.00303e-07)
(-0.0376836 0.131063 8.22757e-07)
(-0.0559179 0.143858 7.53586e-07)
(-0.0748406 0.14836 8.14278e-07)
(-0.0933052 0.144817 1.09229e-06)
(-0.110177 0.132895 3.82595e-06)
(-0.124633 0.111856 1.13942e-06)
(-0.134087 0.0800712 -2.53523e-05)
(-0.00100661 0.0347671 2.11977e-06)
(-0.00640906 0.0859503 -2.49603e-06)
(-0.0169516 0.122485 5.48195e-08)
(-0.0301718 0.14682 4.69526e-07)
(-0.0446313 0.160643 4.96741e-07)
(-0.0590584 0.164981 7.25337e-07)
(-0.0721103 0.160185 1.53828e-06)
(-0.0823519 0.145924 9.51607e-06)
(-0.0893715 0.121292 2.22664e-05)
(-0.0926008 0.0836659 -7.66115e-06)
(0.000307507 -0.000310867 6.2107e-07)
(1.93732e-05 0.000156749 -0.000217249)
(-0.00184408 0.000665356 -0.000445764)
(-0.00484108 0.00100926 -0.000615389)
(-0.00857448 0.0012045 -0.000682079)
(-0.012702 0.00128885 -0.000625375)
(-0.0169395 0.00128995 -0.000438954)
(-0.0210484 0.00122171 -0.000123302)
(-0.024818 0.00109153 0.000315567)
(-0.0280708 0.0009115 0.00086474)
(-0.000182183 -2.04531e-05 0.000217785)
(-0.00248549 0.00239519 -4.78593e-06)
(-0.00807784 0.00475245 -0.000174357)
(-0.0159699 0.00645292 -0.000275789)
(-0.0254154 0.00749029 -0.000290913)
(-0.0357333 0.00795761 -0.000203748)
(-0.0462812 0.00794171 -7.55925e-06)
(-0.0564771 0.007503 0.000300068)
(-0.0658008 0.0066973 0.000717858)
(-0.0738251 0.00561465 0.0012393)
(-0.000780029 0.00197272 0.00045179)
(-0.00522558 0.00810776 0.000157688)
(-0.0143313 0.0135725 -1.28159e-05)
(-0.0264119 0.017571 -9.25476e-05)
(-0.0404617 0.0200608 -9.01496e-05)
(-0.0556063 0.0211724 3.25936e-06)
(-0.0709742 0.0210488 0.000192005)
(-0.0857387 0.0198137 0.000479975)
(-0.0991391 0.0176156 0.000870385)
(-0.110538 0.0147063 0.00136297)
(-0.00126016 0.00539786 0.000610844)
(-0.00751457 0.0166403 0.000230085)
(-0.019592 0.02594 3.54592e-05)
(-0.0350949 0.0326519 -4.64231e-05)
(-0.052776 0.0368076 -4.63772e-05)
(-0.0716262 0.0385946 3.84385e-05)
(-0.0906169 0.0381986 0.000210641)
(-0.108738 0.0357912 0.000476743)
(-0.125019 0.0316166 0.000846271)
(-0.138598 0.0261322 0.00132771)
(-0.00158979 0.00992247 0.000619736)
(-0.00915289 0.0273875 0.000163695)
(-0.0234169 0.041059 -5.66604e-05)
(-0.0414145 0.0507305 -0.000151188)
(-0.0617012 0.056636 -0.000166869)
(-0.0831714 0.0590563 -0.000104406)
(-0.10469 0.0582055 3.96877e-05)
(-0.125104 0.0542663 0.000277467)
(-0.143241 0.0475436 0.000628655)
(-0.157945 0.0387018 0.00111742)
(-0.00176252 0.0151534 0.000428585)
(-0.0100508 0.0396089 -8.35812e-05)
(-0.0255555 0.0580315 -0.000325313)
(-0.0449706 0.0708275 -0.000439857)
(-0.0667286 0.0785288 -0.000483864)
(-0.0896707 0.0815427 -0.000458857)
(-0.112604 0.0800937 -0.000357214)
(-0.134282 0.0743178 -0.000157426)
(-0.153347 0.0644918 0.000176079)
(-0.168225 0.0514018 0.000698198)
(-0.00177835 0.0206638 1.32138e-05)
(-0.0101719 0.0524445 -0.000532881)
(-0.0258807 0.0757883 -0.000788395)
(-0.045521 0.0917768 -0.000928163)
(-0.0674881 0.101288 -0.00101251)
(-0.090616 0.104878 -0.00104169)
(-0.113711 0.102763 -0.00100095)
(-0.135509 0.0949568 -0.000855416)
(-0.154552 0.08155 -0.000547787)
(-0.168708 0.0631794 3.84595e-05)
(-0.00164411 0.0260242 -0.000626886)
(-0.00953132 0.0649971 -0.00118475)
(-0.0243941 0.0931835 -0.00144515)
(-0.0430122 0.112297 -0.00161373)
(-0.063814 0.12356 -0.00174963)
(-0.085654 0.12769 -0.00185125)
(-0.107381 0.124896 -0.00189524)
(-0.127806 0.115007 -0.00183139)
(-0.14561 0.0977161 -0.00157999)
(-0.158061 0.0729004 -0.000906683)
(-0.00138025 0.0308326 -0.00146938)
(-0.00821889 0.0764072 -0.0020196)
(-0.0212754 0.109081 -0.00227578)
(-0.0376779 0.131059 -0.00247431)
(-0.0559158 0.143854 -0.00266976)
(-0.0748361 0.148357 -0.00286002)
(-0.0932941 0.144819 -0.00301396)
(-0.110194 0.132928 -0.00306535)
(-0.12474 0.111932 -0.00292425)
(-0.134038 0.0801014 -0.00214974)
(-0.00102657 0.034761 -0.00247159)
(-0.00642142 0.0859516 -0.00300029)
(-0.0169402 0.122481 -0.00324328)
(-0.0301677 0.146812 -0.00346866)
(-0.0446299 0.16063 -0.00372518)
(-0.0590517 0.164958 -0.00401516)
(-0.0720769 0.16014 -0.00430927)
(-0.0823103 0.145858 -0.00453736)
(-0.0894615 0.121229 -0.00466747)
(-0.0925215 0.0835462 -0.00407345)
(-0.0306938 0.00070715 -0.00150349)
(-0.0326727 0.000512737 -0.00220635)
(-0.0340836 0.000351241 -0.00295034)
(-0.0350471 0.000230553 -0.00371821)
(-0.0356881 0.000148468 -0.00449847)
(-0.0361163 9.82964e-05 -0.00528446)
(-0.036419 7.28672e-05 -0.00607299)
(-0.0366628 6.64507e-05 -0.00686332)
(-0.0368991 7.51289e-05 -0.00765656)
(-0.0371674 9.62981e-05 -0.00845545)
(-0.0374981 0.000127726 -0.00926439)
(-0.0379113 0.000166349 -0.0100896)
(-0.0384125 0.000206904 -0.0109392)
(-0.0389847 0.000240488 -0.0118227)
(-0.0395772 0.000253355 -0.0127507)
(-0.0400932 0.000226562 -0.0137323)
(-0.0403801 0.000137842 -0.0147731)
(-0.0402274 -3.25361e-05 -0.0158705)
(-0.0393867 -0.000296505 -0.0170086)
(-0.0376181 -0.000642103 -0.0181552)
(-0.0802908 0.00440752 -0.00185068)
(-0.0851828 0.00326128 -0.00253216)
(-0.0886996 0.00229934 -0.00326524)
(-0.0911338 0.00156635 -0.00403457)
(-0.0927832 0.00105308 -0.00482835)
(-0.0939062 0.000724903 -0.00563831)
(-0.0947081 0.0005424 -0.00645926)
(-0.0953452 0.000471608 -0.00728857)
(-0.0959346 0.000486394 -0.00812571)
(-0.0965627 0.000566221 -0.008972)
(-0.0972895 0.000691548 -0.0098305)
(-0.0981458 0.000838009 -0.0107059)
(-0.0991251 0.000970096 -0.0116042)
(-0.100167 0.00103523 -0.0125324)
(-0.101135 0.000959934 -0.0134978)
(-0.101797 0.000651219 -0.0145063)
(-0.101806 8.08682e-06 -0.01556)
(-0.100712 -0.00105229 -0.0166545)
(-0.0979969 -0.00255628 -0.0177758)
(-0.0931781 -0.00442025 -0.0188962)
(-0.119553 0.0114998 -0.00194855)
(-0.126216 0.00849064 -0.00260696)
(-0.130897 0.00598944 -0.00332068)
(-0.134075 0.00409464 -0.00407501)
(-0.136196 0.0027691 -0.00485794)
(-0.137623 0.00191607 -0.00566064)
(-0.13863 0.00143025 -0.00647713)
(-0.139416 0.00122156 -0.00730392)
(-0.140126 0.00121963 -0.00813958)
(-0.14086 0.00136765 -0.00898449)
(-0.141684 0.00161113 -0.00984055)
(-0.142628 0.00188427 -0.0107111)
(-0.143674 0.00209569 -0.0116006)
(-0.144738 0.00211557 -0.0125146)
(-0.145645 0.00176822 -0.0134586)
(-0.146098 0.00083707 -0.0144378)
(-0.145658 -0.000907838 -0.015455)
(-0.143739 -0.00365103 -0.0165085)
(-0.139651 -0.00743555 -0.017589)
(-0.132715 -0.012048 -0.0186757)
(-0.148943 0.020139 -0.00191577)
(-0.15619 0.0146345 -0.00258057)
(-0.161002 0.0101729 -0.0033015)
(-0.164101 0.00686972 -0.00406277)
(-0.166073 0.00460074 -0.00485158)
(-0.167346 0.0031572 -0.00565884)
(-0.168213 0.00233474 -0.00647859)
(-0.168869 0.00196805 -0.00730722)
(-0.169446 0.0019323 -0.00814302)
(-0.170032 0.00212926 -0.00898576)
(-0.170683 0.00246694 -0.00983644)
(-0.171422 0.00283675 -0.0106972)
(-0.172232 0.00308997 -0.0115711)
(-0.17304 0.00301626 -0.0124623)
(-0.173689 0.00232937 -0.0133757)
(-0.173899 0.000670861 -0.0143171)
(-0.173225 -0.00235117 -0.0152923)
(-0.171031 -0.00707016 -0.0163054)
(-0.166485 -0.0136008 -0.0173558)
(-0.158657 -0.0216208 -0.0184338)
(-0.168417 0.0290797 -0.00174498)
(-0.17499 0.0205288 -0.00245167)
(-0.178849 0.0138791 -0.00320953)
(-0.181039 0.00914374 -0.00400097)
(-0.182265 0.00599621 -0.00481253)
(-0.182965 0.00404262 -0.00563597)
(-0.18339 0.00294464 -0.00646652)
(-0.183684 0.00245039 -0.00730152)
(-0.183929 0.00238145 -0.00813966)
(-0.184174 0.00260492 -0.00898051)
(-0.184453 0.00300179 -0.00982431)
(-0.18478 0.00343472 -0.0106719)
(-0.185155 0.00371524 -0.0115248)
(-0.185548 0.00357163 -0.0123856)
(-0.185876 0.00262225 -0.0132584)
(-0.185956 0.000365771 -0.01415)
(-0.185441 -0.00378702 -0.01507)
(-0.183735 -0.0104027 -0.0160312)
(-0.179902 -0.0198036 -0.0170467)
(-0.172634 -0.0316916 -0.0181271)
(-0.177554 0.0370923 -0.00142897)
(-0.182047 0.0249979 -0.00222781)
(-0.183833 0.0161722 -0.00305763)
(-0.184361 0.0102472 -0.00390289)
(-0.184373 0.0065014 -0.00475209)
(-0.184215 0.00426625 -0.00560066)
(-0.184023 0.00304402 -0.00644723)
(-0.183835 0.00250069 -0.00729147)
(-0.183653 0.00241921 -0.00813329)
(-0.183472 0.0026503 -0.00897251)
(-0.183286 0.00306892 -0.00980869)
(-0.183102 0.00353452 -0.0106413)
(-0.182941 0.00385132 -0.0114699)
(-0.182834 0.00372566 -0.0122949)
(-0.182814 0.00272116 -0.0131188)
(-0.182873 0.000218632 -0.0139484)
(-0.182879 -0.00459259 -0.0147973)
(-0.182425 -0.0126276 -0.0156876)
(-0.180591 -0.0246635 -0.0166515)
(-0.175572 -0.0407624 -0.0177392)
(-0.175406 0.0426764 -0.000988202)
(-0.17616 0.0267065 -0.00194819)
(-0.174807 0.016148 -0.00288502)
(-0.173157 0.00965372 -0.00380096)
(-0.171755 0.00583748 -0.00469417)
(-0.170695 0.00368909 -0.00556936)
(-0.169905 0.00256483 -0.00643166)
(-0.169278 0.00208273 -0.00728444)
(-0.16872 0.00201996 -0.00812943)
(-0.168157 0.00223848 -0.0089668)
(-0.167547 0.00263291 -0.00979544)
(-0.16688 0.00308908 -0.0106132)
(-0.166186 0.00344344 -0.0114172)
(-0.165553 0.00343531 -0.0122049)
(-0.165135 0.00264408 -0.0129755)
(-0.165144 0.000405857 -0.0137333)
(-0.165779 -0.0042769 -0.0144942)
(-0.167058 -0.0127542 -0.0152886)
(-0.168415 -0.0266096 -0.0161709)
(-0.167595 -0.0469905 -0.0172642)
(-0.159972 0.0436578 -0.000480498)
(-0.15504 0.0240518 -0.00168586)
(-0.149882 0.0130557 -0.00275194)
(-0.146117 0.00714702 -0.00373879)
(-0.143587 0.00403102 -0.00466737)
(-0.141926 0.0024215 -0.00555971)
(-0.1408 0.00163437 -0.00643044)
(-0.139954 0.00131983 -0.00728706)
(-0.13921 0.00129954 -0.00813275)
(-0.13845 0.00147705 -0.0089677)
(-0.137597 0.00178785 -0.00978977)
(-0.136619 0.00216594 -0.0105949)
(-0.135536 0.00251263 -0.0113775)
(-0.134451 0.00265588 -0.0121311)
(-0.133588 0.00228466 -0.0128499)
(-0.133343 0.000833123 -0.0135328)
(-0.134271 -0.0027105 -0.014195)
(-0.137064 -0.0100323 -0.0148697)
(-0.142209 -0.0238372 -0.0156272)
(-0.147765 -0.0477871 -0.0167034)
(-0.126823 0.0375138 -0.000197269)
(-0.114482 0.0161232 -0.00167516)
(-0.106259 0.00713108 -0.00278946)
(-0.101663 0.00331793 -0.00378396)
(-0.0990394 0.00165346 -0.00470526)
(-0.0974931 0.000917533 -0.00558811)
(-0.0965158 0.00060226 -0.00645205)
(-0.0958027 0.00049748 -0.00730468)
(-0.0951688 0.000516241 -0.00814806)
(-0.0944953 0.000621156 -0.00898101)
(-0.0937015 0.000793007 -0.00979974)
(-0.0927391 0.00101461 -0.0105979)
(-0.0915996 0.00125746 -0.0113667)
(-0.0903415 0.00146193 -0.0120946)
(-0.0891456 0.00149679 -0.0127683)
(-0.0884065 0.00106702 -0.0133765)
(-0.0888117 -0.000509397 -0.0139271)
(-0.0916766 -0.00485531 -0.0144257)
(-0.0994898 -0.0155442 -0.0149163)
(-0.113343 -0.0406115 -0.0157954)
(-0.0645378 0.0229836 -0.000848793)
(-0.0481526 0.00662843 -0.00231957)
(-0.0414343 0.00202219 -0.00307373)
(-0.0389974 0.000650351 -0.00382231)
(-0.0379387 0.000224393 -0.00458719)
(-0.0373975 9.38059e-05 -0.00536491)
(-0.0370745 5.87255e-05 -0.00615325)
(-0.0368299 5.80426e-05 -0.00694702)
(-0.036589 7.47736e-05 -0.0077412)
(-0.0363031 0.000105559 -0.00853075)
(-0.0359328 0.00015117 -0.00930943)
(-0.0354438 0.000213504 -0.0100686)
(-0.034808 0.000293982 -0.010796)
(-0.0340121 0.000390246 -0.0114738)
(-0.0330791 0.000485781 -0.0120766)
(-0.0321203 0.000518087 -0.0125686)
(-0.0314796 0.000262135 -0.0129023)
(-0.0321213 -0.00114001 -0.0130408)
(-0.0377434 -0.0064207 -0.0128632)
(-0.0564752 -0.0257299 -0.0130021)
(-0.0306975 0.000692592 1.6938e-06)
(-0.0326758 0.000501444 1.18636e-06)
(-0.0340859 0.000342894 7.86621e-07)
(-0.0350486 0.000224589 4.97705e-07)
(-0.035689 0.00014428 3.06451e-07)
(-0.0361168 9.53196e-05 1.91281e-07)
(-0.0364191 7.06211e-05 1.31468e-07)
(-0.0366628 6.4548e-05 1.11306e-07)
(-0.0368989 7.3267e-05 1.20136e-07)
(-0.0371671 9.42497e-05 1.51169e-07)
(-0.0374977 0.00012534 1.99627e-07)
(-0.0379107 0.000163567 2.6047e-07)
(-0.0384119 0.000203795 3.26037e-07)
(-0.0389841 0.000237305 3.83639e-07)
(-0.0395768 0.000250596 4.12249e-07)
(-0.0400933 0.000225024 3.77907e-07)
(-0.0403809 0.000138598 2.38106e-07)
(-0.0402295 -2.82895e-05 -3.35799e-08)
(-0.0393905 -0.000287502 -5.11562e-07)
(-0.0376236 -0.000627599 -1.23135e-06)
(-0.0802899 0.00439548 -1.51269e-06)
(-0.0851813 0.0032514 -1.26336e-06)
(-0.0886977 0.00229179 -1.00018e-06)
(-0.0911319 0.00156082 -7.65281e-07)
(-0.0927816 0.00104916 -5.73597e-07)
(-0.0939049 0.000722145 -4.32631e-07)
(-0.0947072 0.000540402 -3.42135e-07)
(-0.0953447 0.000470033 -2.9634e-07)
(-0.0959344 0.000484973 -2.87131e-07)
(-0.0965628 0.000564746 -3.05021e-07)
(-0.0972895 0.000689865 -3.38435e-07)
(-0.0981457 0.000836025 -3.72056e-07)
(-0.0991245 0.000967803 -3.85009e-07)
(-0.100165 0.00103275 -3.49625e-07)
(-0.101132 0.000957588 -2.31838e-07)
(-0.101793 0.00064958 4.03082e-09)
(-0.101802 7.97276e-06 3.81284e-07)
(-0.100707 -0.00104988 8.91395e-07)
(-0.0979925 -0.00255027 1.50248e-06)
(-0.0931755 -0.00441058 2.07732e-06)
(-0.119556 0.0115018 -1.87154e-07)
(-0.126216 0.00849104 -3.25518e-07)
(-0.130896 0.00598941 -3.5733e-07)
(-0.134073 0.00409453 -3.40171e-07)
(-0.136194 0.0027691 -2.91164e-07)
(-0.137621 0.00191624 -2.32946e-07)
(-0.138629 0.0014306 -1.80099e-07)
(-0.139415 0.00122209 -1.38218e-07)
(-0.140125 0.00122035 -1.08022e-07)
(-0.140859 0.00136855 -8.75249e-08)
(-0.141684 0.00161219 -7.3254e-08)
(-0.142628 0.00188541 -6.07691e-08)
(-0.143674 0.00209677 -4.47885e-08)
(-0.144737 0.00211636 -1.87768e-08)
(-0.145643 0.00176848 2.59834e-08)
(-0.146096 0.000836529 9.68281e-08)
(-0.145656 -0.000909442 1.89745e-07)
(-0.143736 -0.00365365 2.98613e-07)
(-0.13965 -0.00743906 4.10815e-07)
(-0.132718 -0.0120539 3.49529e-07)
(-0.148948 0.0201355 -2.97631e-07)
(-0.156191 0.0146306 -4.79177e-07)
(-0.161001 0.0101704 -4.76519e-07)
(-0.1641 0.00686831 -4.24139e-07)
(-0.166072 0.0046002 -3.38138e-07)
(-0.167345 0.0031572 -2.50633e-07)
(-0.168211 0.00233504 -1.77922e-07)
(-0.168868 0.00196848 -1.22764e-07)
(-0.169445 0.00193279 -8.34746e-08)
(-0.170032 0.00212976 -5.69317e-08)
(-0.170683 0.00246741 -3.98833e-08)
(-0.171421 0.00283711 -2.93627e-08)
(-0.172232 0.00309014 -2.25674e-08)
(-0.17304 0.00301613 -1.50982e-08)
(-0.173688 0.00232891 4.06848e-09)
(-0.173897 0.000670142 4.71229e-08)
(-0.173223 -0.00235197 1.00912e-07)
(-0.171028 -0.00707016 2.02338e-07)
(-0.166485 -0.0135985 3.96537e-07)
(-0.158663 -0.021618 3.50218e-07)
(-0.168425 0.0290708 -8.07172e-07)
(-0.17499 0.0205212 -9.05285e-07)
(-0.178846 0.0138755 -7.34634e-07)
(-0.181036 0.0091424 -5.7501e-07)
(-0.182263 0.00599618 -4.05578e-07)
(-0.182963 0.00404319 -2.67089e-07)
(-0.183389 0.00294537 -1.70946e-07)
(-0.183683 0.00245109 -1.08771e-07)
(-0.183928 0.00238205 -7.13204e-08)
(-0.184174 0.0026054 -5.1351e-08)
(-0.184452 0.00300214 -4.38459e-08)
(-0.18478 0.00343491 -4.54823e-08)
(-0.185155 0.00371521 -5.38085e-08)
(-0.185548 0.00357134 -6.39353e-08)
(-0.185875 0.00262172 -5.68302e-08)
(-0.185954 0.000365239 -5.68686e-09)
(-0.185438 -0.00378707 4.85444e-08)
(-0.18373 -0.0104006 1.99416e-07)
(-0.179898 -0.019795 6.98601e-07)
(-0.172644 -0.0316787 1.00303e-06)
(-0.17757 0.0370743 -1.72023e-06)
(-0.182043 0.0249857 -1.47049e-06)
(-0.183825 0.0161685 -9.23518e-07)
(-0.184355 0.010247 -6.18802e-07)
(-0.184369 0.00650256 -3.64709e-07)
(-0.184213 0.00426773 -1.92871e-07)
(-0.184021 0.00304534 -9.58486e-08)
(-0.183834 0.00250174 -4.43321e-08)
(-0.183653 0.00242002 -1.91577e-08)
(-0.183471 0.00265092 -9.50047e-09)
(-0.183286 0.0030694 -1.00218e-08)
(-0.183102 0.00353486 -1.88338e-08)
(-0.182941 0.00385148 -3.60737e-08)
(-0.182834 0.00372558 -6.10402e-08)
(-0.182813 0.00272081 -7.58845e-08)
(-0.182871 0.000218356 -4.57926e-08)
(-0.182874 -0.00459202 -2.48359e-08)
(-0.182414 -0.0126237 1.10031e-07)
(-0.180581 -0.0246471 1.20306e-06)
(-0.175589 -0.0407347 2.54919e-06)
(-0.175438 0.0426515 -4.57193e-06)
(-0.176145 0.0266985 -3.02418e-06)
(-0.174792 0.0161517 -1.40128e-06)
(-0.173149 0.0096581 -7.30823e-07)
(-0.171751 0.00584105 -3.11197e-07)
(-0.170693 0.00369174 -9.68233e-08)
(-0.169904 0.00256665 -1.23871e-08)
(-0.169278 0.00208402 1.5397e-08)
(-0.168719 0.00202097 1.88602e-08)
(-0.168157 0.00223938 1.11873e-08)
(-0.167547 0.0026338 -3.17493e-09)
(-0.16688 0.00308998 -2.37916e-08)
(-0.166186 0.00344429 -5.17001e-08)
(-0.165553 0.00343588 -8.94782e-08)
(-0.165134 0.0026441 -1.18055e-07)
(-0.165142 0.000405313 -5.99783e-08)
(-0.165773 -0.00427841 7.27514e-08)
(-0.167038 -0.0127566 3.638e-07)
(-0.168389 -0.0265981 2.91033e-06)
(-0.167628 -0.0469548 7.00602e-06)
(-0.160033 0.0436166 -7.76309e-06)
(-0.155008 0.0240622 -3.16085e-06)
(-0.149863 0.0130776 -6.45217e-07)
(-0.146113 0.00715938 -2.44902e-07)
(-0.143585 0.00403734 3.10006e-08)
(-0.141926 0.00242494 1.28152e-07)
(-0.1408 0.00163634 1.21484e-07)
(-0.139954 0.0013212 1.00071e-07)
(-0.13921 0.0013008 8.30038e-08)
(-0.13845 0.00147847 7.10315e-08)
(-0.137597 0.00178959 6.12309e-08)
(-0.136619 0.00216805 4.893e-08)
(-0.135536 0.00251502 2.67914e-08)
(-0.134451 0.00265811 -2.57127e-08)
(-0.133589 0.00228584 -1.02475e-07)
(-0.133343 0.000831714 -3.27699e-08)
(-0.13427 -0.00271902 9.74109e-08)
(-0.137043 -0.0100549 -3.60802e-07)
(-0.142163 -0.0238505 2.57105e-06)
(-0.147825 -0.0477311 1.1189e-05)
(-0.126897 0.0373166 -9.69653e-06)
(-0.114414 0.0160635 4.29691e-06)
(-0.106247 0.00711998 4.81609e-06)
(-0.101672 0.0033107 2.06069e-06)
(-0.0990448 0.00164808 1.06754e-06)
(-0.0974958 0.000914176 6.48672e-07)
(-0.0965172 0.000600051 4.08863e-07)
(-0.0958031 0.000495826 3.10649e-07)
(-0.0951687 0.0005148 2.99023e-07)
(-0.0944948 0.000619695 3.36653e-07)
(-0.093701 0.000791377 4.03977e-07)
(-0.0927387 0.00101276 4.84007e-07)
(-0.0915999 0.00125547 5.46962e-07)
(-0.0903431 0.00146018 5.16351e-07)
(-0.0891493 0.00149602 2.94477e-07)
(-0.0884153 0.00106822 -6.75344e-08)
(-0.0888308 -0.000506096 -1.29473e-06)
(-0.0916731 -0.00484802 -5.98781e-06)
(-0.0993995 -0.0154796 -8.13679e-06)
(-0.113395 -0.0403548 1.2081e-05)
(-0.0645808 0.0228383 -5.39176e-05)
(-0.0479935 0.00655932 -9.19823e-06)
(-0.0413892 0.00199431 -6.74116e-07)
(-0.0389931 0.000634601 -1.4781e-06)
(-0.0379357 0.000215208 -9.61355e-07)
(-0.0373953 8.86262e-05 -4.53053e-07)
(-0.0370736 5.55612e-05 -2.57318e-07)
(-0.0368295 5.57295e-05 -1.83064e-07)
(-0.0365889 7.26671e-05 -1.62663e-07)
(-0.0363032 0.00010327 -1.79025e-07)
(-0.0359331 0.000148458 -2.21368e-07)
(-0.0354441 0.000210272 -2.7916e-07)
(-0.0348083 0.000290362 -3.37482e-07)
(-0.0340121 0.000386827 -3.70089e-07)
(-0.0330781 0.000483916 -2.86204e-07)
(-0.0321193 0.00052002 1.6101e-07)
(-0.031482 0.000271487 6.01242e-07)
(-0.0320794 -0.00111635 -1.99789e-06)
(-0.037527 -0.0063464 3.95659e-06)
(-0.0564619 -0.0255346 6.8278e-05)
(-0.0306975 0.000692592 -1.69659e-06)
(-0.0326758 0.000501444 -1.18862e-06)
(-0.0340859 0.000342894 -7.88474e-07)
(-0.0350485 0.000224589 -4.99231e-07)
(-0.035689 0.00014428 -3.07715e-07)
(-0.0361168 9.53195e-05 -1.92339e-07)
(-0.0364191 7.0621e-05 -1.3236e-07)
(-0.0366628 6.45479e-05 -1.12055e-07)
(-0.0368989 7.32669e-05 -1.20763e-07)
(-0.0371671 9.42497e-05 -1.51693e-07)
(-0.0374977 0.000125339 -2.00057e-07)
(-0.0379107 0.000163567 -2.60814e-07)
(-0.0384119 0.000203795 -3.26307e-07)
(-0.0389841 0.000237305 -3.83843e-07)
(-0.0395768 0.000250596 -4.12405e-07)
(-0.0400933 0.000225024 -3.78036e-07)
(-0.0403809 0.000138598 -2.38225e-07)
(-0.0402295 -2.82894e-05 3.34606e-08)
(-0.0393905 -0.000287502 5.11437e-07)
(-0.0376236 -0.000627599 1.23122e-06)
(-0.0802899 0.00439548 1.50963e-06)
(-0.0851813 0.0032514 1.26087e-06)
(-0.0886977 0.00229179 9.9813e-07)
(-0.0911319 0.00156082 7.63601e-07)
(-0.0927816 0.00104916 5.72233e-07)