/*--------------------------------*- C++ -*----------------------------------*\
| =========                 |                                                 |
| \\      /  F ield         | OpenFOAM: The Open Source CFD Toolbox           |
|  \\    /   O peration     | Version:  2.4.0                                 |
|   \\  /    A nd           | Web:      www.OpenFOAM.org                      |
|    \\/     M anipulation  |                                                 |
\*---------------------------------------------------------------------------*/
FoamFile
{
    version     2.0;
    format      ascii;
    class       volScalarField;
    location    "0.6";
    object      p;
}
// * * * * * * * * * * * * * * * * * * * * * * * * * * * * * * * * * * * * * //

dimensions      [0 2 -2 0 0 0 0];

internalField   nonuniform List<scalar> 
4800
(
1.95124e-08
-0.00117447
-0.00205735
-0.00240135
-0.0019851
-0.000715544
0.00142443
0.00441464
0.00820151
0.0126901
0.00117709
-8.56349e-06
-0.000586736
-0.000589643
5.7479e-05
0.00142992
0.00355093
0.0064136
0.0099846
0.0141984
0.00206338
0.000547548
-2.83045e-05
6.92424e-05
0.000796974
0.00220376
0.0043065
0.00710497
0.0105831
0.0146987
0.00233617
0.00044504
-0.000228765
-0.000133216
0.000599439
0.00199593
0.00406864
0.006828
0.0102815
0.0144189
0.00167852
-0.000481958
-0.00125078
-0.00119376
-0.000499327
0.000848588
0.00286825
0.00559261
0.00906906
0.0133478
-7.96547e-05
-0.00237663
-0.00321537
-0.00321983
-0.00260489
-0.00135342
0.000572171
0.00324455
0.00677793
0.0113524
-0.00299254
-0.0052918
-0.00616838
-0.0062537
-0.00576579
-0.00467839
-0.00292219
-0.000366319
0.0032041
0.00825328
-0.007029
-0.00920501
-0.0100882
-0.010276
-0.00997375
-0.0091456
-0.00768477
-0.00539086
-0.00192738
0.00376032
-0.0120794
-0.0140248
-0.0148884
-0.0152014
-0.0151497
-0.0146971
-0.0137049
-0.0119008
-0.00885291
-0.00233536
-0.0179598
-0.0195965
-0.0204201
-0.0208757
-0.0211349
-0.021195
-0.0209439
-0.0201251
-0.0185699
-0.0126819
-4.47468e-07
-0.00119234
-0.00208158
-0.00243193
-0.00201901
-0.000750523
0.00138974
0.00438166
0.00817189
0.0126657
0.00119303
-1.06636e-05
-0.000570848
-0.000567369
8.2403e-05
0.00145657
0.00357734
0.00643811
0.0100062
0.0142172
0.00208717
0.000528242
-2.86488e-05
7.03409e-05
0.00079596
0.00220264
0.00430523
0.00710329
0.010581
0.0146977
0.00236826
0.000419477
-0.000228975
-0.000131726
0.000597591
0.00199351
0.00406578
0.00682435
0.0102765
0.0144148
0.00171543
-0.000510495
-0.001248
-0.00118779
-0.000496656
0.000850714
0.0028697
0.00559252
0.00906468
0.0133417
-4.09954e-05
-0.00240726
-0.00321197
-0.0032125
-0.00260069
-0.00134957
0.000575608
0.00324674
0.00677141
0.0113378
-0.00295443
-0.0053225
-0.00616481
-0.00624573
-0.00576037
-0.0046729
-0.00291618
-0.000358828
0.00319575
0.00821824
-0.00699376
-0.00923399
-0.0100848
-0.010268
-0.0099675
-0.00913921
-0.00767778
-0.00537806
-0.00194972
0.00363544
-0.0120494
-0.0140508
-0.0148859
-0.0151942
-0.0151426
-0.0146882
-0.0136918
-0.0118595
-0.0088442
-0.00261494
-0.017937
-0.0196193
-0.0204197
-0.0208713
-0.0211292
-0.0211843
-0.0209192
-0.0200087
-0.0183128
-0.0127372
-4.55093e-07
-0.00119235
-0.00208159
-0.00243194
-0.00201902
-0.000750528
0.00138973
0.00438165
0.00817189
0.0126657
0.00119302
-1.06726e-05
-0.000570857
-0.000567377
8.23954e-05
0.00145656
0.00357733
0.0064381
0.0100062
0.0142172
0.00208716
0.000528231
-2.86594e-05
7.03314e-05
0.000795951
0.00220263
0.00430522
0.00710328
0.010581
0.0146977
0.00236825
0.000419464
-0.000228988
-0.000131738
0.00059758
0.0019935
0.00406577
0.00682435
0.0102765
0.0144148
0.00171541
-0.000510509
-0.00124802
-0.0011878
-0.000496668
0.000850704
0.00286969
0.00559251
0.00906468
0.0133417
-4.10121e-05
-0.00240728
-0.00321199
-0.00321252
-0.0026007
-0.00134959
0.000575598
0.00324673
0.0067714
0.0113378
-0.00295445
-0.00532252
-0.00616483
-0.00624575
-0.00576038
-0.00467291
-0.00291619
-0.000358836
0.00319575
0.00821823
-0.00699378
-0.009234
-0.0100849
-0.010268
-0.00996751
-0.00913923
-0.00767779
-0.00537807
-0.00194972
0.00363543
-0.0120494
-0.0140509
-0.0148859
-0.0151942
-0.0151426
-0.0146882
-0.0136918
-0.0118595
-0.00884421
-0.00261495
-0.017937
-0.0196193
-0.0204197
-0.0208713
-0.0211292
-0.0211843
-0.0209192
-0.0200087
-0.0183128
-0.0127372
9.09323e-09
-0.00117448
-0.00205736
-0.00240136
-0.00198511
-0.000715551
0.00142442
0.00441464
0.0082015
0.0126901
0.00117706
-8.58569e-06
-0.000586756
-0.000589661
5.74633e-05
0.00142991
0.00355092
0.00641359
0.00998459
0.0141984
0.00206334
0.000547519
-2.833e-05
6.92198e-05
0.000796953
0.00220374
0.00430648
0.00710496
0.010583
0.0146987
0.00233613
0.000445006
-0.000228796
-0.000133244
0.000599412
0.00199591
0.00406862
0.00682798
0.0102815
0.0144189
0.00167847
-0.000481996
-0.00125081
-0.00119379
-0.000499357
0.000848563
0.00286822
0.00559259
0.00906905
0.0133477
-7.97025e-05
-0.00237667
-0.0032154
-0.00321987
-0.00260492
-0.00135344
0.000572147
0.00324453
0.00677792
0.0113524
-0.00299258
-0.00529185
-0.00616842
-0.00625374
-0.00576582
-0.00467842
-0.00292222
-0.00036634
0.00320408
0.00825327
-0.00702905
-0.00920505
-0.0100883
-0.010276
-0.00997378
-0.00914562
-0.0076848
-0.00539088
-0.0019274
0.00376031
-0.0120795
-0.0140248
-0.0148885
-0.0152015
-0.0151497
-0.0146971
-0.0137049
-0.0119009
-0.00885292
-0.00233537
-0.0179598
-0.0195965
-0.0204202
-0.0208757
-0.0211349
-0.021195
-0.020944
-0.0201251
-0.01857
-0.012682
0.0177412
0.0231904
0.0288912
0.0347339
0.0406467
0.0465888
0.0525405
0.0584962
0.0644589
0.0704376
0.0764465
0.0825052
0.0886382
0.0948744
0.101244
0.107773
0.114464
0.121292
0.128175
0.134962
0.0189513
0.024111
0.0295579
0.0351972
0.0409586
0.0467953
0.0526783
0.0585924
0.0645322
0.0704996
0.0765022
0.0825525
0.088667
0.0948641
0.101161
0.107566
0.114077
0.120657
0.127231
0.133672
0.0193634
0.024438
0.0298068
0.0353797
0.0410885
0.0468853
0.0527391
0.0586319
0.0645549
0.0705065
0.0764906
0.0825155
0.088593
0.0947366
0.100959
0.107269
0.113662
0.120114
0.126565
0.132908
0.0191584
0.0243058
0.0297297
0.0353408
0.0410726
0.0468809
0.0527379
0.0586272
0.0645407
0.0704756
0.0764339
0.0824211
0.0884455
0.0945181
0.100651
0.106858
0.113147
0.119513
0.125928
0.132319
0.0183595
0.0237531
0.029366
0.0351135
0.0409362
0.0468003
0.0526879
0.0585895
0.0645006
0.07042
0.0763484
0.0822889
0.0882466
0.0942299
0.100252
0.106332
0.112496
0.118775
0.125187
0.131733
0.0169592
0.0228333
0.0287827
0.0347595
0.0407283
0.0466795
0.0526147
0.0585373
0.0644498
0.0703539
0.0762498
0.0821377
0.0880185
0.0938963
0.0997826
0.105702
0.111702
0.117855
0.124256
0.13106
0.0150347
0.0217107
0.0281399
0.0344077
0.0405413
0.0465804
0.0525591
0.0584982
0.0644091
0.070296
0.0761582
0.0819916
0.0877909
0.0935526
0.0992807
0.104999
0.110771
0.116716
0.123038
0.130206
0.0128221
0.0206936
0.0276828
0.0342305
0.0404854
0.0465694
0.0525605
0.0584971
0.0643964
0.070263
0.0760929
0.0818759
0.0875978
0.0932425
0.0987986
0.104279
0.109755
0.115379
0.121458
0.129024
0.01177
0.0209173
0.0280182
0.0345265
0.0407013
0.0467106
0.0526487
0.0585505
0.0644258
0.0702718
0.0760777
0.0818247
0.0874863
0.093028
0.0984095
0.103609
0.108659
0.113643
0.118781
0.126097
0.0155799
0.0249239
0.030308
0.0357609
0.0413626
0.0470653
0.0528458
0.0586703
0.0645107
0.0703438
0.0761459
0.0818871
0.0875249
0.0929963
0.098205
0.103006
0.107239
0.110671
0.112902
0.117798
0.0177233
0.0231783
0.0288835
0.0347292
0.0406441
0.0465873
0.0525397
0.0584957
0.0644584
0.0704369
0.0764457
0.082504
0.0886368
0.0948728
0.101243
0.107772
0.114464
0.121295
0.128183
0.134977
0.0189681
0.024125
0.0295689
0.0352053
0.0409645
0.0467994
0.0526812
0.0585946
0.0645339
0.0705011
0.0765036
0.0825539
0.0886681
0.0948644
0.10116
0.107563
0.11407
0.120646
0.127216
0.133652
0.0193658
0.0244419
0.0298108
0.0353833
0.0410914
0.0468875
0.0527408
0.0586331
0.0645558
0.0705071
0.076491
0.0825157
0.088593
0.0947362
0.100958
0.107267
0.11366
0.12011
0.12656
0.132904
0.0191616
0.0243108
0.0297344
0.0353449
0.0410758
0.0468832
0.0527395
0.0586283
0.0645414
0.0704761
0.0764342
0.0824212
0.0884455
0.0945178
0.100651
0.106857
0.113144
0.119509
0.125922
0.132315
0.0183682
0.0237625
0.0293731
0.0351188
0.0409399
0.0468027
0.0526894
0.0585904
0.0645012
0.0704203
0.0763487
0.0822891
0.0882467
0.0942299
0.100251
0.106331
0.112494
0.118771
0.125179
0.131722
0.0169792
0.022849
0.0287916
0.0347654
0.0407317
0.0466812
0.0526156
0.0585377
0.06445
0.0703539
0.0762499
0.0821378
0.0880186
0.0938965
0.0997827
0.105702
0.111701
0.117851
0.124242
0.131034
0.0150894
0.0217439
0.0281539
0.034415
0.0405444
0.0465814
0.0525592
0.0584981
0.0644089
0.0702958
0.0761581
0.0819917
0.0877912
0.093553
0.0992811
0.104998
0.110769
0.11671
0.123006
0.130135
0.0129167
0.0207285
0.0276886
0.0342331
0.0404853
0.0465683
0.0525594
0.0584963
0.0643958
0.0702625
0.0760925
0.0818756
0.0875977
0.0932429
0.0987997
0.10428
0.109754
0.115381
0.121428
0.128909
0.011892
0.0208675
0.0279647
0.0345057
0.0406912
0.0467047
0.0526455
0.0585485
0.0644241
0.0702701
0.0760757
0.0818224
0.0874839
0.0930263
0.0984103
0.103613
0.108675
0.113706
0.118856
0.125959
0.0162396
0.0250168
0.0303101
0.0357767
0.0413725
0.0470694
0.0528478
0.0586716
0.0645116
0.0703446
0.0761468
0.0818882
0.087526
0.092997
0.0982042
0.103001
0.107228
0.110688
0.112846
0.117032
0.0177233
0.0231783
0.0288835
0.0347292
0.0406441
0.0465873
0.0525397
0.0584957
0.0644584
0.0704369
0.0764457
0.082504
0.0886368
0.0948728
0.101243
0.107772
0.114464
0.121295
0.128183
0.134977
0.0189681
0.024125
0.0295689
0.0352053
0.0409645
0.0467994
0.0526812
0.0585946
0.0645339
0.0705011
0.0765036
0.0825539
0.0886681
0.0948644
0.10116
0.107563
0.11407
0.120646
0.127216
0.133652
0.0193658
0.0244419
0.0298108
0.0353833
0.0410914
0.0468875
0.0527408
0.0586331
0.0645558
0.0705071
0.076491
0.0825157
0.088593
0.0947362
0.100958
0.107267
0.11366
0.12011
0.12656
0.132904
0.0191616
0.0243108
0.0297344
0.0353449
0.0410758
0.0468832
0.0527395
0.0586283
0.0645414
0.0704761
0.0764342
0.0824212
0.0884455
0.0945178
0.100651
0.106857
0.113144
0.119509
0.125922
0.132315
0.0183682
0.0237625
0.0293731
0.0351188
0.0409399
0.0468027
0.0526894
0.0585904
0.0645012
0.0704203
0.0763487
0.0822891
0.0882467
0.0942299
0.100251
0.106331
0.112494
0.118771
0.125179
0.131722
0.0169792
0.022849
0.0287916
0.0347654
0.0407317
0.0466812
0.0526156
0.0585377
0.06445
0.0703539
0.0762499
0.0821378
0.0880186
0.0938965
0.0997827
0.105702
0.111701
0.117851
0.124242
0.131034
0.0150894
0.0217439
0.0281539
0.034415
0.0405444
0.0465814
0.0525592
0.0584981
0.0644089
0.0702958
0.0761581
0.0819917
0.0877912
0.093553
0.0992811
0.104998
0.110769
0.11671
0.123006
0.130135
0.0129167
0.0207285
0.0276886
0.0342331
0.0404853
0.0465683
0.0525594
0.0584963
0.0643958
0.0702625
0.0760925
0.0818756
0.0875977
0.0932429
0.0987997
0.10428
0.109754
0.115381
0.121428
0.128909
0.011892
0.0208675
0.0279647
0.0345057
0.0406912
0.0467047
0.0526455
0.0585485
0.0644241
0.0702701
0.0760757
0.0818224
0.0874839
0.0930263
0.0984103
0.103613
0.108675
0.113706
0.118856
0.125959
0.0162396
0.0250168
0.0303101
0.0357767
0.0413725
0.0470694
0.0528478
0.0586716
0.0645116
0.0703446
0.0761468
0.0818882
0.087526
0.092997
0.0982042
0.103001
0.107228
0.110688
0.112846
0.117032
0.0177412
0.0231904
0.0288912
0.0347339
0.0406467
0.0465888
0.0525405
0.0584962
0.0644589
0.0704376
0.0764465
0.0825052
0.0886382
0.0948744
0.101244
0.107773
0.114464
0.121292
0.128175
0.134962
0.0189513
0.0241109
0.0295579
0.0351972
0.0409586
0.0467953
0.0526783
0.0585924
0.0645322
0.0704996
0.0765022
0.0825525
0.088667
0.094864
0.101161
0.107566
0.114077
0.120657
0.127231
0.133672
0.0193634
0.024438
0.0298068
0.0353797
0.0410885
0.0468853
0.0527391
0.0586319
0.0645549
0.0705065
0.0764906
0.0825155
0.088593
0.0947366
0.100959
0.107269
0.113662
0.120114
0.126565
0.132908
0.0191584
0.0243057
0.0297297
0.0353408
0.0410726
0.0468809
0.0527379
0.0586272
0.0645407
0.0704756
0.0764339
0.0824211
0.0884455
0.0945181
0.100651
0.106858
0.113146
0.119513
0.125928
0.132319
0.0183595
0.0237531
0.029366
0.0351134
0.0409362
0.0468003
0.0526879
0.0585895
0.0645006
0.07042
0.0763484
0.0822889
0.0882466
0.0942299
0.100252
0.106332
0.112496
0.118775
0.125187
0.131733
0.0169592
0.0228333
0.0287827
0.0347595
0.0407283
0.0466795
0.0526147
0.0585373
0.0644498
0.0703539
0.0762498
0.0821377
0.0880185
0.0938963
0.0997826
0.105702
0.111702
0.117855
0.124256
0.13106
0.0150347
0.0217106
0.0281399
0.0344077
0.0405413
0.0465804
0.0525591
0.0584982
0.0644091
0.070296
0.0761582
0.0819916
0.0877909
0.0935526
0.0992807
0.104999
0.110771
0.116716
0.123038
0.130206
0.0128221
0.0206936
0.0276828
0.0342305
0.0404854
0.0465694
0.0525604
0.0584971
0.0643964
0.070263
0.0760929
0.0818759
0.0875978
0.0932425
0.0987986
0.104279
0.109755
0.115379
0.121458
0.129024
0.01177
0.0209173
0.0280182
0.0345265
0.0407013
0.0467106
0.0526487
0.0585505
0.0644258
0.0702718
0.0760777
0.0818247
0.0874863
0.093028
0.0984095
0.103609
0.108659
0.113643
0.118781
0.126097
0.0155799
0.0249239
0.030308
0.0357609
0.0413626
0.0470653
0.0528458
0.0586703
0.0645107
0.0703438
0.0761459
0.0818871
0.0875249
0.0929963
0.098205
0.103006
0.107239
0.110671
0.112902
0.117798
0.141429
0.14731
0.15236
0.156397
0.159311
0.161069
0.161728
0.161455
0.160569
0.159392
0.139791
0.145364
0.150184
0.154098
0.157014
0.158909
0.159836
0.159939
0.159383
0.158217
0.138967
0.144499
0.1493
0.153221
0.156175
0.15814
0.159163
0.159364
0.158805
0.157335
0.138511
0.144186
0.149112
0.153135
0.15617
0.158197
0.159258
0.159461
0.158803
0.156991
0.138251
0.144237
0.149414
0.153623
0.156785
0.158892
0.159991
0.16019
0.159451
0.157408
0.13819
0.144689
0.150241
0.15471
0.158036
0.16024
0.161388
0.161597
0.160824
0.158679
0.138439
0.14568
0.151701
0.156466
0.159962
0.16226
0.163462
0.163701
0.162947
0.160821
0.139256
0.147482
0.153994
0.159021
0.162634
0.164985
0.166222
0.166501
0.165811
0.163814
0.140809
0.150528
0.157456
0.162591
0.166168
0.168462
0.169677
0.169981
0.169385
0.167604
0.146692
0.157042
0.163142
0.167639
0.170742
0.172741
0.173815
0.174098
0.173601
0.172097
0.141452
0.14734
0.152396
0.156435
0.159349
0.161106
0.16176
0.161479
0.160585
0.159392
0.139769
0.145338
0.150155
0.154067
0.156983
0.15888
0.159811
0.15992
0.159381
0.1582
0.138967
0.144502
0.149304
0.153224
0.156178
0.158143
0.159162
0.159363
0.158821
0.157311
0.138515
0.144193
0.14912
0.153143
0.156177
0.158203
0.15926
0.159463
0.158825
0.156961
0.138256
0.144244
0.14942
0.153628
0.156789
0.158894
0.15999
0.160189
0.159476
0.157375
0.1382
0.144697
0.150248
0.154715
0.15804
0.160242
0.161386
0.161596
0.160851
0.158644
0.138464
0.145693
0.151708
0.156472
0.159965
0.162261
0.163459
0.1637
0.162973
0.160786
0.139373
0.147523
0.154007
0.159029
0.162637
0.164985
0.166218
0.166499
0.165836
0.163781
0.141066
0.150536
0.157434
0.162583
0.166161
0.168457
0.169672
0.169979
0.169406
0.167575
0.146636
0.156762
0.163017
0.167604
0.170728
0.172735
0.173811
0.174097
0.17362
0.172073
0.141452
0.14734
0.152396
0.156435
0.159349
0.161106
0.16176
0.161479
0.160585
0.159392
0.139769
0.145338
0.150155
0.154067
0.156983
0.15888
0.159811
0.15992
0.159381
0.1582
0.138967
0.144502
0.149304
0.153224
0.156178
0.158143
0.159162
0.159363
0.158821
0.157311
0.138515
0.144193
0.14912
0.153143
0.156177
0.158203
0.15926
0.159463
0.158825
0.156961
0.138256
0.144244
0.14942
0.153628
0.156789
0.158894
0.15999
0.160189
0.159476
0.157375
0.1382
0.144697
0.150248
0.154715
0.15804
0.160242
0.161386
0.161596
0.160851
0.158644
0.138464
0.145693
0.151708
0.156472
0.159965
0.162261
0.163459
0.1637
0.162973
0.160786
0.139373
0.147523
0.154007
0.159029
0.162637
0.164985
0.166218
0.166499
0.165836
0.163781
0.141066
0.150536
0.157434
0.162583
0.166161
0.168457
0.169672
0.169979
0.169406
0.167575
0.146636
0.156762
0.163017
0.167604
0.170728
0.172735
0.173811
0.174097
0.17362
0.172073
0.141429
0.147309
0.15236
0.156397
0.159311
0.161069
0.161727
0.161455
0.160569
0.159392
0.139791
0.145364
0.150184
0.154098
0.157014
0.158909
0.159836
0.159939
0.159383
0.158217
0.138967
0.144499
0.1493
0.153221
0.156175
0.15814
0.159163
0.159364
0.158805
0.157335
0.138511
0.144186
0.149112
0.153135
0.15617
0.158197
0.159258
0.159461
0.158803
0.156991
0.138251
0.144237
0.149414
0.153623
0.156785
0.158892
0.159991
0.16019
0.159451
0.157408
0.13819
0.144689
0.150241
0.15471
0.158036
0.16024
0.161388
0.161597
0.160824
0.158679
0.138439
0.14568
0.151701
0.156466
0.159962
0.16226
0.163462
0.163701
0.162947
0.160821
0.139256
0.147482
0.153994
0.159021
0.162634
0.164985
0.166222
0.166501
0.165811
0.163814
0.140809
0.150528
0.157456
0.162591
0.166168
0.168462
0.169677
0.169981
0.169385
0.167604
0.146692
0.157042
0.163142
0.167639
0.170742
0.172741
0.173815
0.174098
0.173601
0.172097
0.174944
0.171142
0.172201
0.17442
0.176349
0.177753
0.178556
0.178765
0.178357
0.177154
0.184282
0.180287
0.180071
0.181095
0.182223
0.183147
0.183703
0.18384
0.183519
0.18261
0.18966
0.187387
0.187062
0.187526
0.188173
0.188759
0.189126
0.189208
0.188967
0.188317
0.195108
0.193898
0.193615
0.193798
0.194152
0.194505
0.194733
0.194775
0.194603
0.194164
0.20071
0.200084
0.199883
0.199941
0.200124
0.200325
0.200456
0.200472
0.200354
0.200077
0.206423
0.206119
0.205993
0.205999
0.206082
0.206182
0.206246
0.206243
0.206166
0.206009
0.212234
0.212106
0.212032
0.21201
0.212029
0.212058
0.21207
0.21205
0.212
0.21193
0.218122
0.2181
0.218051
0.218005
0.217971
0.21794
0.217905
0.217863
0.217827
0.217821
0.224089
0.224129
0.224086
0.224006
0.223914
0.223819
0.22373
0.223655
0.223619
0.223658
0.230151
0.230228
0.230167
0.230033
0.229865
0.229688
0.229526
0.229401
0.229347
0.229416
0.236344
0.236435
0.236326
0.236104
0.235829
0.235539
0.235276
0.235074
0.234978
0.235057
0.242733
0.242796
0.242594
0.242238
0.241809
0.241364
0.240959
0.240643
0.240473
0.240527
0.249411
0.24937
0.249006
0.248451
0.247807
0.247151
0.246554
0.246077
0.245785
0.245761
0.25651
0.256219
0.255589
0.254746
0.253818
0.25289
0.252044
0.251349
0.250871
0.250677
0.264218
0.263388
0.262335
0.261114
0.259825
0.258568
0.257421
0.25645
0.255702
0.255187
0.272786
0.270874
0.269182
0.267478
0.265781
0.264172
0.262698
0.2614
0.260276
0.259227
0.282378
0.278519
0.275889
0.273651
0.271575
0.269676
0.267917
0.266275
0.264655
0.262776
0.292779
0.285671
0.281884
0.279239
0.276989
0.275023
0.273152
0.271233
0.269007
0.265904
0.30386
0.291506
0.286238
0.283533
0.281593
0.28006
0.278488
0.276524
0.273644
0.268845
0.318668
0.293927
0.286391
0.28476
0.284379
0.284365
0.283946
0.282489
0.279074
0.272074
0.175604
0.171265
0.172296
0.174474
0.176369
0.177762
0.178559
0.178767
0.178374
0.177136
0.184375
0.180237
0.180106
0.181128
0.182239
0.183156
0.183708
0.183844
0.183533
0.182598
0.189662
0.187334
0.187068
0.18754
0.188182
0.188767
0.189131
0.189212
0.188978
0.188309
0.195123
0.193878
0.193617
0.193805
0.194158
0.194511
0.194737
0.194779
0.194611
0.19416
0.200719
0.200075
0.199883
0.199944
0.200127
0.200328
0.200459
0.200474
0.200359
0.200075
0.206427
0.206114
0.205992
0.206
0.206084
0.206185
0.206248
0.206245
0.206169
0.206008
0.212236
0.212105
0.212031
0.212011
0.21203
0.21206
0.212072
0.212051
0.212002
0.21193
0.218122
0.2181
0.218051
0.218005
0.217971
0.217941
0.217906
0.217864
0.217827
0.217821
0.224089
0.224131
0.224086
0.224006
0.223915
0.22382
0.22373
0.223656
0.223618
0.22366
0.230149
0.230231
0.230167
0.230033
0.229865
0.229688
0.229527
0.229401
0.229345
0.229418
0.236342
0.236438
0.236326
0.236104
0.235828
0.235539
0.235276
0.235074
0.234976
0.235059
0.24273
0.2428
0.242593
0.242237
0.241808
0.241363
0.240959
0.240643
0.24047
0.24053
0.249408
0.249372
0.249004
0.248449
0.247807
0.247151
0.246554
0.246077
0.245783
0.245764
0.256508
0.256217
0.255585
0.254744
0.253817
0.252889
0.252045
0.251351
0.250872
0.25068
0.264219
0.263377
0.262329
0.261111
0.259823
0.258568
0.257423
0.256454
0.255709
0.255189
0.272796
0.270848
0.269175
0.267475
0.265778
0.264173
0.262701
0.261406
0.260291
0.259226
0.282431
0.278471
0.275884
0.27365
0.271572
0.269678
0.267921
0.266285
0.264684
0.262768
0.292893
0.285542
0.281864
0.279237
0.276984
0.275025
0.273157
0.271247
0.269057
0.265884
0.304002
0.291201
0.286225
0.283565
0.281603
0.280071
0.278497
0.276544
0.273725
0.268807
0.319921
0.293978
0.286656
0.284931
0.284439
0.284393
0.28396
0.282517
0.279197
0.27201
0.175604
0.171265
0.172296
0.174474
0.176369
0.177762
0.178559
0.178767
0.178374
0.177136
0.184375
0.180237
0.180106
0.181128
0.182239
0.183156
0.183708
0.183844
0.183533
0.182597
0.189662
0.187334
0.187068
0.18754
0.188182
0.188767
0.189131
0.189212
0.188978
0.188309
0.195123
0.193878
0.193617
0.193805
0.194158
0.194511
0.194737
0.194779
0.194611
0.19416
0.200719
0.200075
0.199883
0.199944
0.200127
0.200328
0.200459
0.200474
0.200359
0.200075
0.206427
0.206114
0.205992
0.206
0.206084
0.206185
0.206248
0.206245
0.206169
0.206008
0.212236
0.212105
0.212031
0.212011
0.21203
0.21206
0.212072
0.212051
0.212002
0.21193
0.218122
0.2181
0.218051
0.218005
0.217971
0.217941
0.217906
0.217864
0.217827
0.217821
0.224089
0.224131
0.224086
0.224006
0.223915
0.22382
0.22373
0.223656
0.223618
0.22366
0.230149
0.230231
0.230167
0.230033
0.229865
0.229688
0.229527
0.229401
0.229345
0.229418
0.236342
0.236438
0.236326
0.236104
0.235828
0.235539
0.235276
0.235074
0.234976
0.235059
0.24273
0.2428
0.242593
0.242237
0.241808
0.241363
0.240959
0.240643
0.24047
0.24053
0.249408
0.249372
0.249004
0.248449
0.247807
0.247151
0.246554
0.246077
0.245783
0.245764
0.256508
0.256217
0.255585
0.254744
0.253817
0.252889
0.252045
0.251351
0.250872
0.25068
0.264219
0.263377
0.262329
0.261111
0.259823
0.258568
0.257423
0.256454
0.255709
0.255189
0.272796
0.270848
0.269175
0.267475
0.265778
0.264173
0.262701
0.261406
0.260291
0.259226
0.282431
0.278471
0.275884
0.27365
0.271572
0.269678
0.267921
0.266285
0.264684
0.262768
0.292893
0.285542
0.281864
0.279237
0.276984
0.275025
0.273157
0.271247
0.269057
0.265884
0.304002
0.291201
0.286225
0.283565
0.281603
0.280071
0.278497
0.276544
0.273725
0.268807
0.319921
0.293978
0.286656
0.284931
0.284439
0.284393
0.28396
0.282517
0.279197
0.27201
0.174944
0.171142
0.172201
0.17442
0.176349
0.177753
0.178556
0.178765
0.178357
0.177154
0.184282
0.180287
0.180071
0.181095
0.182223
0.183147
0.183703
0.18384
0.183519
0.18261
0.18966
0.187387
0.187062
0.187526
0.188173
0.188759
0.189126
0.189208
0.188967
0.188317
0.195108
0.193898
0.193615
0.193798
0.194152
0.194505
0.194733
0.194775
0.194603
0.194164
0.20071
0.200084
0.199883
0.199941
0.200124
0.200325
0.200456
0.200472
0.200354
0.200077
0.206423
0.206119
0.205993
0.205999
0.206082
0.206182
0.206246
0.206243
0.206166
0.206009
0.212234
0.212106
0.212032
0.21201
0.212029
0.212058
0.21207
0.21205
0.212
0.21193
0.218122
0.2181
0.218051
0.218005
0.217971
0.21794
0.217905
0.217863
0.217827
0.217821
0.224089
0.224129
0.224086
0.224006
0.223914
0.223819
0.22373
0.223655
0.223619
0.223658
0.230151
0.230228
0.230167
0.230033
0.229865
0.229688
0.229526
0.229401
0.229347
0.229416
0.236344
0.236435
0.236326
0.236104
0.235829
0.235539
0.235276
0.235074
0.234978
0.235057
0.242733
0.242796
0.242594
0.242238
0.241809
0.241364
0.240959
0.240643
0.240473
0.240527
0.249411
0.24937
0.249006
0.248451
0.247807
0.247151
0.246553
0.246076
0.245785
0.245761
0.256509
0.256219
0.255589
0.254746
0.253818
0.252889
0.252044
0.251349
0.250871
0.250677
0.264218
0.263388
0.262335
0.261114
0.259825
0.258568
0.257421
0.25645
0.255702
0.255187
0.272786
0.270874
0.269182
0.267478
0.26578
0.264172
0.262698
0.2614
0.260276
0.259227
0.282378
0.278519
0.275888
0.273651
0.271575
0.269676
0.267917
0.266275
0.264655
0.262776
0.292779
0.285671
0.281884
0.279239
0.276989
0.275023
0.273152
0.271233
0.269007
0.265904
0.30386
0.291506
0.286238
0.283533
0.281593
0.28006
0.278488
0.276524
0.273644
0.268845
0.318668
0.293927
0.286391
0.28476
0.284379
0.284365
0.283946
0.282489
0.279074
0.272074
0.260219
0.268812
0.275008
0.279878
0.283914
0.287337
0.28951
0.289584
0.28607
0.276431
0.233506
0.25007
0.262089
0.271999
0.280947
0.289056
0.295376
0.298468
0.295777
0.28331
0.218166
0.234617
0.248673
0.262144
0.275864
0.28959
0.30179
0.309994
0.30983
0.294964
0.205909
0.220854
0.235494
0.251426
0.269528
0.289507
0.309394
0.325461
0.330653
0.315158
0.196278
0.209661
0.224229
0.241834
0.263818
0.290365
0.319662
0.346973
0.361958
0.350318
0.189702
0.202133
0.216753
0.235838
0.261444
0.294761
0.335079
0.377694
0.409267
0.410823
0.186424
0.19891
0.214344
0.235411
0.264967
0.305586
0.358733
0.421512
0.479548
0.511637
0.186023
0.199481
0.216554
0.240333
0.274557
0.323538
0.391863
0.480405
0.579017
0.680852
0.187181
0.201637
0.220044
0.245835
0.283652
0.339945
0.423822
0.544261
0.71133
0.990476
0.188435
0.202527
0.220032
0.244206
0.279874
0.334829
0.423745
0.574845
0.859328
1.47545
0.260502
0.268335
0.274877
0.279859
0.283904
0.287339
0.289512
0.289615
0.286247
0.276331
0.233908
0.250005
0.262037
0.271971
0.280926
0.289049
0.295367
0.298503
0.296026
0.283169
0.218418
0.234647
0.248663
0.262122
0.275838
0.289571
0.301763
0.310031
0.310167
0.294778
0.206003
0.220857
0.235469
0.251385
0.269478
0.289456
0.30933
0.325486
0.331078
0.314924
0.196311
0.209646
0.224184
0.241764
0.263728
0.290261
0.319533
0.346962
0.362428
0.350058
0.189712
0.202107
0.21669
0.235734
0.261299
0.294569
0.334835
0.377586
0.409678
0.410755
0.186435
0.19889
0.214281
0.235289
0.264765
0.305259
0.358265
0.421162
0.47959
0.512097
0.186062
0.199512
0.216571
0.240323
0.274483
0.3233
0.391421
0.479958
0.577796
0.680513
0.187247
0.201741
0.220215
0.246105
0.284052
0.340462
0.424504
0.5448
0.708101
0.988129
0.188492
0.202581
0.220074
0.244236
0.279913
0.334926
0.424125
0.575319
0.855684
1.4847
0.260502
0.268335
0.274877
0.279859
0.283904
0.287339
0.289512
0.289615
0.286247
0.276331
0.233908
0.250005
0.262037
0.271971
0.280926
0.289049
0.295367
0.298503
0.296026
0.283169
0.218418
0.234647
0.248663
0.262122
0.275838
0.289571
0.301763
0.310031
0.310167
0.294778
0.206003
0.220857
0.235469
0.251385
0.269478
0.289456
0.30933
0.325486
0.331078
0.314924
0.196311
0.209646
0.224184
0.241764
0.263728
0.290261
0.319533
0.346962
0.362428
0.350058
0.189712
0.202107
0.21669
0.235734
0.261299
0.294569
0.334835
0.377586
0.409678
0.410755
0.186435
0.19889
0.214281
0.23529
0.264765
0.305259
0.358265
0.421162
0.47959
0.512097
0.186062
0.199512
0.216571
0.240323
0.274483
0.3233
0.391421
0.479958
0.577796
0.680513
0.187247
0.201741
0.220215
0.246105
0.284052
0.340462
0.424504
0.5448
0.708102
0.988129
0.188492
0.202581
0.220074
0.244236
0.279913
0.334926
0.424125
0.575319
0.855684
1.4847
0.260219
0.268812
0.275008
0.279878
0.283914
0.287337
0.28951
0.289584
0.28607
0.276431
0.233506
0.25007
0.262089
0.271999
0.280947
0.289056
0.295376
0.298468
0.295777
0.28331
0.218166
0.234617
0.248673
0.262144
0.275864
0.28959
0.30179
0.309994
0.30983
0.294964
0.205909
0.220854
0.235494
0.251426
0.269528
0.289507
0.309394
0.325461
0.330653
0.315158
0.196278
0.209661
0.224229
0.241834
0.263818
0.290365
0.319662
0.346973
0.361958
0.350318
0.189702
0.202134
0.216753
0.235838
0.261444
0.294761
0.335079
0.377694
0.409267
0.410823
0.186424
0.19891
0.214344
0.235411
0.264967
0.305586
0.358733
0.421512
0.479548
0.511637
0.186023
0.199481
0.216554
0.240333
0.274557
0.323538
0.391864
0.480405
0.579017
0.680852
0.187181
0.201637
0.220045
0.245835
0.283652
0.339945
0.423822
0.544261
0.71133
0.990476
0.188435
0.202527
0.220032
0.244206
0.279874
0.334829
0.423745
0.574845
0.859328
1.47545
-0.141799
-0.121292
-0.103915
-0.0877023
-0.0713475
-0.0547247
-0.0378711
-0.0208439
-0.00370901
0.0134677
0.0306221
0.0476928
0.0646258
0.081387
0.0979983
0.114615
0.131644
0.149969
0.172596
0.209004
-0.130182
-0.116376
-0.101806
-0.0864873
-0.0705382
-0.0541582
-0.0374672
-0.0205541
-0.00349545
0.013643
0.0308051
0.047945
0.0650343
0.0820778
0.0991443
0.116424
0.134281
0.153289
0.174903
0.2026
-0.128177
-0.115554
-0.10145
-0.0863267
-0.0704845
-0.0541496
-0.0374674
-0.0205425
-0.00345539
0.0137303
0.0309639
0.0482064
0.0654346
0.0826506
0.0999009
0.117309
0.135097
0.15358
0.173373
0.195492
-0.129826
-0.116808
-0.102428
-0.0870947
-0.0710848
-0.0546034
-0.037792
-0.020751
-0.00355356
0.0137455
0.0311031
0.0484847
0.0658627
0.0832179
0.100545
0.117862
0.135211
0.15265
0.170313
0.188366
-0.133244
-0.119332
-0.1043
-0.0884767
-0.0720977
-0.0553333
-0.0383007
-0.0210803
-0.00372796
0.0137152
0.0312161
0.0487431
0.0662598
0.0837185
0.101054
0.118179
0.134976
0.151297
0.167018
0.182076
-0.136815
-0.12196
-0.106215
-0.0898564
-0.073081
-0.0560224
-0.0387683
-0.0213751
-0.00388033
0.0136885
0.0313062
0.0489412
0.0665455
0.0840432
0.101318
0.1182
0.134468
0.149865
0.164176
0.177364
-0.138766
-0.12333
-0.107168
-0.0905112
-0.0735236
-0.0563132
-0.0389476
-0.021469
-0.00390454
0.0137244
0.0313941
0.0490685
0.0666878
0.0841543
0.101319
0.117971
0.133847
0.148669
0.162247
0.174647
-0.137968
-0.122614
-0.106574
-0.0900394
-0.0731567
-0.0560291
-0.0387253
-0.0212906
-0.00375663
0.0138498
0.0314982
0.0491437
0.0667157
0.0841037
0.101146
0.117628
0.133294
0.147906
0.16135
0.173816
-0.134285
-0.11985
-0.104551
-0.0885827
-0.0721181
-0.0552914
-0.0382007
-0.0209163
-0.00348927
0.0140382
0.0316233
0.0492112
0.0667235
0.0840461
0.10102
0.117441
0.133082
0.147751
0.161395
0.174275
-0.12757
-0.115155
-0.101319
-0.0863809
-0.0706262
-0.0542817
-0.0375164
-0.0204513
-0.00317266
0.0142549
0.0317754
0.0493282
0.0668346
0.0841846
0.101227
0.117769
0.13359
0.148494
0.1624
0.175496
-0.14197
-0.121121
-0.10389
-0.0877172
-0.0713556
-0.0547298
-0.037875
-0.0208466
-0.00371067
0.0134668
0.0306218
0.0476925
0.0646248
0.0813836
0.0979892
0.114597
0.131625
0.149929
0.172281
0.208375
-0.130134
-0.116253
-0.101754
-0.0864596
-0.0705169
-0.0541429
-0.0374564
-0.0205465
-0.00349019
0.0136467
0.030808
0.0479483
0.0650398
0.0820878
0.0991612
0.116452
0.134333
0.153353
0.1748
0.202332
-0.128226
-0.115534
-0.10143
-0.0863101
-0.0704714
-0.0541403
-0.0374609
-0.020538
-0.00345224
0.0137325
0.0309653
0.0482074
0.0654353
0.0826509
0.0998996
0.117305
0.135092
0.153564
0.173283
0.195403
-0.129849
-0.116797
-0.102414
-0.0870832
-0.0710757
-0.0545967
-0.0377874
-0.0207478