/*--------------------------------*- C++ -*----------------------------------*\
| =========                 |                                                 |
| \\      /  F ield         | OpenFOAM: The Open Source CFD Toolbox           |
|  \\    /   O peration     | Version:  2.4.0                                 |
|   \\  /    A nd           | Web:      www.OpenFOAM.org                      |
|    \\/     M anipulation  |                                                 |
\*---------------------------------------------------------------------------*/
FoamFile
{
    version     2.0;
    format      ascii;
    class       surfaceScalarField;
    location    "0.6";
    object      phi;
}
// * * * * * * * * * * * * * * * * * * * * * * * * * * * * * * * * * * * * * //

dimensions      [0 3 -1 0 0 0 0];

internalField   nonuniform List<scalar> 
12720
(
-1.32621e-08
1.32144e-08
4.29403e-11
-6.76444e-07
6.61712e-07
1.47055e-09
-1.92775e-06
1.24931e-06
1.99423e-09
-3.55682e-06
1.62655e-06
2.51646e-09
-5.39363e-06
1.83402e-06
2.79064e-09
-7.30919e-06
1.91268e-06
2.87856e-09
-9.19976e-06
1.88772e-06
2.85479e-09
-1.09737e-05
1.77126e-06
2.71469e-09
-1.25482e-05
1.57202e-06
2.43717e-09
1.30757e-06
2.00611e-09
-1.38578e-05
-6.78909e-07
6.93436e-07
-1.31174e-09
-2.7523e-06
2.73492e-06
1.82444e-10
-5.92135e-06
4.41973e-06
-1.38026e-09
-9.85583e-06
5.56298e-06
-1.93504e-09
-1.42459e-05
6.2262e-06
-2.16521e-09
-1.88205e-05
6.48965e-06
-2.31476e-09
-2.33392e-05
6.4087e-06
-2.29441e-09
-2.75809e-05
6.01507e-06
-2.12928e-09
-3.13474e-05
5.34039e-06
-1.87806e-09
4.44866e-06
-1.63487e-09
-3.44868e-05
-1.32237e-06
2.01777e-06
-1.95846e-09
-4.58233e-06
5.9932e-06
1.67709e-09
-9.25544e-06
9.09282e-06
2.99089e-11
-1.49044e-05
1.1212e-05
-9.54309e-11
-2.11423e-05
1.2464e-05
8.80946e-11
-2.76206e-05
1.29679e-05
9.7302e-11
-3.40129e-05
1.28008e-05
1.10161e-10
-4.00032e-05
1.20053e-05
1.46255e-10
-4.52977e-05
1.06347e-05
1.79557e-10
8.81562e-06
9.16872e-11
-4.96648e-05
-1.7751e-06
3.79551e-06
-2.64136e-09
-5.92844e-06
1.01443e-05
2.22067e-09
-1.17207e-05
1.48851e-05
1.82422e-11
-1.86197e-05
1.81112e-05
-1.2943e-10
-2.61882e-05
2.00323e-05
1.60524e-10
-3.4034e-05
2.08135e-05
2.10877e-10
-4.17733e-05
2.05398e-05
2.48683e-10
-4.90115e-05
1.92432e-05
3.1663e-10
-5.53558e-05
1.69786e-05
4.32626e-10
1.39336e-05
3.55778e-10
-6.04742e-05
-2.05087e-06
5.84942e-06
-3.03745e-09
-6.78304e-06
1.4874e-05
2.4791e-09
-1.33129e-05
2.14151e-05
-2.41064e-10
-2.10427e-05
2.58415e-05
-5.18567e-10
-2.95074e-05
2.84973e-05
-2.32017e-10
-3.82939e-05
2.96001e-05
-1.84703e-10
-4.69799e-05
2.9226e-05
-1.26331e-10
-5.50975e-05
2.73608e-05
7.86616e-12
-6.21345e-05
2.40153e-05
3.80324e-10
1.94048e-05
5.26412e-10
-6.76062e-05
-2.17073e-06
8.02333e-06
-3.18142e-09
-7.1736e-06
1.98742e-05
2.66118e-09
-1.40632e-05
2.8305e-05
-2.94702e-10
-2.22165e-05
3.39955e-05
-6.36687e-10
-3.1166e-05
3.74471e-05
-3.64906e-10
-4.04994e-05
3.89339e-05
-3.33721e-10
-4.97766e-05
3.85034e-05
-2.98588e-10
-5.84642e-05
3.60486e-05
-1.90125e-10
-6.59055e-05
3.1456e-05
5.67012e-10
2.48656e-05
1.26684e-09
-7.13676e-05
-2.14965e-06
1.01761e-05
-3.13609e-09
-7.12595e-06
2.48478e-05
2.66694e-09
-1.39967e-05
3.51761e-05
-3.09785e-10
-2.21524e-05
4.21518e-05
-6.92536e-10
-3.11461e-05
4.64413e-05
-4.7077e-10
-4.05897e-05
4.83779e-05
-4.76789e-10
-5.00533e-05
4.79675e-05
-5.22303e-10
-5.8966e-05
4.4962e-05
-6.50803e-10
-6.65203e-05
3.90095e-05
7.24891e-10
2.99397e-05
3.04439e-09
-7.15973e-05
-1.99854e-06
1.21776e-05
-2.89988e-09
-6.66412e-06
2.95109e-05
2.51751e-09
-1.31364e-05
4.16487e-05
-2.94069e-10
-2.08449e-05
4.9861e-05
-6.94182e-10
-2.93746e-05
5.49716e-05
-5.42456e-10
-3.8374e-05
5.73779e-05
-5.54395e-10
-4.74547e-05
5.70488e-05
-6.07268e-10
-5.60639e-05
5.35723e-05
-1.11139e-09
-6.33023e-05
4.6246e-05
1.94009e-09
3.41335e-05
1.08489e-08
-6.7507e-05
-1.73227e-06
1.39123e-05
-2.47212e-09
-5.83029e-06
3.36067e-05
2.26553e-09
-1.15423e-05
4.73609e-05
-2.2214e-10
-1.8341e-05
5.66604e-05
-6.2785e-10
-2.58271e-05
6.24582e-05
-6.19794e-10
-3.36643e-05
6.52159e-05
-7.72575e-10
-4.15026e-05
6.48883e-05
-1.13894e-09
-4.88552e-05
6.09285e-05
-3.59033e-09
-5.49054e-05
5.22969e-05
-7.56487e-10
3.66316e-05
2.42882e-08
-5.74278e-05
-1.38004e-06
-1.87589e-09
1.52942e-05
-4.71361e-06
1.98044e-09
3.69383e-05
-9.3712e-06
-4.04835e-11
5.20185e-05
-1.48504e-05
-3.79869e-10
6.214e-05
-2.07157e-05
-4.95899e-10
6.8324e-05
-2.65536e-05
-9.28776e-10
7.10547e-05
-3.19208e-05
-2.14999e-09
7.02576e-05
-3.62259e-05
-1.01085e-08
6.52437e-05
-3.85808e-05
-2.23417e-08
5.46741e-05
4.80273e-09
-3.77007e-05
3.57468e-05
-1.11655e-08
1.12079e-08
6.84271e-13
-6.7653e-07
6.66835e-07
8.30849e-13
-1.9282e-06
1.25366e-06
8.92032e-13
-3.55686e-06
1.63118e-06
7.12918e-13
-5.39349e-06
1.83942e-06
5.91068e-13
-7.30904e-06
1.91843e-06
5.02926e-13
-9.19967e-06
1.89348e-06
3.40455e-13
-1.09737e-05
1.77678e-06
4.23268e-13
-1.25483e-05
1.57703e-06
2.47592e-13
1.31171e-06
2.05645e-13
-1.3858e-05
-6.83749e-07
6.93644e-07
6.95279e-13
-2.75595e-06
2.73922e-06
8.68743e-13
-5.92443e-06
4.42076e-06
8.8287e-13
-9.85791e-06
5.56273e-06
7.75399e-13
-1.42467e-05
6.22604e-06
7.62178e-13
-1.88203e-05
6.48969e-06
6.46081e-13
-2.33381e-05
6.40901e-06
4.99918e-13
-2.75792e-05
6.01572e-06
4.21881e-13
-3.13454e-05
5.34139e-06
3.20765e-13
4.44951e-06
2.7272e-13
-3.44848e-05
-1.32676e-06
2.01844e-06
7.06615e-13
-4.58296e-06
5.99709e-06
1.01817e-12
-9.25593e-06
9.09377e-06
1.02594e-12
-1.4905e-05
1.12117e-05
9.20179e-13
-2.11425e-05
1.24636e-05
9.43416e-13
-2.76204e-05
1.29677e-05
6.92216e-13
-3.40123e-05
1.2801e-05
6.2324e-13
-4.00024e-05
1.2006e-05
3.57956e-13
-4.52971e-05
1.06363e-05
3.97317e-13
8.81691e-06
3.47071e-13
-4.96644e-05
-1.78e-06
3.7958e-06
9.51822e-13
-5.92779e-06
1.01471e-05
1.22317e-12
-1.17199e-05
1.48859e-05
1.27189e-12
-1.86196e-05
1.81112e-05
1.13833e-12
-2.6188e-05
2.00322e-05
1.05642e-12
-3.40337e-05
2.08136e-05
8.71433e-13
-4.17728e-05
2.05403e-05
7.52208e-13
-4.9011e-05
1.92445e-05
6.40699e-13
-5.53557e-05
1.69815e-05
5.07319e-13
1.39363e-05
4.68405e-13
-6.04748e-05
-2.05668e-06
5.84945e-06
1.20399e-12
-6.78236e-06
1.48752e-05
1.28908e-12
-1.3312e-05
2.14153e-05
1.27163e-12
-2.10425e-05
2.58411e-05
1.21663e-12
-2.95072e-05
2.84968e-05
1.14108e-12
-3.82936e-05
2.95997e-05
1.05029e-12
-4.69793e-05
2.92259e-05
8.02597e-13
-5.50966e-05
2.73618e-05
7.28254e-13
-6.21344e-05
2.40196e-05
5.61673e-13
1.94103e-05
6.0417e-13
-6.76077e-05
-2.17697e-06
8.02323e-06
1.39805e-12
-7.17302e-06
1.9874e-05
1.46971e-12
-1.40625e-05
2.83045e-05
1.53562e-12
-2.22166e-05
3.39946e-05
1.36995e-12
-3.11662e-05
3.7446e-05
1.13795e-12
-4.04996e-05
3.89327e-05
1.04965e-12
-4.97763e-05
3.85024e-05
9.35873e-13
-5.84632e-05
3.60485e-05
6.58086e-13
-6.59052e-05
3.14622e-05
6.2319e-13
2.4877e-05
5.90135e-13
-7.13707e-05
-2.15586e-06
1.0176e-05
1.62078e-12
-7.12553e-06
2.48463e-05
1.57073e-12
-1.39963e-05
3.5175e-05
1.44889e-12
-2.2153e-05
4.21506e-05
1.36409e-12
-3.11471e-05
4.64397e-05
1.24716e-12
-4.05908e-05
4.8376e-05
9.97516e-13
-5.0054e-05
4.7965e-05
9.07935e-13
-5.8965e-05
4.49589e-05
8.0194e-13
-6.6519e-05
3.90168e-05
7.61728e-13
2.99649e-05
3.69456e-13
-7.16038e-05
-2.00432e-06
1.21774e-05
1.31715e-12
-6.66387e-06
2.95084e-05
1.45094e-12
-1.31363e-05
4.16471e-05
1.5444e-12
-2.08461e-05
4.98596e-05
1.29348e-12
-2.93765e-05
5.49696e-05
1.15082e-12
-3.83764e-05
5.73753e-05
1.1422e-12
-4.74567e-05
5.70447e-05
9.47993e-13
-5.60621e-05
5.35632e-05
7.93857e-13
-6.3292e-05
4.62487e-05
6.57834e-13
3.41983e-05
4.57054e-13
-6.75146e-05
-1.73724e-06
1.39121e-05
1.40125e-12
-5.83016e-06
3.36035e-05
1.38043e-12
-1.15426e-05
4.73594e-05
1.35374e-12
-1.8343e-05
5.66594e-05
1.29527e-12
-2.58309e-05
6.24569e-05
1.2431e-12
-3.36707e-05
6.52143e-05
1.06543e-12
-4.15129e-05
6.48858e-05
8.75616e-13
-4.8868e-05
6.09146e-05
7.6437e-13
-5.48849e-05
5.22648e-05
6.27229e-13
3.67257e-05
5.30263e-13
-5.7388e-05
-1.38383e-06
1.16268e-12
1.52941e-05
-4.71321e-06
1.26965e-12
3.69349e-05
-9.37105e-06
1.31435e-12
5.20171e-05
-1.48518e-05
1.26215e-12
6.21397e-05
-2.072e-05
1.06973e-12
6.83246e-05
-2.65634e-05
9.01363e-13
7.10568e-05
-3.1944e-05
9.77244e-13
7.02642e-05
-3.62936e-05
7.73305e-13
6.52541e-05
-3.86862e-05
6.80541e-13
5.46351e-05
6.28162e-13
-3.75245e-05
3.55688e-05
-1.1165e-08
1.12085e-08
-4.27025e-11
-6.76529e-07
6.66836e-07
-1.47012e-09
-1.92819e-06
1.25366e-06
-1.99392e-09
-3.55686e-06
1.63118e-06
-2.51623e-09
-5.39348e-06
1.83942e-06
-2.79054e-09
-7.30903e-06
1.91843e-06
-2.87843e-09
-9.19966e-06
1.89348e-06
-2.85449e-09
-1.09737e-05
1.77678e-06
-2.71461e-09
-1.25483e-05
1.57703e-06
-2.43704e-09
1.31171e-06
-2.00608e-09
-1.3858e-05
-6.83748e-07
6.93645e-07
1.31315e-09
-2.75594e-06
2.73921e-06
-1.81299e-10
-5.92442e-06
4.42076e-06
1.38123e-09
-9.8579e-06
5.56272e-06
1.93588e-09
-1.42467e-05
6.22603e-06
2.16591e-09
-1.88202e-05
6.48969e-06
2.31544e-09
-2.33381e-05
6.40901e-06
2.29507e-09
-2.75791e-05
6.01572e-06
2.1298e-09
-3.13454e-05
5.34139e-06
1.87849e-09
4.44951e-06
1.63521e-09
-3.44848e-05
-1.32675e-06
2.01844e-06
1.96038e-09
-4.58295e-06
5.99709e-06
-1.67559e-09
-9.25592e-06
9.09376e-06
-2.86119e-11
-1.4905e-05
1.12117e-05
9.65736e-11
-2.11424e-05
1.24636e-05
-8.709e-11
-2.76204e-05
1.29677e-05
-9.62464e-11
-3.40122e-05
1.2801e-05
-1.0934e-10
-4.00024e-05
1.2006e-05
-1.4545e-10
-4.52971e-05
1.06363e-05
-1.78938e-10
8.8169e-06
-9.11205e-11
-4.96644e-05
-1.78e-06
3.7958e-06
2.64362e-09
-5.92778e-06
1.01471e-05
-2.21886e-09
-1.17199e-05
1.48859e-05
-1.66438e-11
-1.86196e-05
1.81112e-05
1.30885e-10
-2.6188e-05
2.00322e-05
-1.59103e-10
-3.40337e-05
2.08136e-05
-2.09604e-10
-4.17727e-05
2.05403e-05
-2.47636e-10
-4.90109e-05
1.92445e-05
-3.15732e-10
-5.53557e-05
1.69815e-05
-4.3182e-10
1.39363e-05
-3.5509e-10
-6.04748e-05
-2.05668e-06
5.84944e-06
3.04e-09
-6.78235e-06
1.48752e-05
-2.477e-09
-1.3312e-05
2.14153e-05
2.42958e-10
-2.10424e-05
2.58411e-05
5.20199e-10
-2.95072e-05
2.84968e-05
2.33547e-10
-3.82935e-05
2.95997e-05
1.8599e-10
-4.69793e-05
2.92259e-05
1.27544e-10
-5.50965e-05
2.73618e-05
-6.8629e-12
-6.21343e-05
2.40196e-05
-3.79385e-10
1.94102e-05
-5.2568e-10
-6.76077e-05
-2.17697e-06
8.02323e-06
3.18399e-09
-7.17301e-06
1.98739e-05
-2.65905e-09
-1.40625e-05
2.83045e-05
2.96538e-10
-2.22166e-05
3.39946e-05
6.38426e-10
-3.11662e-05
3.7446e-05
3.66628e-10
-4.04995e-05
3.89327e-05
3.35183e-10
-4.97763e-05
3.85024e-05
2.99806e-10
-5.84632e-05
3.60485e-05
1.91311e-10
-6.59051e-05
3.14621e-05
-5.66018e-10
2.4877e-05
-1.26607e-09
-7.13707e-05
-2.15586e-06
1.01759e-05
3.13845e-09
-7.12553e-06
2.48463e-05
-2.6648e-09
-1.39963e-05
3.5175e-05
3.11874e-10
-2.21529e-05
4.21505e-05
6.94413e-10
-3.11471e-05
4.64396e-05
4.72457e-10
-4.05908e-05
4.83759e-05
4.78359e-10
-5.0054e-05
4.7965e-05
5.23596e-10
-5.8965e-05
4.49589e-05
6.51882e-10
-6.6519e-05
3.90168e-05
-7.2397e-10
2.99649e-05
-3.0435e-09
-7.16038e-05
-2.00432e-06
1.21774e-05
2.90236e-09
-6.66387e-06
2.95083e-05
-2.51531e-09
-1.31363e-05
4.16471e-05
2.96011e-10
-2.08461e-05
4.98596e-05
6.96105e-10
-2.93765e-05
5.49696e-05
5.44244e-10
-3.83764e-05
5.73753e-05
5.55809e-10
-4.74567e-05
5.70447e-05
6.08511e-10
-5.60621e-05
5.35632e-05
1.11245e-09
-6.3292e-05
4.62487e-05
-1.9392e-09
3.41983e-05
-1.08482e-08
-6.75146e-05
-1.73724e-06
1.39121e-05
2.47432e-09
-5.83016e-06
3.36035e-05
-2.26343e-09
-1.15426e-05
4.73593e-05
2.24121e-10
-1.8343e-05
5.66593e-05
6.29685e-10
-2.58309e-05
6.24569e-05
6.21411e-10
-3.36707e-05
6.52143e-05
7.74005e-10
-4.15129e-05
6.48858e-05
1.14014e-09
-4.8868e-05
6.09146e-05
3.59131e-09
-5.48849e-05
5.22648e-05
7.57286e-10
3.67257e-05
-2.42877e-08
-5.7388e-05
-1.38382e-06
1.87796e-09
1.52941e-05
-4.71321e-06
-1.97852e-09
3.69349e-05
-9.37104e-06
4.22636e-11
5.20171e-05
-1.48518e-05
3.81523e-10
6.21397e-05
-2.072e-05
4.97486e-10
6.83246e-05
-2.65634e-05
9.30247e-10
7.10568e-05
-3.1944e-05
2.15109e-09
7.02642e-05
-3.62936e-05
1.01095e-08
6.52541e-05
-3.86862e-05
2.23426e-08
5.46351e-05
-4.80207e-09
-3.75245e-05
3.55688e-05
-1.32605e-08
1.32183e-08
-6.76442e-07
6.61714e-07
-1.92775e-06
1.24931e-06
-3.55681e-06
1.62655e-06
-5.39362e-06
1.83402e-06
-7.30917e-06
1.91268e-06
-9.19974e-06
1.88772e-06
-1.09737e-05
1.77126e-06
-1.25482e-05
1.57202e-06
1.30757e-06
-1.38577e-05
-6.78908e-07
6.93438e-07
-2.7523e-06
2.73492e-06
-5.92133e-06
4.41973e-06
-9.85581e-06
5.56297e-06
-1.42458e-05
6.22619e-06
-1.88205e-05
6.48964e-06
-2.33392e-05
6.40869e-06
-2.75808e-05
6.01507e-06
-3.13473e-05
5.34038e-06
4.44866e-06
-3.44868e-05
-1.32237e-06
2.01777e-06
-4.58231e-06
5.9932e-06
-9.25542e-06
9.09281e-06
-1.49044e-05
1.1212e-05
-2.11422e-05
1.2464e-05
-2.76206e-05
1.29679e-05
-3.40128e-05
1.28008e-05
-4.00031e-05
1.20053e-05
-4.52977e-05
1.06347e-05
8.81561e-06
-4.96647e-05
-1.7751e-06
3.79551e-06
-5.92842e-06
1.01443e-05
-1.17207e-05
1.4885e-05
-1.86197e-05
1.81112e-05
-2.61882e-05
2.00323e-05
-3.4034e-05
2.08135e-05
-4.17732e-05
2.05398e-05
-4.90115e-05
1.92432e-05
-5.53557e-05
1.69786e-05
1.39336e-05
-6.04741e-05
-2.05086e-06
5.84941e-06
-6.78303e-06
1.4874e-05
-1.33128e-05
2.14151e-05
-2.10426e-05
2.58415e-05
-2.95074e-05
2.84973e-05
-3.82938e-05
2.96001e-05
-4.69798e-05
2.92259e-05
-5.50974e-05
2.73608e-05
-6.21344e-05
2.40153e-05
1.94048e-05
-6.76061e-05
-2.17073e-06
8.02332e-06
-7.17358e-06
1.98742e-05
-1.40632e-05
2.8305e-05
-2.22165e-05
3.39954e-05
-3.11659e-05
3.74471e-05
-4.04994e-05
3.89338e-05
-4.97765e-05
3.85034e-05
-5.84642e-05
3.60486e-05
-6.59054e-05
3.14559e-05
2.48656e-05
-7.13675e-05
-2.14965e-06
1.01761e-05
-7.12594e-06
2.48478e-05
-1.39967e-05
3.51761e-05
-2.21524e-05
4.21518e-05
-3.11461e-05
4.64413e-05
-4.05897e-05
4.83779e-05
-5.00533e-05
4.79675e-05
-5.8966e-05
4.4962e-05
-6.65202e-05
3.90094e-05
2.99397e-05
-7.15973e-05
-1.99853e-06
1.21775e-05
-6.6641e-06
2.95109e-05
-1.31363e-05
4.16486e-05
-2.08449e-05
4.9861e-05
-2.93745e-05
5.49715e-05
-3.8374e-05
5.73779e-05
-4.74547e-05
5.70488e-05
-5.60639e-05
5.35723e-05
-6.33023e-05
4.6246e-05
3.41335e-05
-6.7507e-05
-1.73227e-06
1.39123e-05
-5.83028e-06
3.36066e-05
-1.15423e-05
4.73608e-05
-1.8341e-05
5.66603e-05
-2.5827e-05
6.24582e-05
-3.36643e-05
6.52159e-05
-4.15026e-05
6.48883e-05
-4.88552e-05
6.09284e-05
-5.49054e-05
5.22969e-05
3.66316e-05
-5.74278e-05
-1.38004e-06
1.52942e-05
-4.7136e-06
3.69382e-05
-9.37119e-06
5.20185e-05
-1.48504e-05
6.21399e-05
-2.07157e-05
6.8324e-05
-2.65536e-05
7.10547e-05
-3.19208e-05
7.02576e-05
-3.62259e-05
6.52437e-05
-3.85808e-05
5.46741e-05
-3.77007e-05
3.57468e-05
-1.48724e-05
1.01315e-06
1.47291e-09
-1.56081e-05
7.3467e-07
9.98256e-10
-1.61116e-05
5.0295e-07
6.35483e-10
-1.64404e-05
3.28359e-07
3.80541e-10
-1.66479e-05
2.07281e-07
2.16275e-10
-1.67776e-05
1.29577e-07
1.1907e-10
-1.68617e-05
8.40167e-08
6.73473e-11
-1.69228e-05
6.10738e-08
4.51988e-11
-1.69765e-05
5.36756e-08
4.20694e-11
-1.70333e-05
5.67937e-08
5.16587e-11
-1.70999e-05
6.6479e-08
6.99871e-11
-1.71786e-05
7.86456e-08
9.38324e-11
-1.72665e-05
8.77099e-08
1.18273e-10
-1.73518e-05
8.52134e-08
1.35234e-10
-1.74109e-05
5.8956e-08
1.35474e-10
-1.74014e-05
-9.61707e-09
9.99245e-11
-1.72647e-05
-1.36652e-07
-1.83016e-11
-1.69223e-05
-3.42107e-07
-2.5345e-10
-1.62896e-05
-6.32104e-07
-6.36461e-10
-9.92619e-07
-1.19719e-09
-1.52958e-05
-3.69323e-05
3.46004e-06
-1.45846e-09
-3.87231e-05
2.52675e-06
-1.21625e-09
-3.9968e-05
1.74873e-06
-9.49211e-10
-4.07976e-05
1.15876e-06
-7.06973e-10
-4.13346e-05
7.44727e-07
-5.06676e-10
-4.16785e-05
4.7382e-07
-3.55287e-10
-4.19038e-05
3.09627e-07
-2.50765e-10
-4.20634e-05
2.20814e-07
-1.85336e-10
-4.2193e-05
1.8345e-07
-1.49486e-10
-4.23159e-05
1.79772e-07
-1.333e-10
-4.24445e-05
1.95257e-07
-1.26771e-10
-4.25806e-05
2.14899e-07
-1.1843e-10
-4.2712e-05
2.1912e-07
-9.36041e-11
-4.28065e-05
1.79748e-07
-3.36173e-11
-4.28045e-05
5.69158e-08
8.00834e-11
-4.26129e-05
-2.0143e-07
2.67816e-10
-4.20971e-05
-6.53011e-07
5.47076e-10
-4.10918e-05
-1.34835e-06
9.1824e-10
-3.94209e-05
-2.30438e-06
1.3432e-09
-3.47281e-06
1.72254e-09
-3.69424e-05
-5.30057e-05
6.80116e-06
-2.13882e-10
-5.54021e-05
4.92345e-06
-3.34795e-10
-5.70358e-05
3.38284e-06
-3.44157e-10
-5.81076e-05
2.23081e-06
-3.12729e-10
-5.87929e-05
1.43035e-06
-2.57327e-10
-5.92278e-05
9.0888e-07
-1.97801e-10
-5.95096e-05
5.91552e-07
-1.46078e-10
-5.97049e-05
4.16204e-07
-1.05799e-10
-5.98576e-05
3.36215e-07
-7.64921e-11
-5.9995e-05
3.17229e-07
-5.5203e-11
-6.01309e-05
3.31243e-07
-3.81648e-11
-6.02656e-05
3.49596e-07
-2.09029e-11
-6.03819e-05
3.35416e-07
1.97686e-12
-6.04383e-05
2.36101e-07
3.61813e-11
-6.03587e-05
-2.27477e-08
8.51632e-11
-6.00216e-05
-5.38619e-07
1.49623e-10
-5.92514e-05
-1.4235e-06
2.33982e-10
-5.78223e-05
-2.77777e-06
3.26127e-10
-5.54843e-05
-4.64279e-06
4.03877e-10
-6.93374e-06
3.24105e-10
-5.20237e-05
-6.4226e-05
1.05533e-05
-2.7515e-10
-6.67783e-05
7.47618e-06
-4.34357e-10
-6.84264e-05
5.03128e-06
-4.08471e-10
-6.94535e-05
3.25826e-06
-3.52952e-10
-7.0081e-05
2.05812e-06
-2.74831e-10
-7.04637e-05
1.29185e-06
-1.99256e-10
-7.07034e-05
8.31407e-07
-1.39023e-10
-7.08646e-05
5.77424e-07
-9.45757e-11
-7.09871e-05
4.58838e-07
-6.33331e-11
-7.1095e-05
4.25123e-07
-4.16141e-11
-7.12e-05
4.3624e-07
-2.56884e-11
-7.13022e-05
4.51858e-07
-1.18822e-11
-7.13868e-05
4.20033e-07
3.65243e-12
-7.14162e-05
2.65491e-07
2.54931e-11
-7.1318e-05
-1.21061e-07
5.96101e-11
-7.09681e-05
-8.88671e-07
1.15833e-10
-7.0173e-05
-2.2188e-06
1.91021e-10
-6.86601e-05
-4.29092e-06
2.92707e-10
-6.60934e-05
-7.20997e-06
4.46081e-10
-1.08831e-05
3.67226e-10
-6.21444e-05
-7.12911e-05
1.42389e-05
-7.57251e-10
-7.35319e-05
9.71782e-06
-8.12824e-10
-7.481e-05
6.31002e-06
-6.14282e-10
-7.55098e-05
3.95853e-06
-4.6796e-10
-7.58853e-05
2.43395e-06
-3.22308e-10
-7.60876e-05
1.49434e-06
-2.0637e-10
-7.6201e-05
9.44865e-07
-1.28839e-10
-7.6271e-05
6.47575e-07
-7.96978e-11
-7.63226e-05
5.10489e-07
-4.99136e-11
-7.63694e-05
4.71957e-07
-3.26038e-11
-7.64186e-05
4.85461e-07
-2.29535e-11
-7.6472e-05
5.05258e-07
-1.73805e-11
-7.65237e-05
4.71729e-07
-1.21619e-11
-7.65535e-05
2.9531e-07
-1.43331e-12
-7.65139e-05
-1.60727e-07
2.65011e-11
-7.63072e-05
-1.09545e-06
8.80268e-11
-7.57522e-05
-2.774e-06
1.83693e-10
-7.45465e-05
-5.49687e-06
3.4531e-10
-7.2247e-05
-9.51028e-06
7.59848e-10
-1.48047e-05
9.35936e-10
-6.83263e-05
-7.44411e-05
1.73142e-05
-1.73883e-09
-7.58474e-05
1.11255e-05
-1.36606e-09
-7.63682e-05
6.83159e-06
-7.75679e-10
-7.64913e-05
4.08207e-06
-5.10257e-10
-7.64665e-05
2.40952e-06
-2.96128e-10
-7.64037e-05
1.43168e-06
-1.52235e-10
-7.63425e-05
8.83684e-07
-7.43837e-11
-7.62926e-05
5.97777e-07
-3.41811e-11
-7.62539e-05
4.71767e-07
-1.45441e-11
-7.62243e-05
4.42416e-07
-6.37046e-12
-7.62042e-05
4.65284e-07
-4.88182e-12
-7.61971e-05
4.98191e-07
-7.9749e-12
-7.62103e-05
4.84978e-07
-1.40826e-11
-7.62514e-05
3.36429e-07
-1.79729e-11
-7.6318e-05
-9.41649e-08
-4.8332e-12
-7.63737e-05
-1.03979e-06
4.13472e-11
-7.62975e-05
-2.85029e-06
1.18889e-10
-7.5804e-05
-5.99064e-06
2.94186e-10
-7.43416e-05
-1.09739e-05
1.24092e-09
-1.80943e-05
2.25108e-09
-7.10542e-05
-7.33362e-05
1.90578e-05
-4.75136e-09
-7.3303e-05
1.10952e-05
-2.88773e-09
-7.27183e-05
6.24807e-06
-1.2122e-09
-7.21071e-05
3.47154e-06
-6.33013e-10
-7.16284e-05
1.9311e-06
-2.70385e-10
-7.12927e-05
1.09609e-06
-8.23435e-11
-7.10652e-05
6.56156e-07
-1.10211e-11
-7.09067e-05
4.39285e-07
1.25647e-11
-7.07868e-05
3.51805e-07
1.71699e-11
-7.06858e-05
3.41413e-07
1.36682e-11
-7.05953e-05
3.74789e-07
5.74703e-12
-7.05191e-05
4.21981e-07
-6.28534e-12
-7.04759e-05
4.41836e-07
-2.26966e-11
-7.05031e-05
3.63643e-07
-4.00827e-11
-7.06552e-05
5.8008e-08
-3.52597e-11
-7.09922e-05
-7.02848e-07
4.27621e-11
-7.15236e-05
-2.31915e-06
1.99592e-10
-7.20882e-05
-5.42648e-06
5.24283e-10
-7.21102e-05
-1.09548e-05
2.77696e-09
-1.9956e-05
6.10341e-09
-7.02546e-05
-6.68038e-05
1.83628e-05
-8.222e-09
-6.47053e-05
8.99971e-06
-3.02843e-09
-6.28583e-05
4.40161e-06
-5.01177e-10
-6.15696e-05
2.183e-06
-2.33599e-10
-6.07483e-05
1.10981e-06
3.77944e-12
-6.02424e-05
5.90057e-07
9.61686e-11
-5.99268e-05
3.40504e-07
8.89771e-11
-5.97158e-05
2.28222e-07
6.99089e-11
-5.95547e-05
1.90678e-07
5.58089e-11
-5.94108e-05
1.97463e-07
4.60201e-11
-5.92679e-05
2.31858e-07
3.80975e-11
-5.91262e-05
2.80226e-07
2.81861e-11
-5.90073e-05
3.2288e-07
8.56878e-12
-5.8965e-05
3.21468e-07
-3.85043e-11
-5.91027e-05
1.95766e-07
-9.41616e-11
-5.95819e-05
-2.2361e-07
-1.51445e-11
-6.06124e-05
-1.28879e-06
7.46877e-11
-6.23425e-05
-3.69611e-06
-2.24468e-10
-6.44768e-05
-8.82314e-06
2.59915e-09
-1.92039e-05
1.00233e-08
-6.52389e-05
-5.22406e-05
1.31862e-05
-1.05978e-08
-4.78513e-05
4.60605e-06
4.32308e-09
-4.51916e-05
1.73728e-06
4.64045e-09
-4.37064e-05
6.95989e-07
1.80843e-09
-4.2894e-05
2.9654e-07
8.81328e-10
-4.24437e-05
1.39309e-07
5.05795e-10
-4.21804e-05
7.69139e-08
2.78187e-10
-4.2007e-05
5.46431e-08
1.74898e-10
-4.18687e-05
5.22415e-08
1.43527e-10
-4.17336e-05
6.21468e-08
1.47804e-10
-4.15834e-05
8.15067e-08
1.70864e-10
-4.14122e-05
1.08798e-07
2.00057e-10
-4.12308e-05
1.41334e-07
2.11692e-10
-4.10808e-05
1.71343e-07
1.44019e-10
-4.10632e-05
1.7817e-07
-6.40668e-11
-4.13796e-05
9.31393e-08
-3.44064e-10
-4.24064e-05
-2.60634e-07
-1.35714e-09
-4.4766e-05
-1.33108e-06
-5.41964e-09
-4.91438e-05
-4.43888e-06
-6.50636e-09
-1.36908e-05
1.20199e-08
-5.46689e-05
-2.44602e-05
-5.4288e-08
-1.98465e-05
-7.64988e-09
-1.81091e-05
-1.68387e-10
-1.74118e-05
-1.29844e-09
-1.71144e-05
-8.13079e-10
-1.69748e-05
-3.39113e-10
-1.68977e-05
-1.69513e-10
-1.68429e-05
-1.02245e-10
-1.67906e-05
-7.29072e-11
-1.67284e-05
-6.6498e-11
-1.66468e-05
-7.35485e-11
-1.6538e-05
-8.50715e-11
-1.63965e-05
-8.75729e-11
-1.62251e-05
-5.96335e-11
-1.6047e-05
6.20237e-11
-1.59543e-05
4.6643e-10
-1.62158e-05
8.52496e-10
-1.75455e-05
-1.39903e-09
-2.1989e-05
4.59926e-09
6.30562e-08
-3.57428e-05
-1.48726e-05
1.01606e-06
1.45307e-13
-1.56082e-05
7.36591e-07
1.71776e-13
-1.61117e-05
5.04165e-07
2.551e-13
-1.64404e-05
3.2908e-07
2.75885e-13
-1.66479e-05
2.07688e-07
1.87361e-13
-1.67776e-05
1.29802e-07
6.72859e-14
-1.68617e-05
8.41494e-08
-2.7382e-14
-1.69228e-05
6.11719e-08
-8.60209e-14
-1.69765e-05
5.37756e-08
-5.10362e-15
-1.70334e-05
5.69177e-08
3.5148e-14
-1.71e-05
6.66403e-08
4.04336e-14
-1.71787e-05
7.88491e-08
2.43681e-14
-1.72666e-05
8.79501e-08
5.91245e-14
-1.73519e-05
8.54637e-08
1.70457e-13
-1.74108e-05
5.91003e-08
2.03281e-13
-1.74013e-05
-9.42706e-09
2.12792e-13
-1.72645e-05
-1.36809e-07
2.79688e-13
-1.69221e-05
-3.42688e-07
4.19914e-13
-1.62894e-05
-6.33344e-07
5.93256e-13
-9.94928e-07
7.50287e-13
-1.52957e-05
-3.69301e-05
3.45989e-06
2.66554e-13
-3.8721e-05
2.52624e-06
2.94775e-13
-3.9966e-05
1.74827e-06
3.3662e-13
-4.07961e-05
1.15842e-06
2.71334e-13
-4.13334e-05
7.44506e-07
1.19828e-13
-4.16777e-05
4.73692e-07
2.36367e-14
-4.19033e-05
3.09558e-07
1.73308e-14
-4.20631e-05
2.20774e-07
-9.48828e-15
-4.21929e-05
1.83415e-07
3.28662e-14
-4.23158e-05
1.79726e-07
2.18286e-14
-4.24445e-05
1.95183e-07
-2.2964e-14
-4.25806e-05
2.14785e-07
3.23441e-14
-4.27117e-05
2.1896e-07
2.10269e-13
-4.28058e-05
1.79549e-07
2.95213e-13
-4.28033e-05
5.67243e-08
2.95269e-13
-4.2611e-05
-2.01477e-07
3.43822e-13
-4.20944e-05
-6.52819e-07
4.25256e-13
-4.10885e-05
-1.34771e-06
4.84809e-13
-3.94174e-05
-2.30315e-06
5.39086e-13
-3.47151e-06
6.76115e-13
-3.69391e-05
-5.30048e-05
6.80009e-06
3.19414e-13
-5.54008e-05
4.92184e-06
2.84761e-13
-5.70344e-05
3.38159e-06
2.72542e-13
-5.81063e-05
2.22996e-06
1.52662e-13
-5.87919e-05
1.42984e-06
5.75736e-14
-5.9227e-05
9.08617e-07
9.722e-14
-5.9509e-05
5.9143e-07
1.09853e-13
-5.97045e-05
4.16146e-07
9.61977e-14
-5.98573e-05
3.3617e-07
1.07994e-13
-5.99948e-05
3.1716e-07
1.1857e-14
-6.01308e-05
3.3112e-07
-4.19708e-14
-6.02654e-05
3.49396e-07
3.74883e-14
-6.03816e-05
3.35126e-07
1.72611e-13
-6.04377e-05
2.35735e-07
1.85788e-13
-6.03578e-05
-2.31107e-08
2.16998e-13
-6.00203e-05
-5.38844e-07
2.82729e-13
-5.92496e-05
-1.42331e-06
2.75041e-13
-5.78202e-05
-2.77675e-06
2.09576e-13
-5.54824e-05
-4.64054e-06
2.46538e-13
-6.93129e-06
4.62408e-13
-5.20223e-05
-6.42256e-05
1.05506e-05
3.34315e-13
-6.6777e-05
7.47283e-06
2.48375e-13
-6.84248e-05
5.029e-06
1.39482e-13
-6.94521e-05
3.25684e-06
1.91697e-13
-7.00798e-05
2.05733e-06
1.38281e-13
-7.04629e-05
1.29147e-06
1.75558e-13
-7.07029e-05
8.31252e-07
1.38921e-13
-7.08642e-05
5.77367e-07
5.58303e-14
-7.09869e-05
4.58802e-07
4.73212e-14
-7.10948e-05
4.25059e-07
-1.08105e-14
-7.11998e-05
4.36109e-07
2.96266e-15
-7.13021e-05
4.51627e-07
7.33759e-14
-7.13866e-05
4.19678e-07
7.4135e-14
-7.14159e-05
2.65022e-07
6.31004e-14
-7.13174e-05
-1.21574e-07
1.23041e-13
-7.0967e-05
-8.89053e-07
1.75699e-13
-7.01715e-05
-2.21868e-06
1.63761e-13
-6.86583e-05
-4.28959e-06
1.49792e-13
-6.60921e-05
-7.20635e-06
1.6074e-13
-1.08789e-05
2.48593e-13
-6.21441e-05
-7.12902e-05
1.42323e-05
4.29592e-13
-7.35297e-05
9.71151e-06
2.70832e-13
-7.48078e-05
6.3065e-06
8.22401e-14
-7.55081e-05
3.9566e-06
1.85356e-13
-7.58841e-05
2.43301e-06
1.39641e-13
-7.60868e-05
1.49396e-06
1.69995e-13
-7.62004e-05
9.4475e-07
1.37423e-13
-7.62707e-05
6.47557e-07
4.43428e-14
-7.63224e-05
5.10482e-07
1.00627e-14
-7.63693e-05
4.71909e-07
-6.31004e-14
-7.64185e-05
4.85333e-07
-1.08993e-13
-7.64719e-05
5.05009e-07
-1.17377e-13
-7.65236e-05
4.71321e-07
-9.80552e-14
-7.65533e-05
2.94736e-07
-1.85109e-14
-7.65134e-05
-1.61414e-07
9.4948e-14
-7.63063e-05
-1.09609e-06
1.87188e-13
-7.57506e-05
-2.77416e-06
2.40703e-13
-7.45444e-05
-5.49544e-06
2.21328e-13
-7.22455e-05
-9.50449e-06
1.18417e-13
-1.47966e-05
9.59465e-14
-6.83269e-05
-7.4439e-05
1.72989e-05
5.26256e-13
-7.58435e-05
1.11146e-05
3.68475e-13
-7.6365e-05
6.82726e-06
1.06369e-13
-7.64891e-05
4.0802e-06
1.01139e-13
-7.64652e-05
2.40882e-06
7.14335e-14
-7.6403e-05
1.43154e-06
8.38465e-14
-7.6342e-05
8.83732e-07
5.91159e-14
-7.62924e-05
5.97857e-07
3.20789e-14
-7.62537e-05
4.71818e-07
4.71649e-15
-7.62242e-05
4.42408e-07
-3.63601e-14
-7.62041e-05
4.65186e-07
-6.09029e-14
-7.6197e-05
4.97962e-07
-6.39599e-14
-7.62103e-05
4.84559e-07
-4.53779e-14
-7.62513e-05
3.35772e-07
-1.98324e-14
-7.63178e-05
-9.49861e-08
2.17858e-14
-7.6373e-05
-1.04085e-06
2.69281e-14
-7.62958e-05
-2.85119e-06
-3.11027e-14
-7.58011e-05
-5.98989e-06
-1.30457e-13
-7.43393e-05
-1.0965e-05
-2.73108e-13
-1.80773e-05
-3.41388e-13
-7.10564e-05
-7.3331e-05
1.90213e-05
3.86357e-13
-7.3296e-05
1.10768e-05
1.33153e-13
-7.27139e-05
6.2439e-06
8.98309e-14
-7.21049e-05
3.47058e-06
1.36758e-13
-7.16274e-05
1.93109e-06
2.27999e-13
-7.12924e-05
1.09637e-06
1.96769e-13
-7.1065e-05
6.56415e-07
5.1557e-14
-7.09066e-05
4.39455e-07
2.00389e-14
-7.07867e-05
3.51896e-07
1.26923e-14
-7.06857e-05
3.41429e-07
1.13542e-14
-7.05952e-05
3.74718e-07
2.01348e-14
-7.05191e-05
4.21785e-07
-1.78382e-14
-7.0476e-05
4.41436e-07
-1.42115e-13
-7.05031e-05
3.62886e-07
-2.4464e-13
-7.06553e-05
5.71416e-08
-2.88826e-13
-7.09916e-05
-7.0444e-07
-3.24324e-13
-7.15216e-05
-2.321e-06
-4.48221e-13
-7.2084e-05
-5.42701e-06
-5.68962e-13
-7.21061e-05
-1.09401e-05
-5.87627e-13
-1.99162e-05
-5.72547e-13
-7.02611e-05
-6.6794e-05
1.82925e-05
4.23561e-13
-6.46987e-05
8.97849e-06
7.69849e-14
-6.28564e-05
4.40108e-06
5.78332e-14
-6.15697e-05
2.18361e-06
4.70615e-14
-6.07488e-05
1.11027e-06
5.46498e-14
-6.02428e-05
5.90452e-07
1.06918e-13
-5.99271e-05
3.40746e-07
1.72376e-13
-5.97159e-05
2.2835e-07
1.49249e-13
-5.95547e-05
1.9074e-07
9.54607e-14
-5.94107e-05
1.97485e-07
9.68099e-14
-5.92678e-05
2.31842e-07
7.41766e-14
-5.91261e-05
2.80155e-07
-4.47787e-14
-5.90074e-05
3.22698e-07
-1.7698e-13
-5.89656e-05
3.2105e-07
-2.25279e-13
-5.91035e-05
1.95e-07
-2.70634e-13
-5.95832e-05
-2.24779e-07
-4.09175e-13
-6.06138e-05
-1.29038e-06
-6.7162e-13
-6.23421e-05
-3.69889e-06
-8.13583e-13
-6.44726e-05
-8.80701e-06
-7.44996e-13
-1.91295e-05
-7.68725e-13
-6.52493e-05
-5.22295e-05
1.31235e-05
2.2946e-13
-4.78582e-05
4.61152e-06
2.2399e-14
-4.51983e-05
1.74576e-06
1.04761e-14
-4.37111e-05
6.98238e-07
2.47412e-14
-4.28967e-05
2.96798e-07
5.06634e-14
-4.24451e-05
1.39306e-07
1.24754e-13
-4.2181e-05
7.69101e-08
1.44434e-13
-4.20071e-05
5.46759e-08
1.12558e-13
-4.18686e-05
5.23268e-08
9.50506e-14
-4.17332e-05
6.22978e-08
6.98218e-14
-4.1583e-05
8.17469e-08
-1.99341e-14
-4.14118e-05
1.09164e-07
-1.18784e-13
-4.12308e-05
1.41882e-07
-1.57997e-13
-4.10817e-05
1.72121e-07
-2.53434e-13
-4.10654e-05
1.78677e-07
-4.09295e-13
-4.13844e-05
9.38472e-08
-5.89722e-13
-4.24157e-05
-2.60433e-07
-8.00182e-13
-4.47817e-05
-1.33828e-06
-8.09198e-13
-4.91485e-05
-4.4467e-06
-7.93742e-13
-1.36361e-05
-9.17162e-13
-5.46298e-05
-2.44553e-05
9.42558e-14
-1.98514e-05
3.54288e-14
-1.81058e-05
1.63513e-13
-1.74089e-05
7.17441e-14
-1.71129e-05
5.88909e-15
-1.69739e-05
2.34068e-14
-1.68972e-05
3.29777e-14
-1.68426e-05
3.31073e-14
-1.67904e-05
3.49047e-14
-1.67281e-05
2.42928e-14
-1.66465e-05
1.33072e-15
-1.65374e-05
-2.62079e-15
-1.63956e-05
-6.35948e-14
-1.62235e-05
-2.39714e-13
-1.60448e-05
-4.31982e-13
-1.59505e-05
-5.88042e-13
-1.62101e-05
-5.73413e-13
-1.75497e-05
-5.14668e-13
-2.19918e-05
-1.02625e-12
-1.60728e-12
-3.55649e-05
-1.48726e-05
1.01606e-06
-1.47282e-09
-1.56082e-05
7.36591e-07
-9.98139e-10
-1.61117e-05
5.04165e-07
-6.35303e-10
-1.64404e-05
3.2908e-07
-3.80333e-10
-1.66479e-05
2.07688e-07
-2.16142e-10
-1.67776e-05
1.29802e-07
-1.19063e-10
-1.68617e-05
8.41494e-08
-6.74431e-11
-1.69228e-05
6.11719e-08
-4.536e-11
-1.69765e-05
5.37754e-08
-4.23279e-11
-1.70334e-05
5.69175e-08
-5.18594e-11
-1.71e-05
6.66399e-08
-7.01187e-11
-1.71787e-05
7.88488e-08
-9.37935e-11
-1.72665e-05
8.79499e-08
-1.18129e-10
-1.73519e-05
8.54634e-08
-1.3509e-10
-1.74108e-05
5.91001e-08
-1.35268e-10
-1.74013e-05
-9.42706e-09
-9.9608e-11
-1.72645e-05
-1.36809e-07
1.87637e-11
-1.69221e-05
-3.42687e-07
2.541e-10
-1.62894e-05
-6.33343e-07
6.37391e-10
-9.94926e-07
1.19853e-09
-1.52956e-05
-3.69301e-05
3.45989e-06
1.45877e-09
-3.8721e-05
2.52624e-06
1.21659e-09
-3.9966e-05
1.74827e-06
9.49529e-10
-4.07961e-05
1.15842e-06
7.07253e-10
-4.13334e-05
7.44506e-07
5.06844e-10
-4.16776e-05
4.73692e-07
3.55295e-10
-4.19033e-05
3.09558e-07
2.50648e-10
-4.20631e-05
2.20774e-07
1.85262e-10
-4.21929e-05
1.83415e-07
1.49403e-10
-4.23158e-05
1.79725e-07
1.33343e-10