/*--------------------------------*- C++ -*----------------------------------*\
| =========                 |                                                 |
| \\      /  F ield         | OpenFOAM: The Open Source CFD Toolbox           |
|  \\    /   O peration     | Version:  2.4.0                                 |
|   \\  /    A nd           | Web:      www.OpenFOAM.org                      |
|    \\/     M anipulation  |                                                 |
\*---------------------------------------------------------------------------*/
FoamFile
{
    version     2.0;
    format      ascii;
    class       volVectorField;
    location    "0.6";
    object      U;
}
// * * * * * * * * * * * * * * * * * * * * * * * * * * * * * * * * * * * * * //

dimensions      [0 1 -1 0 0 0 0];

internalField   nonuniform List<vector> 
4800
(
(0.000152536 -0.00015516 2.74331e-08)
(-0.000289966 0.000235568 0.000159919)
(-0.00192332 0.000605392 0.000279657)
(-0.00429045 0.000831045 0.000326573)
(-0.00711044 0.000947178 0.000270548)
(-0.0101526 0.0009885 9.90586e-05)
(-0.0132325 0.000974864 -0.000190146)
(-0.0161955 0.000914319 -0.000594345)
(-0.0189007 0.000810415 -0.00110631)
(-0.0212246 0.000670921 -0.00171323)
(-0.000250974 0.000292547 -0.000160143)
(-0.0022275 0.00218408 1.37336e-06)
(-0.0065716 0.00382383 8.26846e-05)
(-0.0123951 0.00491438 8.26437e-05)
(-0.0191622 0.00553124 -9.99157e-06)
(-0.0264302 0.00577187 -0.000206178)
(-0.0337936 0.00570124 -0.000509162)
(-0.0408834 0.00535377 -0.000917979)
(-0.047359 0.00475773 -0.00142792)
(-0.0529267 0.00396783 -0.00202969)
(-0.00065846 0.00198922 -0.000280443)
(-0.0040195 0.00657923 -7.68421e-05)
(-0.0105785 0.0102812 4.06809e-06)
(-0.0190282 0.0128153 -9.97024e-06)
(-0.028678 0.0143026 -0.000113781)
(-0.0389814 0.0148992 -0.000314743)
(-0.0494045 0.0147139 -0.000615123)
(-0.0594324 0.0138111 -0.00101488)
(-0.0685672 0.0122614 -0.00151172)
(-0.0763634 0.0102117 -0.00209974)
(-0.000933815 0.00453153 -0.000317867)
(-0.00531646 0.0126395 -6.17512e-05)
(-0.0135452 0.018831 3.26957e-05)
(-0.0239285 0.0230621 1.89244e-05)
(-0.0356614 0.0255729 -8.55021e-05)
(-0.048144 0.0265875 -0.00028496)
(-0.0607673 0.0262408 -0.00058103)
(-0.0729089 0.0246031 -0.000975168)
(-0.0839252 0.0217722 -0.00146843)
(-0.0931928 0.0180008 -0.00205955)
(-0.00109305 0.00764872 -0.00022932)
(-0.0061217 0.0198574 7.08895e-05)
(-0.0154464 0.0288309 0.000178484)
(-0.0271085 0.0349201 0.000170111)
(-0.0402322 0.0385564 7.11417e-05)
(-0.0541962 0.0400441 -0.000121379)
(-0.0683523 0.0395194 -0.000409854)
(-0.0819949 0.0370132 -0.000798937)
(-0.0943291 0.0326007 -0.00129527)
(-0.104484 0.0266196 -0.00190639)
(-0.00115741 0.0110804 8.15204e-06)
(-0.00647788 0.0277523 0.000341707)
(-0.0163261 0.0397087 0.000459096)
(-0.0286235 0.0477831 0.000459452)
(-0.0424739 0.0526469 0.000371827)
(-0.0572667 0.0546933 0.000193071)
(-0.0723494 0.0540291 -8.19842e-05)
(-0.0869637 0.0505786 -0.000463664)
(-0.100166 0.0442989 -0.00096781)
(-0.110729 0.0355204 -0.00162073)
(-0.0011404 0.0145878 0.000401822)
(-0.00642091 0.0358395 0.000758165)
(-0.016229 0.050862 0.000880942)
(-0.0285072 0.0609977 0.000892817)
(-0.0423872 0.0671819 0.000823297)
(-0.0572977 0.0699002 0.000667949)
(-0.0726216 0.0691995 0.000417026)
(-0.0876018 0.0648148 5.17962e-05)
(-0.101204 0.0564288 -0.000457132)
(-0.111723 0.0441219 -0.00117654)
(-0.00105025 0.0179532 0.000947484)
(-0.00598056 0.043651 0.00131707)
(-0.0151998 0.0616803 0.00144093)
(-0.0267863 0.0738672 0.00146742)
(-0.0399265 0.081411 0.00142437)
(-0.0540986 0.0848953 0.00130606)
(-0.0687477 0.0842946 0.00109733)
(-0.0831903 0.0790823 0.000769209)
(-0.0964742 0.0684611 0.000276936)
(-0.106377 0.0517377 -0.000528269)
(-0.000896055 0.0209771 0.00163033)
(-0.0052009 0.0507458 0.0020054)
(-0.0133274 0.0715588 0.00212674)
(-0.0235625 0.0856501 0.00217112)
(-0.0351379 0.0944591 0.00216373)
(-0.0475431 0.0986805 0.00209895)
(-0.06025 0.0982531 0.00195691)
(-0.0726651 0.0924075 0.00169717)
(-0.0842187 0.0797751 0.00126408)
(-0.0924856 0.05814 0.000353593)
(-0.00069489 0.0234921 0.00242545)
(-0.00416794 0.0567451 0.00280113)
(-0.0108078 0.0799456 0.00291713)
(-0.0191381 0.0956059 0.00298193)
(-0.0283842 0.105339 0.00301886)
(-0.0379339 0.109933 0.00302709)
(-0.047101 0.109335 0.00299022)
(-0.0550874 0.102638 0.0028667)
(-0.0617127 0.0881213 0.00263448)
(-0.0658821 0.0624055 0.00181566)
(0.000156659 -0.000159079 2.89394e-08)
(-0.000284465 0.000230286 1.14604e-06)
(-0.00192083 0.000594122 1.554e-06)
(-0.00428867 0.000815924 1.96067e-06)
(-0.00710955 0.000930214 2.17416e-06)
(-0.0101524 0.000970771 2.24259e-06)
(-0.0132329 0.000957317 2.22397e-06)
(-0.0161965 0.000897829 2.11489e-06)
(-0.0189025 0.000795717 1.8986e-06)
(-0.0212272 0.000658444 1.56279e-06)
(-0.000245149 0.000286905 -1.02122e-06)
(-0.00222515 0.00218194 1.42511e-07)
(-0.00657717 0.00381518 -1.07293e-06)
(-0.012398 0.00490229 -1.5045e-06)
(-0.0191634 0.00551819 -1.68354e-06)
(-0.0264305 0.00575851 -1.79993e-06)
(-0.0337929 0.00568816 -1.78419e-06)
(-0.0408821 0.00534161 -1.65581e-06)
(-0.0473577 0.00474706 -1.46049e-06)
(-0.0529261 0.00395864 -1.27137e-06)
(-0.000646483 0.00198591 -1.5249e-06)
(-0.00401103 0.00658416 1.30514e-06)
(-0.0105834 0.0102845 2.39777e-08)
(-0.0190295 0.0128188 -7.35831e-08)
(-0.0286778 0.0143075 6.91637e-08)
(-0.0389811 0.0149048 7.6183e-08)
(-0.049404 0.0147197 8.61195e-08)
(-0.0594318 0.013817 1.14058e-07)
(-0.0685674 0.0122673 1.39946e-07)
(-0.0763652 0.0102165 7.15703e-08)
(-0.000917604 0.00452893 -2.05667e-06)
(-0.0053046 0.012642 1.72806e-06)
(-0.0135511 0.0188311 1.50728e-08)
(-0.0239294 0.0230613 -9.98728e-08)
(-0.0356605 0.0255725 1.25597e-07)
(-0.0481433 0.0265874 1.64639e-07)
(-0.0607664 0.026241 1.93953e-07)
(-0.0729078 0.024604 2.46723e-07)
(-0.0839255 0.0217744 3.36858e-07)
(-0.0931966 0.018003 2.77053e-07)
(-0.00107459 0.00764736 -2.36503e-06)
(-0.0061088 0.0198585 1.92913e-06)
(-0.0154541 0.0288299 -1.86583e-07)
(-0.0271101 0.034918 -4.02475e-07)
(-0.0402312 0.038554 -1.79656e-07)
(-0.0541952 0.0400416 -1.42931e-07)
(-0.0683507 0.0395171 -9.7679e-08)
(-0.0819923 0.0370117 6.63196e-09)
(-0.094328 0.0326022 2.96224e-07)
(-0.10449 0.0266223 4.09851e-07)
(-0.00113795 0.0110802 -2.47709e-06)
(-0.00646468 0.0277528 2.07085e-06)
(-0.0163349 0.0397082 -2.28154e-07)
(-0.0286257 0.0477818 -4.94248e-07)
(-0.0424732 0.0526451 -2.82996e-07)
(-0.0572659 0.054691 -2.58819e-07)
(-0.0723475 0.0540265 -2.31581e-07)
(-0.0869588 0.0505764 -1.47375e-07)
(-0.100162 0.0443024 4.41466e-07)
(-0.110741 0.0355289 9.85732e-07)
(-0.00112112 0.0145886 -2.44169e-06)
(-0.00640809 0.0358392 2.07539e-06)
(-0.0162383 0.0508617 -2.39915e-07)
(-0.02851 0.060997 -5.37678e-07)
(-0.0423871 0.0671805 -3.65279e-07)
(-0.0572976 0.069898 -3.70111e-07)
(-0.0726201 0.0691963 -4.05591e-07)
(-0.0875931 0.064811 -5.05615e-07)
(-0.101192 0.0564364 5.64331e-07)
(-0.111747 0.0441499 2.36818e-06)
(-0.00103226 0.0179551 -2.25784e-06)
(-0.00596879 0.0436502 1.95911e-06)
(-0.015209 0.0616804 -2.2765e-07)
(-0.0267896 0.0738673 -5.38994e-07)
(-0.0399272 0.0814101 -4.21077e-07)
(-0.0540995 0.0848929 -4.30405e-07)
(-0.0687473 0.0842887 -4.71658e-07)
(-0.083174 0.0790681 -8.63858e-07)
(-0.0964367 0.0684553 1.50942e-06)
(-0.106415 0.0517806 8.43838e-06)
(-0.000880293 0.02098 -1.92463e-06)
(-0.00519072 0.0507449 1.76307e-06)
(-0.0133359 0.0715599 -1.71811e-07)
(-0.0235663 0.0856519 -4.8741e-07)
(-0.0351402 0.0944604 -4.81195e-07)
(-0.0475477 0.0986805 -6.00146e-07)
(-0.0602594 0.0982472 -8.85227e-07)
(-0.0726536 0.0923778 -2.79195e-06)
(-0.0841419 0.0797127 -5.87941e-07)
(-0.0925253 0.0581083 1.88912e-05)
(-0.000681955 0.0234957 -1.46034e-06)
(-0.00415945 0.0567444 1.54125e-06)
(-0.0108145 0.079948 -3.05651e-08)
(-0.0191411 0.095611 -2.94573e-07)
(-0.0283866 0.105347 -3.84934e-07)
(-0.0379415 0.109948 -7.21719e-07)
(-0.0471285 0.109365 -1.67155e-06)
(-0.0551213 0.102684 -7.86161e-06)
(-0.0616524 0.0881674 -1.73764e-05)
(-0.0659459 0.0624877 3.73589e-06)
(0.000156659 -0.000159078 -2.78391e-08)
(-0.000284464 0.000230286 -1.14458e-06)
(-0.00192083 0.000594122 -1.55256e-06)
(-0.00428866 0.000815923 -1.95953e-06)
(-0.00710954 0.000930214 -2.17328e-06)
(-0.0101524 0.000970771 -2.24181e-06)
(-0.0132329 0.000957316 -2.22327e-06)
(-0.0161965 0.000897828 -2.11425e-06)
(-0.0189025 0.000795716 -1.89816e-06)
(-0.0212272 0.000658444 -1.56249e-06)
(-0.000245148 0.000286906 1.02344e-06)
(-0.00222515 0.00218194 -1.404e-07)
(-0.00657717 0.00381518 1.0749e-06)
(-0.012398 0.00490229 1.50622e-06)
(-0.0191634 0.00551819 1.68512e-06)
(-0.0264305 0.00575851 1.80134e-06)
(-0.0337929 0.00568816 1.78541e-06)
(-0.0408821 0.00534161 1.65681e-06)
(-0.0473577 0.00474705 1.46128e-06)
(-0.052926 0.00395864 1.27202e-06)
(-0.000646482 0.00198591 1.52766e-06)
(-0.00401102 0.00658416 -1.30251e-06)
(-0.0105834 0.0102845 -2.15384e-08)
(-0.0190295 0.0128188 7.57538e-08)
(-0.0286777 0.0143075 -6.7091e-08)
(-0.0389811 0.0149048 -7.43547e-08)
(-0.049404 0.0147197 -8.4604e-08)
(-0.0594318 0.0138169 -1.12823e-07)
(-0.0685673 0.0122673 -1.38883e-07)
(-0.0763651 0.0102165 -7.06135e-08)
(-0.000917602 0.00452892 2.06005e-06)
(-0.00530459 0.012642 -1.7249e-06)
(-0.0135511 0.018831 -1.20608e-08)
(-0.0239293 0.0230613 1.02594e-07)
(-0.0356604 0.0255725 -1.23003e-07)
(-0.0481433 0.0265873 -1.62401e-07)
(-0.0607664 0.026241 -1.92073e-07)
(-0.0729077 0.024604 -2.45114e-07)
(-0.0839255 0.0217744 -3.35489e-07)
(-0.0931965 0.018003 -2.75845e-07)
(-0.00107459 0.00764735 2.36898e-06)
(-0.00610879 0.0198585 -1.92562e-06)
(-0.0154541 0.0288298 1.89879e-07)
(-0.02711 0.034918 4.05454e-07)
(-0.0402311 0.038554 1.8245e-07)
(-0.0541952 0.0400416 1.45386e-07)
(-0.0683507 0.0395171 9.97798e-08)
(-0.0819922 0.0370117 -4.82398e-09)
(-0.0943279 0.0326022 -2.9466e-07)
(-0.10449 0.0266223 -4.08444e-07)
(-0.00113794 0.0110801 2.48122e-06)
(-0.00646467 0.0277527 -2.0671e-06)
(-0.0163349 0.0397081 2.31699e-07)
(-0.0286256 0.0477817 4.97506e-07)
(-0.0424731 0.052645 2.85975e-07)
(-0.0572659 0.054691 2.61439e-07)
(-0.0723475 0.0540265 2.33837e-07)
(-0.0869588 0.0505764 1.49298e-07)
(-0.100162 0.0443023 -4.3978e-07)
(-0.110741 0.0355289 -9.84306e-07)
(-0.00112111 0.0145886 2.44585e-06)
(-0.00640808 0.0358392 -2.07152e-06)
(-0.0162383 0.0508617 2.43598e-07)
(-0.02851 0.0609969 5.4106e-07)
(-0.042387 0.0671805 3.68342e-07)
(-0.0572975 0.069898 3.72781e-07)
(-0.07262 0.0691963 4.07886e-07)
(-0.087593 0.064811 5.07584e-07)
(-0.101192 0.0564364 -5.62561e-07)
(-0.111747 0.0441499 -2.36685e-06)
(-0.00103226 0.0179551 2.2618e-06)
(-0.00596878 0.0436501 -1.95531e-06)
(-0.015209 0.0616804 2.31301e-07)
(-0.0267896 0.0738673 5.4234e-07)
(-0.0399272 0.0814101 4.24134e-07)
(-0.0540995 0.0848928 4.33087e-07)
(-0.0687473 0.0842886 4.73949e-07)
(-0.083174 0.0790681 8.65793e-07)
(-0.0964367 0.0684553 -1.50781e-06)
(-0.106415 0.0517806 -8.4372e-06)
(-0.000880292 0.0209799 1.92838e-06)
(-0.00519072 0.0507449 -1.75946e-06)
(-0.0133359 0.0715598 1.75281e-07)
(-0.0235663 0.0856519 4.90672e-07)
(-0.0351402 0.0944604 4.84186e-07)
(-0.0475476 0.0986804 6.0275e-07)
(-0.0602593 0.0982472 8.87388e-07)
(-0.0726536 0.0923777 2.79377e-06)
(-0.0841419 0.0797127 5.89438e-07)
(-0.0925253 0.0581083 -1.88901e-05)
(-0.000681953 0.0234956 1.46371e-06)
(-0.00415945 0.0567444 -1.53794e-06)
(-0.0108145 0.079948 3.37937e-08)
(-0.0191411 0.095611 2.97621e-07)
(-0.0283866 0.105347 3.87699e-07)
(-0.0379415 0.109948 7.24187e-07)
(-0.0471285 0.109365 1.67374e-06)
(-0.0551213 0.102684 7.86348e-06)
(-0.0616524 0.0881674 1.7378e-05)
(-0.065946 0.0624877 -3.73451e-06)
(0.000152537 -0.000155156 -2.85897e-08)
(-0.000289963 0.000235572 -0.000159921)
(-0.00192331 0.000605393 -0.000279659)
(-0.00429044 0.000831045 -0.000326574)
(-0.00711042 0.000947177 -0.000270549)
(-0.0101526 0.000988499 -9.90594e-05)
(-0.0132325 0.000974863 0.000190145)
(-0.0161955 0.000914318 0.000594344)
(-0.0189007 0.000810414 0.00110631)
(-0.0212246 0.000670921 0.00171323)
(-0.000250974 0.000292553 0.000160141)
(-0.00222749 0.00218409 -1.3756e-06)
(-0.00657159 0.00382383 -8.26866e-05)
(-0.012395 0.00491438 -8.26455e-05)
(-0.0191622 0.00553124 9.98991e-06)
(-0.0264302 0.00577187 0.000206176)
(-0.0337935 0.00570124 0.000509161)
(-0.0408834 0.00535376 0.000917978)
(-0.0473589 0.00475773 0.00142791)
(-0.0529266 0.00396783 0.00202969)
(-0.000658458 0.00198922 0.00028044)
(-0.00401949 0.00657922 7.68393e-05)
(-0.0105785 0.0102811 -4.07067e-06)
(-0.0190282 0.0128153 9.96794e-06)
(-0.0286779 0.0143026 0.000113779)
(-0.0389813 0.0148992 0.000314741)
(-0.0494045 0.0147138 0.000615122)
(-0.0594323 0.013811 0.00101487)
(-0.0685671 0.0122614 0.00151172)
(-0.0763633 0.0102117 0.00209974)
(-0.000933812 0.00453152 0.000317863)
(-0.00531645 0.0126395 6.17479e-05)
(-0.0135452 0.018831 -3.26989e-05)
(-0.0239284 0.0230621 -1.89273e-05)
(-0.0356614 0.0255729 8.54994e-05)
(-0.0481439 0.0265875 0.000284957)
(-0.0607672 0.0262407 0.000581028)
(-0.0729087 0.0246031 0.000975166)
(-0.0839251 0.0217722 0.00146843)
(-0.0931927 0.0180008 0.00205955)
(-0.00109305 0.00764871 0.000229316)
(-0.00612168 0.0198573 -7.08932e-05)
(-0.0154463 0.0288308 -0.000178488)
(-0.0271085 0.0349201 -0.000170114)
(-0.0402321 0.0385563 -7.11446e-05)
(-0.0541961 0.040044 0.000121376)
(-0.0683522 0.0395194 0.000409851)
(-0.0819948 0.0370132 0.000798935)
(-0.0943289 0.0326007 0.00129527)
(-0.104484 0.0266195 0.00190639)
(-0.00115741 0.0110803 -8.15639e-06)
(-0.00647786 0.0277522 -0.000341711)
(-0.0163261 0.0397087 -0.000459099)
(-0.0286234 0.047783 -0.000459456)
(-0.0424738 0.0526468 -0.00037183)
(-0.0572666 0.0546932 -0.000193074)
(-0.0723493 0.0540291 8.19818e-05)
(-0.0869636 0.0505786 0.000463662)
(-0.100166 0.0442989 0.000967808)
(-0.110729 0.0355204 0.00162073)
(-0.0011404 0.0145878 -0.000401826)
(-0.00642089 0.0358395 -0.000758169)
(-0.0162289 0.0508619 -0.000880946)
(-0.0285072 0.0609976 -0.00089282)
(-0.0423871 0.0671818 -0.0008233)
(-0.0572977 0.0699001 -0.000667952)
(-0.0726215 0.0691995 -0.000417029)
(-0.0876018 0.0648148 -5.17983e-05)
(-0.101204 0.0564288 0.000457131)
(-0.111723 0.0441219 0.00117654)
(-0.00105025 0.0179532 -0.000947488)
(-0.00598054 0.0436509 -0.00131708)
(-0.0151998 0.0616802 -0.00144094)
(-0.0267863 0.0738671 -0.00146743)
(-0.0399264 0.0814109 -0.00142438)
(-0.0540986 0.0848952 -0.00130606)
(-0.0687476 0.0842946 -0.00109733)
(-0.0831903 0.0790822 -0.000769211)
(-0.0964742 0.0684611 -0.000276937)
(-0.106377 0.0517377 0.000528267)
(-0.000896052 0.0209771 -0.00163033)
(-0.00520089 0.0507457 -0.0020054)
(-0.0133273 0.0715587 -0.00212674)
(-0.0235625 0.08565 -0.00217112)
(-0.0351379 0.094459 -0.00216373)
(-0.047543 0.0986804 -0.00209895)
(-0.0602499 0.0982531 -0.00195691)
(-0.0726651 0.0924075 -0.00169717)
(-0.0842187 0.0797751 -0.00126408)
(-0.0924856 0.05814 -0.000353594)
(-0.000694888 0.0234921 -0.00242546)
(-0.00416793 0.056745 -0.00280113)
(-0.0108077 0.0799455 -0.00291713)
(-0.019138 0.0956058 -0.00298193)
(-0.0283841 0.105339 -0.00301887)
(-0.0379339 0.109933 -0.00302709)
(-0.0471009 0.109335 -0.00299023)
(-0.0550874 0.102638 -0.0028667)
(-0.0617127 0.0881213 -0.00263448)
(-0.0658821 0.0624055 -0.00181566)
(-0.0230862 0.000514336 -0.00239625)
(-0.0244751 0.00036644 -0.00313302)
(-0.025448 0.000244586 -0.00390369)
(-0.0260944 0.000154378 -0.00469345)
(-0.0265063 9.34731e-05 -0.00549263)
(-0.0267628 5.59376e-05 -0.00629568)
(-0.0269242 3.54046e-05 -0.00710001)
(-0.0270337 2.66706e-05 -0.00790486)
(-0.027121 2.60811e-05 -0.00871062)
(-0.0272066 3.12568e-05 -0.00951855)
(-0.027304 4.05162e-05 -0.0103306)
(-0.0274207 5.21432e-05 -0.0111493)
(-0.0275568 6.35469e-05 -0.011978)
(-0.027702 7.03814e-05 -0.0128208)
(-0.027829 6.58931e-05 -0.0136815)
(-0.0278863 4.06904e-05 -0.0145639)
(-0.0277929 -1.88518e-05 -0.0154681)
(-0.0274371 -0.000123054 -0.016391)
(-0.026683 -0.000277746 -0.0173215)
(-0.0253976 -0.000476533 -0.0182391)
(-0.0573982 0.00308867 -0.00270853)
(-0.0607553 0.00225479 -0.00344542)
(-0.0631351 0.00155694 -0.00422334)
(-0.064745 0.00102695 -0.00502875)
(-0.0657958 0.000655694 -0.00585165)
(-0.0664677 0.000414363 -0.00668533)
(-0.0668996 0.000270242 -0.00752568)
(-0.0671913 0.000195038 -0.0083705)
(-0.067412 0.000167275 -0.00921901)
(-0.0676075 0.000171269 -0.0100715)
(-0.0678062 0.000194424 -0.010929)
(-0.0680201 0.000223711 -0.0117933)
(-0.0682424 0.000241733 -0.0126668)
(-0.06844 0.000222809 -0.013552)
(-0.0685427 0.000130035 -0.0144515)
(-0.0684308 -8.50767e-05 -0.0153663)
(-0.0679216 -0.000479278 -0.0162962)
(-0.0667705 -0.00109988 -0.0172359)
(-0.0646915 -0.00196423 -0.0181748)
(-0.061409 -0.00302931 -0.0190945)
(-0.0825293 0.00793877 -0.00276637)
(-0.08706 0.00579767 -0.00349142)
(-0.0902042 0.00401623 -0.0042584)
(-0.0922935 0.00266639 -0.00505451)
(-0.0936389 0.0017184 -0.00586999)
(-0.0944908 0.00109634 -0.00669806)
(-0.0950336 0.000716878 -0.00753428)
(-0.0953949 0.000508495 -0.00837608)
(-0.0956603 0.000416445 -0.00922219)
(-0.0958849 0.000399856 -0.0100724)
(-0.096101 0.000425118 -0.0109273)
(-0.0963207 0.000457592 -0.0117879)
(-0.0965324 0.00045256 -0.0126561)
(-0.0966927 0.00034635 -0.0135338)
(-0.0967116 4.95676e-05 -0.0144227)
(-0.0964353 -0.000553549 -0.015324)
(-0.0956275 -0.0015922 -0.0162373)
(-0.0939622 -0.00317821 -0.0171589)
(-0.0910426 -0.00534945 -0.0180804)
(-0.0864634 -0.00799823 -0.0189866)
(-0.100276 0.013819 -0.00273714)
(-0.105215 0.00994748 -0.00347261)
(-0.108454 0.00679899 -0.00424744)
(-0.110494 0.00446389 -0.00504897)
(-0.111746 0.00285243 -0.00586774)
(-0.112506 0.00180756 -0.00669743)
(-0.112974 0.00117278 -0.0075341)
(-0.113275 0.000820617 -0.0083754)
(-0.113491 0.000656719 -0.00922015)
(-0.113669 0.00061212 -0.010068)
(-0.113837 0.000630971 -0.0109192)
(-0.114005 0.000656406 -0.0117745)
(-0.114165 0.000615492 -0.0126351)
(-0.114276 0.000404118 -0.0135026)
(-0.114259 -0.000125602 -0.0143787)
(-0.113961 -0.00116933 -0.0152653)
(-0.113136 -0.00295468 -0.0161636)
(-0.11141 -0.00569125 -0.017073)
(-0.108284 -0.00947496 -0.0179893)
(-0.103171 -0.0141478 -0.0189024)
(-0.111769 0.0199534 -0.00262341)
(-0.116322 0.0139631 -0.00339397)
(-0.118959 0.00928448 -0.00419565)
(-0.120419 0.00594728 -0.00501659)
(-0.121204 0.00372145 -0.00584829)
(-0.121624 0.00231753 -0.00668593)
(-0.121854 0.00148148 -0.00752696)
(-0.121988 0.00102259 -0.00837)
(-0.122079 0.000807881 -0.00921442)
(-0.122154 0.000744773 -0.01006)
(-0.122229 0.000761141 -0.0109069)
(-0.122312 0.000784975 -0.0117556)
(-0.122401 0.000723251 -0.0126067)
(-0.122478 0.000439654 -0.0134614)
(-0.122498 -0.000267067 -0.0143217)
(-0.122353 -0.00167734 -0.0151902)
(-0.121837 -0.00414294 -0.0160708)
(-0.120575 -0.00802832 -0.0169675)
(-0.117973 -0.0135751 -0.0178833)
(-0.113177 -0.0206555 -0.0188182)
(-0.117457 0.0255922 -0.00242418)
(-0.120706 0.0170935 -0.00326303)
(-0.121994 0.0108682 -0.00411245)
(-0.122376 0.00668842 -0.00496607)
(-0.122394 0.00404456 -0.00581857)
(-0.1223 0.00244915 -0.00666862)
(-0.122193 0.0015321 -0.00751645)
(-0.122103 0.00104288 -0.0083625)
(-0.122033 0.000820596 -0.00920713)
(-0.121979 0.000760928 -0.0100506)
(-0.121939 0.000787436 -0.0108928)
(-0.121915 0.000825994 -0.011734)
(-0.121917 0.000779112 -0.0125741)
(-0.121959 0.000497001 -0.0134138)
(-0.122052 -0.000255874 -0.0142547)
(-0.122178 -0.00183493 -0.0151003)
(-0.122235 -0.00473494 -0.0159574)
(-0.121941 -0.00955202 -0.0168361)
(-0.12067 -0.0168333 -0.0177499)
(-0.117204 -0.0266956 -0.018721)
(-0.116934 0.0297551 -0.00215172)
(-0.117708 0.0184323 -0.0031039)
(-0.116884 0.0109328 -0.00402099)
(-0.115822 0.00633199 -0.00491591)
(-0.114931 0.00363895 -0.00579184)
(-0.114289 0.00211601 -0.00665441)
(-0.113853 0.00128605 -0.00750845)
(-0.113558 0.000863951 -0.00835688)
(-0.113345 0.000684639 -0.00920129)
(-0.113173 0.000650715 -0.0100423)
(-0.113021 0.000696757 -0.0108797)
(-0.112883 0.000762102 -0.0117131)
(-0.112777 0.000764679 -0.0125416)
(-0.112747 0.000569212 -0.0133647)
(-0.112868 -5.7039e-05 -0.014183)
(-0.113245 -0.00150627 -0.0149998)
(-0.113959 -0.00439837 -0.0158243)
(-0.114967 -0.00962234 -0.0166733)
(-0.115831 -0.0182643 -0.0175745)
(-0.114975 -0.0311694 -0.0185958)
(-0.108525 0.0308756 -0.00183849)
(-0.105324 0.0167963 -0.00295872)
(-0.101843 0.00891337 -0.0039551)
(-0.0993411 0.00470411 -0.00489026)
(-0.0977118 0.00250617 -0.00578362)
(-0.0967021 0.00137579 -0.00665269)
(-0.0960831 0.000806337 -0.00750856)
(-0.0956869 0.000537668 -0.00835667)
(-0.0954048 0.000437739 -0.00919944)
(-0.0951694 0.000437716 -0.0100375)
(-0.0949428 0.000496825 -0.0108704)
(-0.0947111 0.000580013 -0.0116965)
(-0.0944889 0.000637826 -0.012514)
(-0.0943316 0.000579696 -0.0133204)
(-0.0943602 0.00022899 -0.0141142)
(-0.0947856 -0.000758328 -0.0148971)
(-0.0959144 -0.00302341 -0.0156793)
(-0.0981212 -0.00769223 -0.0164829)
(-0.101629 -0.0166096 -0.017349)
(-0.104986 -0.032342 -0.0184238)
(-0.0882866 0.0269994 -0.00169015)
(-0.0796013 0.0114029 -0.00298463)
(-0.0738823 0.00489672 -0.00399878)
(-0.0707949 0.00217047 -0.00493088)
(-0.0691072 0.00100337 -0.00581375)
(-0.068177 0.000497419 -0.00667252)
(-0.0676516 0.000277874 -0.00752101)
(-0.0673282 0.000189785 -0.00836422)
(-0.0670937 0.000169163 -0.00920356)
(-0.0668835 0.000189066 -0.0100387)
(-0.0666593 0.000237215 -0.0108681)
(-0.066401 0.000305105 -0.0116891)
(-0.0661094 0.000379373 -0.0124979)
(-0.0658195 0.00042881 -0.0132896)
(-0.0656342 0.000377254 -0.0140586)
(-0.0657757 3.93788e-05 -0.0148016)
(-0.0666604 -0.00104177 -0.0155238)
(-0.0690942 -0.00393526 -0.0162392)
(-0.074655 -0.0111237 -0.016974)
(-0.0838709 -0.0282407 -0.018004)
(-0.0466222 0.0169937 -0.00214997)
(-0.0345346 0.0047791 -0.00337437)
(-0.0297872 0.00140002 -0.00409582)
(-0.0281782 0.000415744 -0.00483362)
(-0.0275296 0.000121179 -0.00559021)
(-0.0272317 3.66106e-05 -0.00636046)
(-0.0270806 1.59663e-05 -0.00714146)
(-0.0269862 1.5087e-05 -0.00792851)
(-0.0269065 2.17741e-05 -0.00871772)
(-0.0268186 3.35692e-05 -0.00950597)
(-0.0267061 5.10166e-05 -0.0102901)
(-0.026555 7.5637e-05 -0.0110659)
(-0.0263535 0.00010889 -0.0118278)
(-0.0260957 0.00014998 -0.0125671)
(-0.0257949 0.000189126 -0.0132709)
(-0.0255227 0.000184529 -0.0139194)
(-0.0254834 -2.97534e-05 -0.014491)
(-0.026325 -0.0010143 -0.0149567)
(-0.0305999 -0.00470102 -0.0152532)
(-0.0437204 -0.0182653 -0.0158669)
(-0.0230889 0.000504168 1.14742e-06)
(-0.0244773 0.000358643 7.77706e-07)
(-0.0254495 0.000238936 4.95181e-07)
(-0.0260953 0.000150459 2.96608e-07)
(-0.0265068 9.08445e-05 1.68594e-07)
(-0.026763 5.42025e-05 9.27957e-08)
(-0.0269243 3.42414e-05 5.24344e-08)
(-0.0270336 2.58374e-05 3.51425e-08)
(-0.0271209 2.5406e-05 3.27657e-08)
(-0.0272065 3.06253e-05 4.02675e-08)
(-0.0273038 3.98641e-05 5.45486e-08)
(-0.0274204 5.14587e-05 7.31063e-08)
(-0.0275566 6.28856e-05 9.21773e-08)
(-0.0277017 6.98879e-05 1.05454e-07)
(-0.0278288 6.5812e-05 1.05666e-07)
(-0.0278864 4.14037e-05 7.79891e-08)
(-0.0277935 -1.6758e-05 -1.40496e-08)
(-0.0274385 -0.000118887 -1.97119e-07)
(-0.0266854 -0.000270863 -4.95337e-07)
(-0.0254009 -0.000466586 -9.31986e-07)
(-0.0573976 0.00308052 -1.13417e-06)
(-0.0607541 0.00224819 -9.45769e-07)
(-0.0631335 0.00155203 -7.38047e-07)
(-0.0647434 0.00102347 -5.49682e-07)
(-0.0657944 0.000653333 -3.93994e-07)
(-0.0664666 0.000412797 -2.76318e-07)
(-0.0668987 0.000269202 -1.95025e-07)
(-0.0671907 0.000194316 -1.44158e-07)
(-0.0674116 0.000166721 -1.16241e-07)
(-0.0676072 0.000170781 -1.03659e-07)
(-0.067806 0.000193938 -9.86178e-08)
(-0.0680198 0.000223202 -9.20806e-08)
(-0.0682417 0.000241226 -7.26657e-08)
(-0.068439 0.000222392 -2.59524e-08)
(-0.0685412 0.000129874 6.24842e-08)
(-0.0684287 -8.46976e-05 2.08531e-07)
(-0.067919 -0.000477874 4.25788e-07)
(-0.0667677 -0.00109686 7.14515e-07)
(-0.0646893 -0.00195909 1.04508e-06)
(-0.0614079 -0.00302214 1.34023e-06)
(-0.0825312 0.00794072 -1.66116e-07)
(-0.0870604 0.00579839 -2.60189e-07)
(-0.0902035 0.00401662 -2.67487e-07)
(-0.0922925 0.00266664 -2.43109e-07)
(-0.0936378 0.0017186 -2.00091e-07)
(-0.0944899 0.00109653 -1.53779e-07)
(-0.0950328 0.000717073 -1.1354e-07)
(-0.0953943 0.000508699 -8.2223e-08)
(-0.0956598 0.000416667 -5.94207e-08)
(-0.0958845 0.0004001 -4.29242e-08)
(-0.0961006 0.000425373 -2.97173e-08)
(-0.0963203 0.000457827 -1.62216e-08)
(-0.0965318 0.000452718 1.65177e-09)
(-0.0966918 0.000346344 2.82681e-08)
(-0.0967105 4.93005e-05 6.6385e-08)
(-0.0964339 -0.000554164 1.16562e-07)
(-0.0956258 -0.00159324 1.82173e-07)
(-0.0939606 -0.00317963 2.53821e-07)
(-0.0910423 -0.00535122 3.14334e-07)
(-0.0864653 -0.00800144 2.52414e-07)
(-0.10028 0.0138167 -2.13746e-07)
(-0.105215 0.00994493 -3.37635e-07)
(-0.108453 0.00679748 -3.17573e-07)
(-0.110493 0.00446316 -2.74384e-07)
(-0.111745 0.00285221 -2.13657e-07)
(-0.112505 0.00180764 -1.54859e-07)
(-0.112973 0.00117297 -1.08035e-07)
(-0.113275 0.000820846 -7.351e-08)
(-0.11349 0.000656937 -4.9226e-08)
(-0.113668 0.000612305 -3.23751e-08)
(-0.113836 0.000631102 -1.99764e-08)
(-0.114005 0.000656455 -9.19481e-09)
(-0.114164 0.000615418 2.88835e-09)
(-0.114276 0.000403887 1.98685e-08)
(-0.114258 -0.000125982 4.64441e-08)
(-0.11396 -0.00116977 9.02106e-08)
(-0.113134 -0.00295498 1.48697e-07)
(-0.111409 -0.00569088 2.27788e-07)
(-0.108284 -0.00947302 3.47089e-07)
(-0.103176 -0.0141458 2.85807e-07)
(-0.111775 0.0199465 -5.88669e-07)
(-0.116322 0.0139573 -6.31998e-07)
(-0.118956 0.00928188 -4.777e-07)
(-0.120416 0.00594633 -3.63843e-07)
(-0.121202 0.00372138 -2.50587e-07)
(-0.121623 0.00231786 -1.60397e-07)
(-0.121853 0.0014819 -1.00116e-07)
(-0.121987 0.00102298 -6.19467e-08)
(-0.122078 0.000808201 -3.88137e-08)
(-0.122153 0.000745004 -2.54061e-08)
(-0.122229 0.000761276 -1.793e-08)
(-0.122312 0.000784992 -1.35972e-08)
(-0.1224 0.000723121 -9.5256e-09)
(-0.122478 0.000439359 -1.12961e-09)
(-0.122497 -0.000267485 2.06755e-08)
(-0.122352 -0.00167774 6.85882e-08)
(-0.121834 -0.00414294 1.43031e-07)
(-0.120572 -0.0080268 2.68722e-07)
(-0.117971 -0.0135693 5.91074e-07)
(-0.113184 -0.0206474 7.28017e-07)
(-0.11747 0.0255774 -1.35207e-06)
(-0.120703 0.0170838 -1.06224e-06)
(-0.121988 0.0108652 -6.03214e-07)
(-0.122372 0.006688 -3.96795e-07)
(-0.122391 0.00404512 -2.30256e-07)
(-0.122298 0.00244998 -1.18334e-07)
(-0.122192 0.00153284 -5.78012e-08)
(-0.122103 0.00104346 -2.65567e-08)
(-0.122033 0.000821024 -1.13083e-08)
(-0.121979 0.000761232 -4.97913e-09)
(-0.121939 0.000787632 -3.83739e-09)
(-0.121915 0.000826072 -6.24592e-09)
(-0.121917 0.000779036 -1.09939e-08)
(-0.121959 0.000496726 -1.39948e-08)
(-0.122051 -0.00025632 -3.74173e-09)
(-0.122176 -0.00183535 3.21805e-08)
(-0.122232 -0.00473486 9.24443e-08)
(-0.121933 -0.0095497 2.28703e-07)
(-0.120663 -0.0168226 9.64973e-07)
(-0.117217 -0.0266777 1.75061e-06)
(-0.116958 0.0297342 -3.69523e-06)
(-0.117695 0.0184253 -2.2459e-06)
(-0.116872 0.0109351 -9.42745e-07)
(-0.115816 0.00633471 -4.92251e-07)
(-0.114928 0.00364113 -2.10149e-07)
(-0.114287 0.0021176 -6.39137e-08)
(-0.113853 0.00128709 -8.52332e-09)
(-0.113558 0.000864633 9.79011e-09)
(-0.113344 0.000685118 1.33659e-08)
(-0.113173 0.000651091 1.06399e-08)
(-0.113021 0.000697081 4.48873e-09)
(-0.112883 0.000762372 -4.90105e-09)
(-0.112777 0.000764824 -1.77469e-08)
(-0.112747 0.000569056 -3.13374e-08)
(-0.112868 -5.76594e-05 -2.76156e-08)
(-0.113243 -0.0015073 3.30418e-08)
(-0.113954 -0.00440021 1.54937e-07)
(-0.114953 -0.00962465 4.07392e-07)
(-0.115814 -0.0182564 2.15946e-06)
(-0.115 -0.031145 4.74671e-06)
(-0.108571 0.0308408 -6.3946e-06)
(-0.105298 0.0168032 -2.35538e-06)
(-0.101828 0.00892915 -3.89754e-07)
(-0.0993378 0.00471267 -1.81644e-07)
(-0.0977106 0.00251035 2.991e-09)
(-0.0967017 0.00137794 7.48787e-08)
(-0.0960831 0.000807436 6.93183e-08)
(-0.095687 0.000538286 5.4473e-08)
(-0.0954048 0.000438199 4.34706e-08)
(-0.0951694 0.000438182 3.58581e-08)
(-0.0949428 0.000497377 2.96825e-08)
(-0.0947112 0.000580671 2.18869e-08)
(-0.0944892 0.000638507 6.54664e-09)
(-0.0943321 0.000580102 -3.01005e-08)
(-0.0943604 0.00022857 -7.34291e-08)
(-0.0947856 -0.000760421 -1.20694e-08)
(-0.0959132 -0.00303014 5.76339e-08)
(-0.0981059 -0.00770814 -1.75138e-07)
(-0.101598 -0.0166171 2.02104e-06)
(-0.105033 -0.0323002 7.79536e-06)
(-0.0883403 0.0268457 -8.24258e-06)
(-0.079546 0.0113599 3.36241e-06)
(-0.0738736 0.00488968 3.60925e-06)
(-0.0708024 0.00216576 1.40658e-06)
(-0.0691112 0.000999973 6.85512e-07)
(-0.0681789 0.000495464 3.9348e-07)
(-0.0676526 0.000276713 2.16463e-07)
(-0.0673286 0.000189023 1.36107e-07)
(-0.0670938 0.000168602 1.11697e-07)
(-0.0668834 0.00018859 1.15008e-07)
(-0.0666591 0.000236767 1.32878e-07)
(-0.066401 0.000304686 1.55522e-07)
(-0.0661098 0.000379082 1.64544e-07)
(-0.0658206 0.000428893 1.11845e-07)
(-0.0656363 0.000378129 -5.01065e-08)
(-0.065781 4.15697e-05 -2.6801e-07)
(-0.0666723 -0.00103812 -1.0561e-06)
(-0.0690888 -0.00392896 -4.21586e-06)
(-0.0745902 -0.0110768 -5.06112e-06)
(-0.0839157 -0.028058 9.34809e-06)
(-0.046646 0.0168812 -4.22875e-05)
(-0.0344082 0.00472959 -5.95882e-06)
(-0.0297548 0.00138088 -1.31052e-07)
(-0.0281759 0.000405091 -1.01136e-06)
(-0.0275276 0.00011523 -6.33342e-07)
(-0.0272302 3.35104e-05 -2.64133e-07)
(-0.02708 1.42957e-05 -1.32011e-07)
(-0.0269859 1.4064e-05 -7.96203e-08)
(-0.0269064 2.10053e-05 -5.67646e-08)
(-0.0268186 3.28476e-05 -5.17805e-08)
(-0.0267062 5.02364e-05 -5.72894e-08)
(-0.0265551 7.47814e-05 -6.62683e-08)
(-0.0263535 0.000108085 -6.82588e-08)
(-0.0260954 0.000149619 -4.66131e-08)
(-0.0257939 0.000189989 4.80207e-08)
(-0.0255218 0.000187885 3.62922e-07)
(-0.0254844 -2.15442e-05 6.63615e-07)
(-0.0262937 -0.000996526 -1.09024e-06)
(-0.030447 -0.00464859 3.58175e-06)
(-0.0437183 -0.018129 4.91162e-05)
(-0.0230889 0.000504168 -1.14715e-06)
(-0.0244772 0.000358643 -7.77381e-07)
(-0.0254495 0.000238936 -4.94695e-07)
(-0.0260953 0.000150459 -2.96072e-07)
(-0.0265068 9.08444e-05 -1.68236e-07)
(-0.026763 5.42024e-05 -9.26974e-08)
(-0.0269242 3.42415e-05 -5.25603e-08)
(-0.0270336 2.58374e-05 -3.53981e-08)
(-0.0271209 2.54059e-05 -3.29753e-08)
(-0.0272065 3.06251e-05 -4.03677e-08)
(-0.0273038 3.98638e-05 -5.45865e-08)
(-0.0274204 5.14585e-05 -7.30445e-08)
(-0.0275565 6.28855e-05 -9.19669e-08)
(-0.0277017 6.98877e-05 -1.05114e-07)