/*--------------------------------*- C++ -*----------------------------------*\
| =========                 |                                                 |
| \\      /  F ield         | OpenFOAM: The Open Source CFD Toolbox           |
|  \\    /   O peration     | Version:  2.4.0                                 |
|   \\  /    A nd           | Web:      www.OpenFOAM.org                      |
|    \\/     M anipulation  |                                                 |
\*---------------------------------------------------------------------------*/
FoamFile
{
    version     2.0;
    format      ascii;
    class       volScalarField;
    location    "0.0071";
    object      T;
}
// * * * * * * * * * * * * * * * * * * * * * * * * * * * * * * * * * * * * * //

dimensions      [0 0 0 1 0 0 0];

internalField   nonuniform List<scalar> 
4800
(
100.194
100.581
100.968
101.354
101.738
102.117
102.487
102.844
103.182
103.493
100.581
101.742
102.903
104.063
105.217
106.359
107.475
108.552
109.571
110.511
100.968
102.903
104.841
106.778
108.71
110.625
112.503
114.319
116.039
117.626
101.354
104.063
106.779
109.499
112.22
114.927
117.593
120.182
122.64
124.908
101.738
105.218
108.71
112.22
115.745
119.269
122.762
126.174
129.431
132.438
102.117
106.359
110.625
114.927
119.269
123.641
128.012
132.323
136.471
140.314
102.488
107.476
112.504
117.595
122.763
128.013
133.323
138.633
143.817
148.66
102.845
108.554
114.321
120.184
126.177
132.325
138.634
145.068
151.502
157.641
103.182
109.573
116.042
122.644
129.435
136.475
143.819
151.504
159.482
167.46
103.494
110.514
117.631
124.914
132.445
140.321
148.666
157.645
167.462
178.222
100.194
100.581
100.968
101.354
101.738
102.117
102.487
102.844
103.182
103.493
100.581
101.742
102.903
104.063
105.217
106.359
107.475
108.552
109.571
110.511
100.968
102.903
104.841
106.778
108.71
110.625
112.503
114.319
116.039
117.626
101.354
104.063
106.779
109.499
112.22
114.927
117.593
120.182
122.64
124.908
101.738
105.218
108.711
112.22
115.745
119.269
122.762
126.174
129.431
132.438
102.117
106.359
110.625
114.927
119.269
123.641
128.012
132.323
136.471
140.314
102.488
107.476
112.504
117.595
122.764
128.013
133.323
138.633
143.817
148.66
102.845
108.554
114.321
120.184
126.177
132.325
138.634
145.068
151.502
157.641
103.183
109.573
116.042
122.644
129.436
136.475
143.82
151.504
159.482
167.46
103.494
110.514
117.631
124.915
132.446
140.321
148.666
157.646
167.463
178.223
100.194
100.581
100.968
101.354
101.738
102.117
102.487
102.844
103.182
103.493
100.581
101.742
102.903
104.063
105.217
106.359
107.475
108.552
109.571
110.511
100.968
102.903
104.841
106.778
108.71
110.625
112.503
114.319
116.039
117.626
101.354
104.063
106.779
109.499
112.22
114.927
117.593
120.182
122.64
124.908
101.738
105.218
108.711
112.22
115.745
119.269
122.762
126.174
129.431
132.438
102.117
106.359
110.625
114.927
119.269
123.641
128.012
132.323
136.471
140.314
102.488
107.476
112.504
117.595
122.764
128.013
133.323
138.633
143.817
148.66
102.845
108.554
114.321
120.184
126.177
132.325
138.634
145.068
151.502
157.641
103.183
109.573
116.042
122.644
129.436
136.475
143.82
151.504
159.482
167.46
103.494
110.514
117.631
124.915
132.446
140.321
148.666
157.646
167.463
178.223
100.194
100.581
100.968
101.354
101.738
102.117
102.487
102.844
103.182
103.493
100.581
101.742
102.903
104.063
105.217
106.359
107.475
108.552
109.571
110.511
100.968
102.903
104.841
106.778
108.71
110.625
112.503
114.319
116.039
117.626
101.354
104.063
106.779
109.499
112.22
114.927
117.593
120.182
122.64
124.908
101.738
105.218
108.71
112.22
115.745
119.269
122.762
126.174
129.431
132.438
102.117
106.359
110.625
114.927
119.269
123.641
128.012
132.323
136.471
140.314
102.488
107.476
112.504
117.595
122.763
128.013
133.323
138.633
143.817
148.66
102.845
108.554
114.321
120.184
126.177
132.325
138.634
145.068
151.502
157.641
103.182
109.573
116.042
122.644
129.435
136.475
143.819
151.504
159.482
167.46
103.494
110.514
117.631
124.914
132.445
140.321
148.666
157.645
167.462
178.222
103.773
104.016
104.222
104.391
104.526
104.63
104.707
104.762
104.796
104.813
104.813
104.796
104.761
104.707
104.63
104.526
104.391
104.222
104.016
103.773
111.354
112.087
112.704
113.208
113.609
113.916
114.144
114.304
114.405
114.454
114.454
114.405
114.304
114.144
113.916
113.608
113.208
112.703
112.086
111.353
119.045
120.272
121.298
122.13
122.784
123.283
123.65
123.906
124.067
124.145
124.145
124.067
123.905
123.649
123.281
122.782
122.128
121.297
120.271
119.044
126.928
128.659
130.087
131.229
132.114
132.78
133.266
133.602
133.812
133.914
133.913
133.812
133.601
133.265
132.779
132.112
131.227
130.086
128.657
126.926
135.1
137.347
139.164
140.584
141.662
142.459
143.032
143.423
143.667
143.783
143.783
143.666
143.422
143.03
142.457
141.66
140.581
139.162
137.345
135.098
143.687
146.464
148.638
150.28
151.49
152.363
152.978
153.393
153.649
153.77
153.77
153.648
153.392
152.977
152.361
151.488
150.278
148.636
146.462
143.685
152.869
156.186
158.643
160.408
161.655
162.526
163.125
163.522
163.764
163.878
163.878
163.763
163.521
163.123
162.524
161.653
160.406
158.641
156.184
152.867
162.943
166.766
169.342
171.053
172.194
172.96
173.473
173.806
174.007
174.102
174.101
174.007
173.805
173.472
172.959
172.193
171.052
169.34
166.764
162.941
174.494
178.591
180.906
182.268
183.11
183.649
183.999
184.223
184.357
184.419
184.419
184.356
184.223
183.998
183.648
183.109
182.267
180.905
178.591
174.494
188.984
192.199
193.422
194.004
194.328
194.526
194.651
194.73
194.777
194.799
194.799
194.777
194.73
194.651
194.525
194.328
194.003
193.422
192.199
188.983
103.773
104.016
104.222
104.391
104.526
104.63
104.707
104.761
104.796
104.812
104.812
104.796
104.761
104.707
104.629
104.525
104.391
104.222
104.016
103.772
111.354
112.086
112.704
113.208
113.608
113.916
114.144
114.304
114.405
114.454
114.454
114.405
114.303
114.143
113.915
113.607
113.207
112.702
112.085
111.352
119.045
120.272
121.298
122.13
122.783
123.282
123.649
123.905
124.067
124.144
124.144
124.066
123.904
123.648
123.28
122.781
122.127
121.296
120.27
119.043
126.928
128.658
130.087
131.228
132.113
132.78
133.265
133.601
133.812
133.913
133.913
133.811
133.6
133.264
132.778
132.111
131.225
130.084
128.655
126.925
135.1
137.347
139.164
140.583
141.661
142.459
143.031
143.423
143.666
143.783
143.782
143.665
143.421
143.029
142.456
141.658
140.58
139.16
137.343
135.097
143.687
146.464
148.638
150.28
151.489
152.363
152.978
153.392
153.648
153.769
153.769
153.647
153.391
152.976
152.36
151.486
150.276
148.634
146.461
143.684
152.869
156.186
158.643
160.407
161.654
162.525
163.124
163.521
163.763
163.878
163.877
163.762
163.52
163.122
162.523
161.651
160.404
158.64
156.182
152.866
162.943
166.765
169.342
171.053
172.194
172.96
173.472
173.805
174.006
174.101
174.1
174.006
173.804
173.47
172.958
172.192
171.05
169.339
166.762
162.94
174.494
178.591
180.906
182.268
183.109
183.648
183.998
184.222
184.356
184.418
184.418
184.355
184.222
183.997
183.647
183.108
182.266
180.904
178.589
174.492
188.984
192.199
193.422
194.003
194.328
194.525
194.651
194.73
194.777
194.799
194.799
194.777
194.73
194.65
194.525
194.327
194.003
193.421
192.198
188.982
103.773
104.016
104.222
104.391
104.526
104.63
104.707
104.761
104.796
104.812
104.812
104.796
104.761
104.707
104.629
104.525
104.391
104.222
104.016
103.772
111.354
112.086
112.704
113.208
113.608
113.916
114.144
114.304
114.405
114.454
114.454
114.405
114.303
114.143
113.915
113.607
113.207
112.702
112.085
111.352
119.045
120.272
121.298
122.13
122.783
123.282
123.649
123.905
124.067
124.144
124.144
124.066
123.904
123.648
123.28
122.781
122.127
121.296
120.27
119.043
126.928
128.658
130.087
131.228
132.113
132.78
133.265
133.601
133.812
133.913
133.913
133.811
133.6
133.264
132.778
132.111
131.225
130.084
128.655
126.925
135.1
137.347
139.164
140.583
141.661
142.459
143.031
143.423
143.666
143.783
143.782
143.665
143.421
143.029
142.456
141.658
140.58
139.16
137.343
135.097
143.687
146.464
148.638
150.28
151.489
152.363
152.978
153.392
153.648
153.769
153.769
153.647
153.391
152.976
152.36
151.486
150.276
148.634
146.461
143.684
152.869
156.186
158.643
160.407
161.654
162.525
163.124
163.521
163.763
163.878
163.877
163.762
163.52
163.122
162.523
161.651
160.404
158.64
156.182
152.866
162.943
166.765
169.342
171.053
172.194
172.96
173.472
173.805
174.006
174.101
174.1
174.006
173.804
173.47
172.958
172.192
171.05
169.339
166.762
162.94
174.494
178.591
180.906
182.268
183.109
183.648
183.998
184.222
184.356
184.418
184.418
184.355
184.222
183.997
183.647
183.108
182.266
180.904
178.589
174.492
188.984
192.199
193.422
194.003
194.328
194.525
194.651
194.73
194.777
194.799
194.799
194.777
194.73
194.65
194.525
194.327
194.003
193.421
192.198
188.982
103.773
104.016
104.222
104.391
104.526
104.63
104.707
104.762
104.796
104.813
104.813
104.796
104.761
104.707
104.63
104.526
104.391
104.222
104.016
103.773
111.354
112.087
112.704
113.208
113.609
113.916
114.144
114.304
114.405
114.454
114.454
114.405
114.304
114.144
113.916
113.608
113.208
112.703
112.086
111.353
119.045
120.272
121.298
122.13
122.784
123.283
123.65
123.906
124.067
124.145
124.145
124.067
123.905
123.649
123.281
122.782
122.128
121.297
120.271
119.044
126.928
128.659
130.087
131.229
132.114
132.78
133.266
133.602
133.812
133.914
133.913
133.812
133.601
133.265
132.779
132.112
131.227
130.086
128.657
126.926
135.1
137.347
139.164
140.584
141.662
142.459
143.032
143.423
143.667
143.783
143.783
143.666
143.422
143.03
142.457
141.66
140.581
139.162
137.345
135.098
143.687
146.464
148.638
150.28
151.49
152.363
152.978
153.393
153.649
153.77
153.77
153.648
153.392
152.977
152.361
151.488
150.278
148.636
146.462
143.685
152.869
156.186
158.643
160.408
161.655
162.526
163.125
163.522
163.764
163.878
163.878
163.763
163.521
163.123
162.524
161.653
160.406
158.641
156.184
152.867
162.943
166.766
169.342
171.053
172.194
172.96
173.473
173.806
174.007
174.102
174.101
174.007
173.805
173.472
172.959
172.193
171.052
169.34
166.764
162.941
174.494
178.591
180.906
182.268
183.11
183.649
183.999
184.223
184.357
184.419
184.419
184.356
184.223
183.998
183.648
183.109
182.267
180.905
178.591
174.494
188.984
192.199
193.422
194.004
194.328
194.526
194.651
194.73
194.777
194.799
194.799
194.777
194.73
194.651
194.525
194.328
194.003
193.422
192.199
188.983
103.493
103.182
102.844
102.488
102.117
101.738
101.354
100.968
100.581
100.194
110.511
109.571
108.553
107.476
106.359
105.218
104.064
102.904
101.743
100.581
117.625
116.039
114.319
112.503
110.625
108.711
106.779
104.842
102.904
100.968
124.907
122.639
120.182
117.594
114.927
112.221
109.5
106.779
104.064
101.354
132.437
129.43
126.174
122.762
119.269
115.745
112.221
108.711
105.218
101.738
140.313
136.47
132.323
128.013
123.642
119.27
114.929
110.626
106.36
102.117
148.659
143.816
138.633
133.324
128.014
122.765
117.596
112.506
107.477
102.488
157.641
151.502
145.069
138.635
132.327
126.179
120.186
114.323
108.555
102.845
167.461
159.483
151.505
143.822
136.478
129.438
122.646
116.044
109.575
103.183
178.223
167.464
157.648
148.669
140.324
132.448
124.917
117.633
110.516
103.495
103.492
103.181
102.844
102.487
102.116
101.737
101.353
100.967
100.58
100.193
110.509
109.57
108.551
107.474
106.358
105.217
104.062
102.903
101.741
100.58
117.624
116.037
114.317
112.502
110.624
108.709
106.778
104.84
102.903
100.967
124.905
122.638
120.18
117.592
114.926
112.219
109.499
106.778
104.063
101.353
132.435
129.429
126.172
122.761
119.267
115.744
112.22
108.71
105.217
101.737
140.311
136.469
132.321
128.011
123.64
119.268
114.927
110.625
106.359
102.117
148.658
143.814
138.631
133.322
128.012
122.763
117.595
112.504
107.476
102.487
157.639
151.501
145.067
138.633
132.325
126.177
120.184
114.321
108.554
102.845
167.459
159.481
151.503
143.82
136.476
129.436
122.645
116.043
109.573
103.182
178.222
167.462
157.646
148.667
140.322
132.446
124.915
117.632
110.514
103.494
103.492
103.181
102.844
102.487
102.116
101.737
101.353
100.967
100.58
100.193
110.509
109.57
108.551
107.474
106.358
105.217
104.062
102.903
101.741
100.58
117.624
116.037
114.317
112.502
110.624
108.709
106.778
104.84
102.903
100.967
124.905
122.638
120.18
117.592
114.926
112.219
109.499
106.778
104.063
101.353
132.435
129.429
126.172
122.761
119.267
115.744
112.22
108.71
105.217
101.737
140.311
136.469
132.321
128.011
123.64
119.268
114.927
110.625
106.359
102.117
148.658
143.814
138.631
133.322
128.012
122.763
117.595
112.504
107.476
102.487
157.639
151.501
145.067
138.633
132.325
126.177
120.184
114.321
108.554
102.845
167.459
159.481
151.503
143.82
136.476
129.436
122.645
116.043
109.573
103.182
178.222
167.462
157.646
148.667
140.322
132.446
124.915
117.632
110.514
103.494
103.493
103.182
102.844
102.488
102.117
101.738
101.354
100.968
100.581
100.194
110.511
109.571
108.553
107.476
106.359
105.218
104.064
102.904
101.743
100.581
117.625
116.039
114.319
112.503
110.625
108.711
106.779
104.842
102.904
100.968
124.907
122.639
120.182
117.594
114.927
112.221
109.5
106.779
104.064
101.354
132.437
129.43
126.174
122.762
119.269
115.745
112.221
108.711
105.218
101.738
140.313
136.47
132.323
128.013
123.642
119.27
114.929
110.626
106.36
102.117
148.659
143.816
138.633
133.324
128.014
122.765
117.596
112.506
107.477
102.488
157.641
151.502
145.069
138.635
132.327
126.179
120.186
114.323
108.555
102.845
167.461
159.483
151.505
143.822
136.478
129.438
122.646
116.044
109.575
103.183
178.223
167.464
157.648
148.669
140.324
132.448
124.917
117.633
110.516
103.495
188.986
174.501
162.953
152.882
143.701
135.114
126.941
119.055
111.361
103.775
192.203
178.601
166.78
156.203
146.484
137.367
128.677
120.286
112.096
104.02
193.427
180.919
169.362
158.668
148.665
139.191
130.112
121.318
112.717
104.227
194.01
182.286
171.08
160.442
150.317
140.621
131.262
122.157
113.226
104.398
194.337
183.134
172.231
161.701
151.541
141.712
132.159
122.82
113.632
104.534
194.537
183.681
173.011
162.589
152.433
142.528
132.843
123.332
113.948
104.641
194.667
184.043
173.541
163.21
153.073
143.126
133.351
123.717
114.188
104.722
194.752
184.284
173.9
163.639
153.522
143.552
133.717
123.997
114.363
104.782
194.806
184.44
174.135
163.924
153.825
143.842
133.97
124.192
114.485
104.824
194.839
184.533
174.277
164.097
154.011
144.022
134.128
124.314
114.563
104.85
194.853
184.575
174.342
164.178
154.099
144.109
134.204
124.374
114.601
104.863
194.852
184.571
174.337
164.175
154.098
144.11
134.207
124.377
114.603
104.864
194.834
184.52
174.262
164.086
154.007
144.026
134.137
124.325
114.571
104.853
194.796
184.413
174.104
163.902
153.818
143.852
133.99
124.215
114.503
104.83
194.73
184.23
173.841
163.599
153.513
143.572
133.757
124.041
114.396
104.794
194.621
183.937
173.431
163.142
153.063
143.169
133.425
123.795
114.246
104.744
194.436
183.465
172.806
162.474
152.43
142.616
132.979
123.471
114.049
104.678
194.092
182.684
171.853
161.521
151.567
141.888
132.406
123.06
113.803
104.596
193.34
181.324
170.403
160.19
150.431
140.966
131.698
122.561
113.506
104.497
191.281
178.874
168.245
158.411
149.002
139.851
130.862
121.98
113.164
104.384
188.984
174.499
162.95
152.879
143.699
135.112
126.939
119.054
111.359
103.774
192.201
178.598
166.777
156.201
146.482
137.364
128.675
120.285
112.094
104.019
193.425
180.916
169.359
158.666
148.663
139.189
130.11
121.316
112.715
104.226
194.008
182.283
171.077
160.439
150.315
140.618
131.26
122.154
113.224
104.397
194.335
183.131
172.229
161.698
151.538
141.71
132.157
122.818
113.63
104.533
194.535
183.679
173.008
162.586
152.43
142.526
132.84
123.33
113.946
104.64
194.665
184.04
173.538
163.207
153.07
143.123
133.348
123.715
114.186
104.721
194.75
184.281
173.897
163.636
153.519
143.549
133.715
123.995
114.361
104.781
194.804
184.436
174.132
163.921
153.822
143.839
133.967
124.189
114.483
104.822
194.837
184.529
174.273
164.094
154.008
144.019
134.125
124.312
114.561
104.849
194.851
184.572
174.338
164.175
154.096
144.106
134.202
124.372
114.599
104.862
194.85
184.568
174.334
164.171
154.094
144.107
134.204
124.375
114.601
104.863
194.832
184.517
174.258
164.083
154.004
144.023
134.134
124.322
114.569
104.852
194.793
184.409
174.101
163.898
153.815
143.848
133.987
124.212
114.501
104.829
194.727
184.226
173.837
163.596
153.51
143.569
133.754
124.038
114.394
104.793
194.618
183.933
173.427
163.138
153.059
143.166
133.422
123.793
114.244
104.742
194.433
183.462
172.802
162.47
152.426
142.613
132.976
123.468
114.047
104.677
194.09
182.68
171.849
161.517
151.563
141.885
132.403
123.057
113.8
104.594
193.337
181.32
170.399
160.187
150.427
140.963
131.695
122.558
113.504
104.496
191.278
178.87
168.241
158.407
148.999
139.847
130.859
121.977
113.162
104.383
188.984
174.499
162.95
152.879
143.699
135.112
126.939
119.054
111.359
103.774
192.201
178.598
166.777
156.201
146.482
137.364
128.675
120.285
112.094
104.019
193.425
180.916
169.359
158.666
148.663
139.189
130.11
121.316
112.715
104.226
194.008
182.283
171.077
160.439
150.315
140.618
131.26
122.154
113.224
104.397
194.335
183.131
172.229
161.698
151.538
141.71
132.157
122.818
113.63
104.533
194.535
183.679
173.008
162.586
152.43
142.526
132.84
123.33
113.946
104.64
194.665
184.04
173.538
163.207
153.07
143.123
133.348
123.715
114.186
104.721
194.75
184.281
173.897
163.636
153.519
143.549
133.715
123.995
114.361
104.781
194.804
184.436
174.132
163.921
153.822
143.839
133.967
124.189
114.483
104.822
194.837
184.529
174.273
164.094
154.008
144.019
134.125
124.312
114.561
104.849
194.851
184.572
174.338
164.175
154.096
144.106
134.202
124.372
114.599
104.862
194.85
184.568
174.334
164.171
154.094
144.107
134.204
124.375
114.601
104.863
194.832
184.517
174.258
164.083
154.004
144.023
134.134
124.322
114.569
104.852
194.793
184.409
174.101
163.898
153.815
143.848
133.987
124.212
114.501
104.829
194.727
184.226
173.837
163.596
153.51
143.569
133.754
124.038
114.394
104.793
194.618
183.933
173.427
163.138
153.059
143.166
133.422
123.793
114.244
104.742
194.433
183.462
172.802
162.47
152.426
142.613
132.976
123.468
114.047
104.677
194.09
182.68
171.849
161.517
151.563
141.885
132.403
123.057
113.8
104.594
193.337
181.32
170.399
160.187
150.427
140.963
131.695
122.558
113.504
104.496
191.278
178.87
168.241
158.407
148.999
139.847
130.859
121.977
113.162
104.383
188.986
174.501
162.953
152.882
143.701
135.114
126.941
119.055
111.361
103.775
192.203
178.601
166.78
156.203
146.484
137.367
128.677
120.286
112.096
104.02
193.427
180.919
169.362
158.668
148.665
139.191
130.112
121.318
112.717
104.227
194.01
182.286
171.08
160.442
150.317
140.621
131.262
122.157
113.226
104.398
194.337
183.134
172.231
161.701
151.541
141.712
132.159
122.82
113.632
104.534
194.537
183.681
173.011
162.589
152.433
142.528
132.843
123.332
113.948
104.641
194.667
184.043
173.541
163.21
153.073
143.126
133.351
123.717
114.188
104.722
194.752
184.284
173.9
163.639
153.522
143.552
133.717
123.997
114.363
104.782
194.806
184.44
174.135
163.924
153.825
143.842
133.97
124.192
114.485
104.824
194.839
184.533
174.277
164.097
154.011
144.022
134.128
124.314
114.563
104.85
194.853
184.575
174.342
164.178
154.099
144.109
134.204
124.374
114.601
104.863
194.852
184.571
174.337
164.175
154.098
144.11
134.207
124.377
114.603
104.864
194.834
184.52
174.262
164.086
154.007
144.026
134.137
124.325
114.571
104.853
194.796
184.413
174.104
163.902
153.818
143.852
133.99
124.215
114.503
104.83
194.73
184.23
173.841
163.599
153.513
143.572
133.757
124.041
114.396
104.794
194.621
183.937
173.431
163.142
153.063
143.169
133.425
123.795
114.246
104.744
194.436
183.465
172.806
162.474
152.43
142.616
132.979
123.471
114.049
104.678
194.092
182.684
171.853
161.521
151.567
141.888
132.406
123.06
113.803
104.596
193.34
181.324
170.403
160.19
150.431
140.966
131.698
122.561
113.506
104.497
191.281
178.874
168.245
158.411
149.002
139.851
130.862
121.98
113.164
104.384
184.186
174.648
165.296
156.208
147.321
138.575
129.923
121.335
112.787
104.26
177.96
170.24
162.088
153.808
145.504
137.207
128.924
120.652
112.389
104.129
172.942
166.27
159.014
151.438
143.685
135.831
127.916
119.963
111.987
103.997
168.934
162.891
156.267
149.252
141.974
134.522
126.951
119.301
111.601
103.87
165.739
160.099
153.92
147.333
140.444
133.336
126.07
118.694
111.245
103.753
163.221
157.853
151.989
145.723
139.14
132.313
125.304
118.162
110.932
103.65
161.291
156.109
150.468
144.437
138.086
131.479
124.674
117.724
110.674
103.565
159.887
154.832
149.344
143.478
137.293
130.847
124.195
117.389
110.475
103.5
158.971
153.996
148.603
142.842
136.764
130.424
123.874
117.165
110.341
103.456
158.52
153.583
148.236
142.526
136.501
130.213
123.714
117.052
110.275
103.438
184.182
174.644
165.292
156.204
147.317
138.571
129.92
121.332
112.784
104.259
177.956
170.237
162.085
153.805
145.501
137.204
128.92
120.649
112.386
104.128
172.939
166.267
159.011
151.435
143.682
135.828
127.913
119.96
111.985
103.996
168.931
162.888
156.264
149.248
141.971
134.518
126.948
119.298
111.598
103.869
165.736
160.096
153.917
147.33
140.441
133.332
126.066
118.69
111.241
103.751
163.219
157.85
151.986
145.72
139.137
132.31
125.3
118.159
110.929
103.648
161.288
156.106
150.465
144.434
138.082
131.475
124.67
117.72
110.67
103.562
159.884
154.83
149.341
143.475
137.289
130.843
124.191
117.384
110.47
103.496
158.969
153.993
148.601
142.839
136.761
130.42
123.87
117.159
110.335
103.451
158.517
153.58
148.233
142.523
136.497
130.209
123.709
117.047
110.268
103.432
184.182
174.644
165.292
156.204
147.317
138.571
129.92
121.332
112.784
104.259
177.956
170.237
162.085
153.805
145.501
137.204
128.92
120.649
112.386
104.128
172.939
166.267
159.011
151.435
143.682
135.828
127.913
119.96
111.985
103.996
168.931
162.888
156.264
149.248
141.971
134.518
126.948
119.298
111.598
103.869
165.736
160.096
153.917
147.33
140.441
133.332
126.066
118.69
111.241
103.751
163.219
157.85
151.986
145.72
139.137
132.31
125.3
118.159
110.929
103.648
161.288
156.106
150.465
144.434
138.082
131.475
124.67
117.72
110.67
103.562
159.884
154.83
149.341
143.474
137.289
130.843
124.191
117.384
110.47
103.496
158.969
153.993
148.6
142.839
136.761
130.42
123.87
117.159
110.335
103.451
158.517
153.58
148.233
142.523
136.497
130.209
123.709
117.047
110.268
103.432
184.186
174.648
165.296
156.208
147.321
138.574
129.923
121.335
112.787
104.26
177.96
170.24
162.088
153.808
145.504
137.207
128.924
120.652
112.389
104.129
172.942
166.27
159.014
151.438
143.685
135.831
127.916
119.963
111.987
103.997
168.934
162.891
156.268
149.252
141.974
134.522
126.951
119.301
111.601
103.87
165.739
160.099
153.92
147.333
140.444
133.336
126.07
118.694
111.245
103.753
163.221
157.853
151.989
145.723
139.14
132.313
125.304
118.162
110.932
103.65
161.291
156.109
150.468
144.437
138.086
131.479
124.674
117.724
110.674
103.565
159.887
154.832
149.344
143.478
137.292
130.847
124.195
117.389
110.475
103.5
158.971
153.996
148.603
142.842
136.764
130.424
123.874
117.164
110.341
103.456
158.519
153.582
148.236
142.525
136.501
130.213
123.714
117.052
110.275
103.438
192.855
195.624
196.798
197.435
197.84
198.117
198.311
198.444
198.528
198.569
198.569
198.529
198.446
198.313
198.119
197.842
197.438
196.801
195.626
192.857
184.469
188.468
190.932
192.54
193.648
194.435
194.996
195.384
195.63
195.749
195.75
195.632
195.388
195.001
194.441
193.655
192.547
190.939
188.475
184.474
178.6
182.851
185.923
188.149
189.781
190.983
191.857
192.47
192.86
193.051
193.052
192.864
192.476
191.865
190.992
189.792
188.161
185.935
182.862
178.611
174.152
178.415
181.765
184.358
186.349
187.862
188.986
189.784
190.296
190.547
190.549
190.301
189.792
188.997
187.875
186.365
184.376
181.784
178.434
174.17
170.682
174.898
178.371
181.175
183.402
185.136
186.448
187.391
188
188.301
188.303
188.007
187.402
186.463
185.155
183.424
181.2
178.398
174.925
170.709
167.972
172.131
175.655
178.578
180.955
182.841
184.288
185.339
186.023
186.362
186.365
186.032
185.353
184.308
182.866
180.984
178.612
175.691
172.169
168.011
165.9
170.008
173.549
176.538
179.008
180.995
182.536
183.664
184.403
184.769
184.773
184.413
183.682
182.561
181.027
179.046
176.581
173.596
170.058
165.953
164.395
168.461
172.004
175.03
177.556
179.607
181.21
182.39
183.166
183.552
183.557
183.179
182.411
181.24
179.645
177.601
175.082
172.062
168.524
164.461
163.412
167.45
170.99
174.034
176.592
178.68
180.321
181.532
182.331
182.73
182.735
182.346
181.557
180.355
178.724
176.644
174.094
171.057
167.523
163.489
162.926
166.949
170.488
173.539
176.111
178.217
179.874
181.101
181.911
182.316
182.322
181.927
181.127
179.911
178.263
176.167
173.604
170.56
167.028
163.01
192.857
195.626
196.799
197.436
197.841
198.118
198.312
198.445
198.529
198.569
198.569
198.529
198.445
198.312
198.118
197.841
197.437
196.799
195.625
192.855
184.472
188.471
190.934
192.542
193.65
194.437
194.997
195.385
195.63
195.749
195.749
195.631
195.387
195
194.44
193.653
192.546
190.937
188.472
184.471
178.604
182.854
185.926
188.152
189.783
190.984
191.859
192.471
192.861
193.051
193.052
192.863
192.475
191.864
190.99
189.79
188.159
185.933
182.859
178.608
174.155
178.418
181.768
184.361
186.351
187.863
188.987
189.785
190.297
190.547
190.549
190.3
189.791
188.996
187.874
186.363
184.374
181.781
178.431
174.167
170.685
174.901
178.374
181.178
183.404
185.137
186.449
187.391
188.001
188.301
188.303
188.006
187.401
186.462
185.153
183.422
181.198
178.396
174.923
170.707
167.975
172.134
175.658
178.581
180.957
182.843
184.29
185.34
186.024
186.362
186.364
186.031
185.352
184.307
182.864
180.983
178.61
175.689
172.167
168.009
165.903
170.01
173.551
176.541
179.01
180.997
182.538
183.665
184.403
184.769
184.773
184.413
183.681
182.56
181.025
179.044
176.579
173.594
170.056
165.951
164.398
168.464
172.007
175.032
177.558
179.609
181.211
182.39
183.166
183.552
183.556
183.178
182.41
181.239
179.644
177.6
175.08
172.06
168.521
164.459
163.415
167.453
170.993
174.036
176.593
178.682
180.322
181.533
182.332
182.73
182.735
182.345
181.556
180.354
178.722
176.642
174.092
171.055
167.52
163.487
162.929
166.952
170.49
173.541
176.112
178.218
179.875
181.101
181.911
182.316
182.321
181.926
181.126
179.91
178.262
176.165
173.602
170.558
167.026
163.008
192.857
195.626
196.799
197.436
197.841
198.118
198.312
198.445
198.529
198.569
198.569
198.529
198.445
198.312
198.118
197.841
197.437
196.799
195.625
192.855
184.472
188.471
190.934
192.542
193.65
194.437
194.997
195.385
195.63
195.749
195.749
195.631
195.387
195
194.44
193.653
192.546
190.937
188.472
184.472
178.604
182.854
185.926
188.152
189.783
190.984
191.859
192.471
192.861
193.051
193.052
192.863
192.475
191.864
190.99
189.79
188.159
185.933
182.859
178.608
174.156
178.418
181.768
184.361
186.351
187.863
188.987
189.785
190.297
190.547
190.549
190.3
189.791
188.996
187.874
186.363
184.374
181.781
178.431
174.167
170.685
174.901
178.374
181.178
183.404
185.137
186.449
187.391
188.001
188.301
188.303
188.006
187.401
186.462
185.153
183.422
181.198
178.396
174.923
170.707
167.975
172.134
175.658
178.581
180.957
182.843
184.29
185.34
186.024
186.362
186.364
186.031
185.352
184.307
182.864
180.983
178.61
175.689
172.167
168.009
165.903
170.01
173.551
176.541
179.01
180.997
182.538
183.665
184.403
184.769
184.773
184.413
183.681
182.56
181.025
179.044
176.579
173.594
170.056
165.951
164.398
168.464
172.007
175.032
177.558
179.609
181.211
182.39
183.166
183.552
183.556
183.178
182.41
181.239
179.643
177.599
175.08
172.06
168.521
164.459
163.415
167.452
170.993
174.036
176.593
178.682
180.322
181.533
182.331
182.73
182.735
182.345
181.556
180.353
178.722
176.642
174.092
171.055
167.52
163.487
162.929
166.952
170.49
173.541
176.112
178.218
179.875
181.101
181.911
182.316
182.321
181.926
181.126
179.91
178.262
176.165
173.602
170.558
167.026
163.008
192.855
195.624
196.798
197.435
197.84
198.117
198.311
198.444
198.528
198.569
198.569
198.529
198.446
198.313
198.119
197.842
197.438
196.801
195.626
192.857
184.469
188.468
190.932
192.54
193.648
194.435
194.996
195.384
195.63
195.749
195.75
195.632
195.388
195.001
194.441
193.655
192.548
190.939
188.475
184.474
178.6
182.851
185.923
188.15
189.781
190.983
191.857
192.47
192.86
193.051
193.052
192.864
192.476
191.865
190.992
189.792
188.161
185.935
182.862
178.611
174.152
178.415
181.766
184.358
186.349
187.862
188.986
189.784
190.296
190.547
190.549
190.301
189.792
188.997
187.875
186.365
184.376
181.784
178.434
174.17
170.682
174.898
178.372
181.175
183.402
185.136
186.448
187.391
188
188.301
188.303
188.007
187.402
186.463
185.155
183.424
181.2
178.398
174.925
170.709
167.972
172.131
175.655
178.579
180.955
182.841
184.289
185.339
186.023
186.362
186.365
186.032
185.353
184.308
182.866
180.984
178.612
175.691
172.169
168.011
165.9
170.008
173.549
176.539
179.008
180.995
182.536
183.664
184.403
184.769
184.773
184.413
183.682
182.561
181.027
179.046
176.581
173.596
170.058
165.953
164.395
168.461
172.004
175.03
177.556
179.607
181.21
182.389
183.165
183.552
183.556
183.178
182.411
181.24
179.645
177.601
175.082
172.062
168.524
164.461
163.412
167.45
170.99
174.034
176.592
178.68
180.32
181.532
182.331
182.73
182.735
182.346
181.556
180.355
178.724
176.643
174.094
171.057
167.522
163.489
162.926
166.949
170.488
173.539
176.11
178.216
179.874
181.101
181.911
182.316
182.321
181.927
181.127
179.911
178.263
176.166
173.603
170.56
167.028
163.01
104.26
112.788
121.338
129.928
138.581
147.328
156.214
165.3
174.65
184.184
104.129
112.389
120.654
128.928
137.212
145.509
153.812
162.09
170.24
177.956
103.997
111.987
119.964
127.918
135.833
143.686
151.437
159.011
166.264
172.934
103.869
111.598
119.299
126.948
134.517
141.968
149.243
156.256
162.877
168.918
103.751
111.239
118.687
126.061
133.324
140.429
147.314
153.898
160.074
165.712
103.646
110.924
118.15
125.286
132.291
139.113
145.692
151.954
157.815
163.182
103.56
110.661
117.704
124.647
131.444
138.045
144.391
150.418
156.057
161.237
103.492
110.459
117.361
124.157
130.799
137.237
143.416
149.278
154.765
159.819
103.447
110.321
117.127
123.824
130.363
136.695
142.767
148.524
153.915
158.892
103.419
110.251
117.009