/*--------------------------------*- C++ -*----------------------------------*\
| =========                 |                                                 |
| \\      /  F ield         | OpenFOAM: The Open Source CFD Toolbox           |
|  \\    /   O peration     | Version:  2.4.0                                 |
|   \\  /    A nd           | Web:      www.OpenFOAM.org                      |
|    \\/     M anipulation  |                                                 |
\*---------------------------------------------------------------------------*/
FoamFile
{
    version     2.0;
    format      ascii;
    class       surfaceScalarField;
    location    "1.9";
    object      phi;
}
// * * * * * * * * * * * * * * * * * * * * * * * * * * * * * * * * * * * * * //

dimensions      [0 3 -1 0 0 0 0];

internalField   nonuniform List<scalar> 
12720
(
1.34394e-07
-1.34318e-07
2.04666e-10
-5.61462e-07
6.94109e-07
1.74515e-09
-2.06253e-06
1.49852e-06
2.54793e-09
-4.12534e-06
2.05957e-06
3.2495e-09
-6.52055e-06
2.39155e-06
3.66349e-09
-9.06011e-06
2.53572e-06
3.83072e-09
-1.15893e-05
2.52532e-06
3.83515e-09
-1.39738e-05
2.38091e-06
3.67627e-09
-1.60967e-05
2.11953e-06
3.33045e-09
1.76915e-06
2.77668e-09
-1.78686e-05
-7.23926e-07
5.90972e-07
-1.36449e-09
-3.24406e-06
3.21384e-06
4.04643e-10
-7.33807e-06
5.594e-06
-1.48402e-09
-1.25916e-05
7.31539e-06
-2.33653e-09
-1.85705e-05
8.37327e-06
-2.75896e-09
-2.48711e-05
8.83931e-06
-3.02426e-09
-3.11275e-05
8.78482e-06
-3.03001e-09
-3.701e-05
8.26615e-06
-2.8162e-09
-4.22337e-05
7.34572e-06
-2.47022e-09
6.12817e-06
-2.13053e-09
-4.65906e-05
-1.6541e-06
2.2475e-06
-2.42956e-09
-5.96362e-06
7.52116e-06
2.2138e-09
-1.23406e-05
1.19709e-05
1.07099e-10
-2.02071e-05
1.51819e-05
-8.50056e-11
-2.89979e-05
1.7164e-05
1.21447e-10
-3.81769e-05
1.80182e-05
1.13788e-10
-4.72372e-05
1.7845e-05
1.24768e-10
-5.57042e-05
1.6733e-05
1.79343e-10
-6.31587e-05
1.47999e-05
2.41972e-10
1.22607e-05
1.45748e-10
-6.92913e-05
-2.40707e-06
4.65809e-06
-3.52158e-09
-8.21468e-06
1.33257e-05
3.08679e-09
-1.64667e-05
2.02229e-05
-3.85395e-12
-2.64082e-05
2.51236e-05
-2.57367e-10
-3.73677e-05
2.81234e-05
1.01486e-10
-4.87185e-05
2.93688e-05
1.44202e-10
-5.98534e-05
2.89798e-05
1.84752e-10
-7.01809e-05
2.70601e-05
2.85202e-10
-7.91532e-05
2.37718e-05
4.73438e-10
1.94533e-05
4.13219e-10
-8.63462e-05
-2.93211e-06
7.59448e-06
-4.28153e-09
-9.82197e-06
2.02119e-05
3.60671e-09
-1.94308e-05
2.98321e-05
-4.0136e-10
-3.08574e-05
3.65511e-05
-8.70353e-10
-4.33492e-05
4.06158e-05
-5.13499e-10
-5.62178e-05
4.22378e-05
-4.85473e-10
-6.87833e-05
4.15457e-05
-4.27577e-10
-8.03507e-05
3.86278e-05
-2.39024e-10
-9.02292e-05
3.365e-05
3.14596e-10
2.70493e-05
5.8413e-10
-9.78258e-05
-3.21128e-06
1.08104e-05
-4.64692e-09
-1.06979e-05
2.76945e-05
3.97719e-09
-2.1063e-05
4.01978e-05
-5.22677e-10
-3.33177e-05
4.88069e-05
-1.10347e-09
-4.6663e-05
5.39619e-05
-7.53142e-10
-6.03791e-05
5.59546e-05
-7.44655e-10
-7.37422e-05
5.49096e-05
-7.23831e-10
-8.59704e-05
5.08565e-05
-5.74928e-10
-9.62065e-05
4.38855e-05
5.29873e-10
3.44238e-05
1.59529e-09
-0.000103583
-3.23938e-06
1.40544e-05
-4.64724e-09
-1.08041e-05
3.52552e-05
4.0679e-09
-2.12715e-05
5.06658e-05
-5.5779e-10
-3.36313e-05
6.11678e-05
-1.2059e-09
-4.70767e-05
6.74082e-05
-9.09987e-10
-6.08901e-05
6.9769e-05
-9.43578e-10
-7.4343e-05
6.83635e-05
-1.04516e-09
-8.66046e-05
6.31193e-05
-1.25768e-09
-9.66532e-05
5.39334e-05
6.92008e-10
4.09537e-05
4.02212e-09
-0.000103187
-3.02458e-06
1.70833e-05
-4.27936e-09
-1.01522e-05
4.23789e-05
3.89603e-09
-2.00511e-05
6.05652e-05
-5.08792e-10
-3.17462e-05
7.28641e-05
-1.17374e-09
-4.44503e-05
8.01133e-05
-9.55782e-10
-5.74715e-05
8.27911e-05
-9.74193e-10
-7.01178e-05
8.1011e-05
-1.10222e-09
-8.15802e-05
7.45837e-05
-1.96243e-09
-9.07554e-05
6.31065e-05
2.01013e-09
4.5916e-05
1.40403e-08
-9.57318e-05
-2.59662e-06
1.96835e-05
-3.57017e-09
-8.82399e-06
4.86028e-05
3.52551e-09
-1.75273e-05
6.92689e-05
-3.52409e-10
-2.77971e-05
8.31349e-05
-9.87918e-10
-3.88619e-05
9.11791e-05
-9.13599e-10
-5.00387e-05
9.39688e-05
-1.0075e-09
-6.06713e-05
9.1645e-05
-1.37171e-09
-7.0025e-05
8.39422e-05
-4.74252e-09
-7.71285e-05
7.02113e-05
-1.35838e-09
4.82479e-05
3.15204e-08
-7.94919e-05
-2.01581e-06
-2.59836e-09
2.17019e-05
-6.99777e-06
3.04474e-09
5.35817e-05
-1.4014e-05
-5.70721e-11
7.62852e-05
-2.22213e-05
-5.63956e-10
9.13427e-05
-3.08185e-05
-6.15222e-10
9.9777e-05
-3.90296e-05
-9.37844e-10
0.000102181
-4.6079e-05
-2.02247e-09
9.86964e-05
-5.10845e-05
-1.1988e-08
8.89597e-05
-5.29562e-05
-2.7836e-08
7.21108e-05
9.11004e-09
-5.04931e-05
4.57758e-05
1.35849e-07
-1.357e-07
5.51703e-11
-5.62057e-07
6.99626e-07
2.58576e-11
-2.06325e-06
1.50373e-06
1.06966e-11
-4.12546e-06
2.06545e-06
4.57655e-12
-6.52041e-06
2.39861e-06
2.30646e-12
-9.05995e-06
2.54337e-06
2.01397e-12
-1.15892e-05
2.53308e-06
1.63903e-12
-1.39739e-05
2.38842e-06
8.99539e-13
-1.6097e-05
2.12642e-06
7.19138e-13
1.77491e-06
8.94356e-13
-1.78692e-05
-7.28753e-07
5.91663e-07
2.62616e-11
-3.2495e-06
3.22077e-06
1.59466e-11
-7.34285e-06
5.59559e-06
8.23963e-12
-1.25948e-05
7.31509e-06
4.05657e-12
-1.8572e-05
8.37306e-06
2.60106e-12
-2.48711e-05
8.83939e-06
2.40042e-12
-3.11264e-05
8.78531e-06
2.03794e-12
-3.70079e-05
8.26718e-06
1.37272e-12
-4.22313e-05
7.34733e-06
1.18034e-12
6.12965e-06
1.29574e-12
-4.65882e-05
-1.65941e-06
2.24863e-06
1.18059e-11
-5.96437e-06
7.52793e-06
8.78999e-12
-1.23414e-05
1.19727e-05
5.65288e-12
-2.0208e-05
1.51816e-05
3.61896e-12
-2.89984e-05
1.71636e-05
2.66598e-12
-3.81768e-05
1.8018e-05
2.78906e-12
-4.72367e-05
1.78453e-05
2.5826e-12
-5.57035e-05
1.67341e-05
1.94671e-12
-6.31582e-05
1.48023e-05
1.67244e-12
1.22628e-05
1.71496e-12
-6.92912e-05
-2.41368e-06
4.65879e-06
6.92038e-12
-8.21359e-06
1.33309e-05
5.73064e-12
-1.64655e-05
2.02246e-05
4.64525e-12
-2.64079e-05
2.51237e-05
3.56915e-12
-3.73676e-05
2.81233e-05
2.93551e-12
-4.87183e-05
2.93688e-05
3.18732e-12
-5.98531e-05
2.89803e-05
3.04272e-12
-7.01805e-05
2.70618e-05
2.35442e-12
-7.91534e-05
2.37757e-05
2.00999e-12
1.94571e-05
1.98591e-12
-8.63473e-05
-2.94032e-06
7.59482e-06
5.35852e-12
-9.82061e-06
2.02148e-05
4.85904e-12
-1.94292e-05
2.98328e-05
4.37877e-12
-3.08569e-05
3.65506e-05
3.69551e-12
-4.33491e-05
4.0615e-05
3.25787e-12
-5.62177e-05
4.2237e-05
3.53191e-12
-6.8783e-05
4.15452e-05
3.35571e-12
-8.035e-05
3.86286e-05
2.61089e-12
-9.02293e-05
3.36552e-05
2.16467e-12
2.70562e-05
2.00287e-12
-9.78279e-05
-3.22032e-06
1.08105e-05
4.6742e-12
-1.06964e-05
2.76949e-05
4.43783e-12
-2.10614e-05
4.01973e-05
3.95167e-12
-3.33176e-05
4.88056e-05
3.44525e-12
-4.66634e-05
5.39601e-05
3.19339e-12
-6.03797e-05
5.59525e-05
3.44527e-12
-7.37426e-05
5.49073e-05
3.20681e-12
-8.59697e-05
5.08551e-05
2.46622e-12
-9.62065e-05
4.38925e-05
1.96883e-12
3.4438e-05
1.70928e-12
-0.000103587
-3.24848e-06
1.40543e-05
4.5082e-12
-1.08028e-05
3.52532e-05
4.34641e-12
-2.12702e-05
5.06642e-05
3.80725e-12
-3.36317e-05
6.11659e-05
3.47984e-12
-4.70781e-05
6.74056e-05
3.36897e-12
-6.08922e-05
6.97657e-05
3.50502e-12
-7.4345e-05
6.83591e-05
3.08195e-12
-8.66044e-05
6.31133e-05
2.24382e-12
-9.66519e-05
5.39407e-05
1.77679e-12
4.09852e-05
1.59066e-12
-0.000103195
-3.03302e-06
1.7083e-05
4.56881e-12
-1.01509e-05
4.2375e-05
4.39769e-12
-2.00501e-05
6.05629e-05
3.89629e-12
-3.17473e-05
7.28619e-05
3.81259e-12
-4.44529e-05
8.01102e-05
3.80236e-12
-5.74752e-05
8.2787e-05
3.64923e-12
-7.01219e-05
8.10047e-05
2.89304e-12
-8.158e-05
7.45694e-05
1.92529e-12
-9.0743e-05
6.31056e-05
1.57485e-12
4.59966e-05
1.62348e-12
-9.57404e-05
-2.60372e-06
1.96832e-05
4.16156e-12
-8.82282e-06
4.85977e-05
4.1016e-12
-1.75266e-05
6.92663e-05
3.75346e-12
-2.77989e-05
8.31331e-05
3.85454e-12
-3.88665e-05
9.11769e-05
3.87576e-12
-5.00468e-05
9.39663e-05
3.43968e-12
-6.06851e-05
9.16416e-05
2.40165e-12
-7.00438e-05
8.39234e-05
1.45864e-12
-7.71048e-05
7.01653e-05
1.42967e-12
4.83628e-05
1.38472e-12
-7.94395e-05
-2.021e-06
3.48528e-12
2.17016e-05
-6.99632e-06
3.56737e-12
5.3576e-05
-1.40128e-05
3.40556e-12
7.62827e-05
-2.22222e-05
3.61832e-12
9.1342e-05
-3.08232e-05
3.59904e-12
9.97773e-05
-3.90413e-05
2.98908e-12
0.000102183
-4.61071e-05
2.02348e-12
9.87054e-05
-5.11704e-05
1.41397e-12
8.89747e-05
-5.30929e-05
1.74665e-12
7.20599e-05
1.49092e-12
-5.02707e-05
4.55498e-05
1.35835e-07
-1.35714e-07
-6.54644e-11
-5.62062e-07
6.99623e-07
-1.69986e-09
-2.06325e-06
1.50373e-06
-2.53195e-09
-4.12546e-06
2.06545e-06
-3.2415e-09
-6.5204e-06
2.39861e-06
-3.65957e-09
-9.05994e-06
2.54337e-06
-3.82789e-09
-1.15892e-05
2.53308e-06
-3.83206e-09
-1.39739e-05
2.38842e-06
-3.67419e-09
-1.6097e-05
2.12642e-06
-3.32907e-09
1.77491e-06
-2.77513e-09
-1.78692e-05
-7.28755e-07
5.91659e-07
1.40939e-09
-3.2495e-06
3.22076e-06
-3.80162e-10
-7.34284e-06
5.59559e-06
1.49485e-09
-1.25948e-05
7.31508e-06
2.34299e-09
-1.8572e-05
8.37306e-06
2.76297e-09
-2.48711e-05
8.83939e-06
3.02716e-09
-3.11263e-05
8.7853e-06
3.03284e-09
-3.70079e-05
8.26718e-06
2.81831e-09
-4.22313e-05
7.34733e-06
2.47195e-09
6.12965e-06
2.13236e-09
-4.65881e-05
-1.65941e-06
2.24863e-06
2.44662e-09
-5.96436e-06
7.52792e-06
-2.20019e-09
-1.23414e-05
1.19727e-05
-9.93982e-11
-2.0208e-05
1.51816e-05
9.13518e-11
-2.89983e-05
1.71635e-05
-1.17011e-10
-3.81768e-05
1.8018e-05
-1.10225e-10
-4.72367e-05
1.78453e-05
-1.21052e-10
-5.57034e-05
1.67341e-05
-1.7641e-10
-6.31581e-05
1.48022e-05
-2.39625e-10
1.22628e-05
-1.4347e-10
-6.92911e-05
-2.41368e-06
4.65878e-06
3.53028e-09
-8.21357e-06
1.33309e-05
-3.07857e-09
-1.64655e-05
2.02246e-05
9.02056e-12
-2.64078e-05
2.51237e-05
2.62649e-10
-3.73675e-05
2.81233e-05
-9.76376e-11
-4.87182e-05
2.93688e-05
-1.40893e-10
-5.98531e-05
2.89803e-05
-1.81055e-10
-7.01804e-05
2.70618e-05
-2.82177e-10
-7.91534e-05
2.37757e-05
-4.71095e-10
1.94571e-05
-4.10948e-10
-8.63472e-05
-2.94031e-06
7.59481e-06
4.28847e-09
-9.8206e-06
2.02148e-05
-3.59987e-09
-1.94292e-05
2.98328e-05
4.06516e-10
-3.08569e-05
3.65505e-05
8.76183e-10
-4.33491e-05
4.0615e-05
5.18137e-10
-5.62177e-05
4.22369e-05
4.89742e-10
-6.87829e-05
4.15451e-05
4.32105e-10
-8.035e-05
3.86286e-05
2.42792e-10
-9.02292e-05
3.36552e-05
-3.11746e-10
2.70562e-05
-5.81653e-10
-9.78278e-05
-3.22031e-06
1.08105e-05
4.65317e-09
-1.06964e-05
2.76949e-05
-3.97061e-09
-2.10614e-05
4.01973e-05
5.28089e-10
-3.33175e-05
4.88055e-05
1.10952e-09
-4.66634e-05
5.39601e-05
7.58093e-10
-6.03797e-05
5.59525e-05
7.49359e-10
-7.37426e-05
5.49073e-05
7.28712e-10
-8.59697e-05
5.08551e-05
5.789e-10
-9.62064e-05
4.38925e-05
-5.27033e-10
3.4438e-05
-1.59302e-09
-0.000103587
-3.24848e-06
1.40543e-05
4.65277e-09
-1.08027e-05
3.52532e-05
-4.06178e-09
-2.12702e-05
5.06641e-05
5.62891e-10
-3.36317e-05
6.11658e-05
1.21153e-09
-4.7078e-05
6.74055e-05
9.1484e-10
-6.08921e-05
6.97656e-05
9.48264e-10
-7.43449e-05
6.83591e-05
1.04985e-09
-8.66043e-05
6.31132e-05
1.26145e-09
-9.66519e-05
5.39407e-05
-6.89451e-10
4.09852e-05
-4.02023e-09
-0.000103195
-3.03301e-06
1.7083e-05
4.28497e-09
-1.01509e-05
4.2375e-05
-3.89009e-09
-2.00501e-05
6.05628e-05
5.14094e-10
-3.17473e-05
7.28619e-05
1.17948e-09
-4.44529e-05
8.01101e-05
9.60988e-10
-5.74752e-05
8.2787e-05
9.79196e-10
-7.01219e-05
8.10046e-05
1.10689e-09
-8.158e-05
7.45694e-05
1.96624e-09
-9.07429e-05
6.31056e-05
-2.00761e-09
4.59966e-05
-1.40387e-08
-9.57403e-05
-2.60372e-06
1.96832e-05
3.57553e-09
-8.82281e-06
4.85976e-05
-3.5201e-09
-1.75266e-05
6.92663e-05
3.57669e-10
-2.77988e-05
8.31331e-05
9.93626e-10
-3.88665e-05
9.11768e-05
9.18909e-10
-5.00468e-05
9.39663e-05
1.01241e-09
-6.06851e-05
9.16416e-05
1.3761e-09
-7.00438e-05
8.39234e-05
4.74647e-09
-7.71048e-05
7.01653e-05
1.36142e-09
4.83628e-05
-3.15182e-08
-7.94395e-05
-2.021e-06
2.60285e-09
2.17016e-05
-6.99631e-06
-3.04013e-09
5.3576e-05
-1.40128e-05
6.19441e-11
7.62826e-05
-2.22221e-05
5.69091e-10
9.13419e-05
-3.08232e-05
6.19951e-10
9.97773e-05
-3.90412e-05
9.41939e-10
0.000102183
-4.61071e-05
2.02603e-09
9.87054e-05
-5.11704e-05
1.19917e-08
8.89747e-05
-5.30929e-05
2.78393e-08
7.20599e-05
-9.10765e-09
-5.02707e-05
4.55498e-05
1.34323e-07
-1.34388e-07
-5.61477e-07
6.94098e-07
-2.06252e-06
1.49851e-06
-4.12533e-06
2.05956e-06
-6.52053e-06
2.39155e-06
-9.06008e-06
2.53572e-06
-1.15892e-05
2.52531e-06
-1.39738e-05
2.38091e-06
-1.60967e-05
2.11952e-06
1.76915e-06
-1.78686e-05
-7.23932e-07
5.90957e-07
-3.24405e-06
3.21384e-06
-7.33804e-06
5.594e-06
-1.25915e-05
7.31537e-06
-1.85704e-05
8.37325e-06
-2.4871e-05
8.83929e-06
-3.11275e-05
8.78481e-06
-3.70099e-05
8.26614e-06
-4.22336e-05
7.34571e-06
6.12816e-06
-4.65905e-05
-1.65409e-06
2.24749e-06
-5.9636e-06
7.52115e-06
-1.23406e-05
1.19709e-05
-2.0207e-05
1.51819e-05
-2.89978e-05
1.71639e-05
-3.81768e-05
1.80181e-05
-4.72371e-05
1.7845e-05
-5.5704e-05
1.67329e-05
-6.31585e-05
1.47999e-05
1.22607e-05
-6.92912e-05
-2.40705e-06
4.65808e-06
-8.21465e-06
1.33257e-05
-1.64666e-05
2.02229e-05
-2.64081e-05
2.51236e-05
-3.73676e-05
2.81234e-05
-4.87183e-05
2.93687e-05
-5.98533e-05
2.89797e-05
-7.01807e-05
2.70601e-05
-7.9153e-05
2.37718e-05
1.94532e-05
-8.6346e-05
-2.9321e-06
7.59446e-06
-9.82193e-06
2.02119e-05
-1.94307e-05
2.98321e-05
-3.08573e-05
3.6551e-05
-4.33491e-05
4.06158e-05
-5.62176e-05
4.22377e-05
-6.87831e-05
4.15456e-05
-8.03505e-05
3.86277e-05
-9.0229e-05
3.36499e-05
2.70493e-05
-9.78256e-05
-3.21126e-06
1.08104e-05
-1.06978e-05
2.76945e-05
-2.1063e-05
4.01978e-05
-3.33176e-05
4.88068e-05
-4.66629e-05
5.39618e-05
-6.03789e-05
5.59545e-05
-7.37421e-05
5.49095e-05
-8.59702e-05
5.08565e-05
-9.62063e-05
4.38855e-05
3.44238e-05
-0.000103582
-3.23936e-06
1.40544e-05
-1.08041e-05
3.52551e-05
-2.12715e-05
5.06657e-05
-3.36312e-05
6.11677e-05
-4.70766e-05
6.74081e-05
-6.089e-05
6.97689e-05
-7.43429e-05
6.83635e-05
-8.66045e-05
6.31193e-05
-9.6653e-05
5.39333e-05
4.09537e-05
-0.000103187
-3.02456e-06
1.70832e-05
-1.01522e-05
4.23788e-05
-2.0051e-05
6.05651e-05
-3.17462e-05
7.2864e-05
-4.44502e-05
8.01131e-05
-5.74714e-05
8.2791e-05
-7.01177e-05
8.10109e-05
-8.15801e-05
7.45837e-05
-9.07553e-05
6.31065e-05
4.5916e-05
-9.57317e-05
-2.59661e-06
1.96834e-05
-8.82396e-06
4.86027e-05
-1.75273e-05
6.92687e-05
-2.7797e-05
8.31347e-05
-3.88619e-05
9.11789e-05
-5.00386e-05
9.39687e-05
-6.06712e-05
9.16449e-05
-7.0025e-05
8.39421e-05
-7.71284e-05
7.02113e-05
4.82479e-05
-7.94918e-05
-2.0158e-06
2.17018e-05
-6.99775e-06
5.35816e-05
-1.4014e-05
7.6285e-05
-2.22212e-05
9.13426e-05
-3.08185e-05
9.97768e-05
-3.90296e-05
0.000102181
-4.6079e-05
9.86963e-05
-5.10844e-05
8.89596e-05
-5.29561e-05
7.21108e-05
-5.04931e-05
4.57758e-05
-1.92499e-05
1.37916e-06
2.08176e-09
-2.02618e-05
1.01045e-06
1.45037e-09
-2.0966e-05
7.03257e-07
9.55147e-10
-2.14379e-05
4.71343e-07
5.98813e-10
-2.1749e-05
3.1069e-07
3.64055e-10
-2.19584e-05
2.09183e-07
2.23196e-10
-2.2112e-05
1.535e-07
1.49736e-10
-2.22446e-05
1.32487e-07
1.24136e-10
-2.23827e-05
1.37874e-07
1.33187e-10
-2.25463e-05
1.63474e-07
1.68578e-10
-2.27502e-05
2.03643e-07
2.24789e-10
-2.30018e-05
2.51354e-07
2.95749e-10
-2.32983e-05
2.9608e-07
3.72437e-10
-2.36204e-05
3.21736e-07
4.39988e-10
-2.39261e-05
3.05211e-07
4.73447e-10
-2.41432e-05
2.16593e-07
4.33447e-10
-2.41659e-05
2.25175e-08
2.66921e-10
-2.38594e-05
-3.06442e-07
-6.6216e-11
-2.30789e-05
-7.79915e-07
-6.49723e-10
-1.37361e-06
-1.52384e-09
-2.17037e-05
-4.99955e-05
4.78597e-06
-1.88293e-09
-5.25075e-05
3.52397e-06
-1.56896e-09
-5.42766e-05
2.47362e-06
-1.23694e-09
-5.54822e-05
1.67791e-06
-9.407e-10
-5.62927e-05
1.12188e-06
-6.99011e-10
-5.68476e-05
7.64634e-07
-5.20758e-10
-5.72551e-05
5.61348e-07
-4.05517e-10
-5.7596e-05
4.73742e-07
-3.45636e-10
-5.79301e-05
4.72284e-07
-3.30482e-10
-5.82999e-05
5.33708e-07
-3.48087e-10
-5.87321e-05
6.36222e-07
-3.84083e-10
-5.9234e-05
7.53622e-07
-4.20096e-10
-5.97865e-05
8.49032e-07
-4.3126e-10
-6.03335e-05
8.69137e-07
-3.84126e-10
-6.07687e-05
7.40597e-07
-2.38323e-10
-6.09239e-05
3.7178e-07
4.59154e-11
-6.05662e-05
-3.35713e-07
5.0115e-10
-5.9411e-05
-1.46272e-06
1.11499e-09
-5.71622e-05
-3.03056e-06
1.85067e-09
-4.95191e-06
2.54032e-09
-5.35865e-05
-7.39881e-05
9.48298e-06
-2.37113e-10
-7.73766e-05
6.91287e-06
-4.07115e-10
-7.97143e-05
4.81179e-06
-4.43142e-10
-8.12804e-05
3.24436e-06
-4.19384e-10
-8.23191e-05
2.16095e-06
-3.57177e-10
-8.30221e-05
1.46792e-06
-2.84067e-10
-8.3531e-05
1.07044e-06
-2.182e-10
-8.39475e-05
8.90417e-07
-1.66318e-10
-8.43437e-05
8.68615e-07
-1.29092e-10
-8.47686e-05
9.58697e-07
-1.03652e-10
-8.525e-05
1.11778e-06
-8.54017e-11
-8.57918e-05
1.29546e-06
-6.87235e-11
-8.63651e-05
1.42236e-06
-4.72513e-11
-8.68955e-05
1.39959e-06
-1.28177e-11
-8.72468e-05
1.09182e-06
4.56954e-11
-8.72045e-05
3.29345e-07
1.33347e-10
-8.64682e-05
-1.07221e-06
2.47192e-10
-8.46623e-05
-3.26909e-06
3.80694e-10
-8.1382e-05
-6.31136e-06
5.16766e-10
-1.00424e-05
4.38163e-10
-7.62919e-05
-9.16157e-05
1.47529e-05
-3.66747e-10
-9.52198e-05
1.05176e-05
-5.90092e-10
-9.75754e-05
7.16791e-06
-5.8319e-10
-9.90754e-05
4.7449e-06
-5.17386e-10
-0.000100026
3.11228e-06
-4.11557e-10
-0.000100645
2.08682e-06
-3.04403e-10
-0.000101077
1.50316e-06
-2.15811e-10
-0.000101421
1.2342e-06
-1.48661e-10
-0.00010174
1.1881e-06
-1.01087e-10
-0.000102078
1.29586e-06
-6.89645e-11
-0.000102455
1.49573e-06
-4.76555e-11
-0.000102877
1.7167e-06
-3.33568e-11
-0.000103316
1.86144e-06
-2.31059e-11
-0.000103706
1.78992e-06
-1.04404e-11
-0.000103921
1.30637e-06
2.54264e-11
-0.000103747
1.55969e-07
9.21744e-11
-0.00010287
-1.95002e-06
1.53712e-10
-0.000100853
-5.28605e-06
2.72979e-10
-9.71781e-05
-9.98678e-06
5.09031e-10
-1.58705e-05
4.46731e-10
-9.13504e-05
-0.00010293
1.98585e-05
-9.98238e-10
-0.000106052
1.36401e-05
-1.11375e-09
-0.000107856
8.97314e-06
-8.96146e-10
-0.000108868
5.75752e-06
-6.9895e-10
-0.000109433
3.67797e-06
-4.91522e-10
-0.000109759
2.41276e-06
-3.2254e-10
-0.000109963
1.70764e-06
-2.05902e-10
-0.000110113
1.38429e-06
-1.30531e-10
-0.000110248
1.32287e-06
-8.50476e-11
-0.000110391
1.439e-06
-6.07654e-11
-0.000110556
1.66119e-06
-5.11355e-11
-0.000110749
1.90917e-06
-5.19666e-11
-0.000110959
2.07201e-06
-6.12019e-11
-0.000111155
1.98537e-06
-7.07086e-11
-0.000111258
1.40962e-06
-4.29097e-11
-0.000111109
7.12814e-09
4.55694e-11
-0.000110436
-2.62291e-06
9.66417e-11
-0.00010878
-6.9428e-06
2.71957e-10
-0.000105485
-1.32819e-05
8.82717e-10
-2.15731e-05
1.24454e-09
-9.97841e-05
-0.000107702
2.39805e-05
-2.14974e-09
-0.000109583
1.55224e-05
-1.81706e-09
-0.000110278
9.66942e-06
-1.12697e-09
-0.000110439
5.91887e-06
-7.52906e-10
-0.000110396
3.63573e-06
-4.42401e-10
-0.000110295
2.31161e-06
-2.32802e-10
-0.000110186
1.59943e-06
-1.15185e-10
-0.000110083
1.28112e-06
-5.28522e-11
-0.000109983
1.22317e-06
-2.2377e-11
-0.000109884
1.33945e-06
-1.07939e-11
-0.000109785
1.56236e-06
-1.14438e-11
-0.000109694
1.81837e-06
-2.18526e-11
-0.000109626
2.00379e-06
-4.18826e-11
-0.000109598
1.95741e-06
-7.06406e-11
-0.000109616
1.42777e-06
-8.71785e-11
-0.000109639
3.00021e-08
-3.84601e-11
-0.000109502
-2.75992e-06
-1.27085e-11
-0.000108806
-7.63816e-06
1.6187e-10
-0.000106773
-1.53169e-05
1.50478e-09
-2.61635e-05
3.13486e-09
-0.000102186
-0.000105308
2.61074e-05
-5.74221e-09
-0.000105124
1.53423e-05
-3.7534e-09
-0.000104239
8.78567e-06
-1.71618e-09
-0.000103335
5.01544e-06
-8.93591e-10
-0.000102612
2.91316e-06
-3.79196e-10
-0.000102076
1.77579e-06
-1.16488e-10
-0.000101673
1.19622e-06
-1.37318e-11
-0.000101342
9.50136e-07
2.0176e-11
-0.000101034
9.15071e-07
2.46919e-11
-0.000100714
1.02041e-06
1.54991e-11
-0.000100368
1.21623e-06
-2.0674e-12
-0.000100001
1.45057e-06
-2.73667e-11
-9.96445e-05
1.64779e-06
-6.08851e-11
-9.93687e-05
1.68177e-06
-1.07252e-10
-9.92777e-05
1.33685e-06
-1.55961e-10
-9.94937e-05
2.46141e-07
-1.08834e-10
-0.000100068
-2.18584e-06
8.6235e-11
-0.00010082
-6.88691e-06
4.69203e-10
-0.000100977
-1.51628e-05
3.60686e-09
-2.84523e-05
8.60489e-09
-9.86971e-05
-9.44192e-05
2.48047e-05
-9.77396e-09
-9.13871e-05
1.2314e-05
-3.92135e-09
-8.87481e-05
6.14751e-06
-7.77879e-10
-8.6882e-05
3.14965e-06
-3.01209e-10
-8.56531e-05
1.68421e-06
3.61045e-11
-8.48477e-05
9.70166e-07
1.55628e-10
-8.42873e-05
6.35745e-07
1.46816e-10
-8.38443e-05
5.06991e-07
1.20608e-10
-8.34314e-05
5.02054e-07
9.99769e-11
-8.29914e-05
5.80293e-07
8.52751e-11
-8.24923e-05
7.17067e-07
7.27452e-11
-8.19303e-05
8.88501e-07
5.67173e-11
-8.13404e-05
1.0579e-06
2.88617e-11
-8.08159e-05
1.15729e-06
-3.63575e-11
-8.05339e-05
1.055e-06
-1.38301e-10
-8.07776e-05
4.89957e-07
-6.98416e-11
-8.19003e-05
-1.06328e-06
9.24326e-11
-8.41962e-05
-4.59052e-06
-4.4439e-10
-8.73383e-05
-1.2024e-05
3.20532e-09
-2.68499e-05
1.37892e-08
-8.89544e-05
-7.22213e-05
1.75464e-05
-1.22427e-08
-6.61509e-05
6.23825e-06
5.40226e-09
-6.24268e-05
2.41736e-06
5.99829e-09
-6.02937e-05
1.01407e-06
2.53081e-09
-5.9076e-05
4.65185e-07
1.29711e-09
-5.83511e-05
2.44433e-07
7.79733e-10
-5.78735e-05
1.57736e-07
4.82329e-10
-5.74998e-05
1.32927e-07
3.59702e-10
-5.71414e-05
1.43333e-07
3.42869e-10
-5.67405e-05
1.78976e-07
3.85175e-10
-5.62596e-05
2.35731e-07
4.62804e-10
-5.56821e-05
3.10431e-07
5.5553e-10
-5.5022e-05
3.97128e-07
6.27922e-10
-5.43465e-05
4.81263e-07
5.86979e-10
-5.38184e-05
5.2653e-07
3.10567e-10
-5.37759e-05
4.47571e-07
-1.45808e-10
-5.47751e-05
-6.23736e-08
-1.65815e-09
-5.78048e-05
-1.55346e-06
-7.40708e-09
-6.39088e-05
-5.91005e-06
-9.92648e-09
-1.86749e-05
1.50794e-08
-7.20989e-05
-3.28793e-05
-6.74299e-08
-2.66298e-05
-1.12242e-08
-2.42117e-05
-7.47317e-10
-2.31958e-05
-1.80764e-09
-2.27295e-05
-1.1684e-09
-2.24845e-05
-5.40085e-10
-2.23264e-05
-3.00688e-10
-2.21933e-05
-2.09646e-10
-2.20498e-05
-1.83175e-10
-2.18706e-05
-2.00412e-10
-2.16346e-05
-2.48295e-10
-2.13239e-05
-3.14228e-10
-2.09264e-05
-3.80293e-10
-2.04447e-05
-4.14974e-10
-1.99179e-05
-3.03642e-10
-1.94706e-05
2.6918e-10
-1.95338e-05
8.20356e-10
-2.10848e-05
-2.41028e-09
-2.69999e-05
5.02985e-09
8.44331e-08
-4.57592e-05
-1.92504e-05
1.3833e-06
9.28125e-13
-2.02622e-05
1.01324e-06
7.67694e-13
-2.09663e-05
7.05049e-07
5.86174e-13
-2.14381e-05
4.72434e-07
5.31032e-13
-2.17491e-05
3.11335e-07
5.8124e-13
-2.19584e-05
2.09577e-07
5.63333e-13
-2.21121e-05
1.53778e-07
4.42201e-13
-2.22447e-05
1.32742e-07
2.55539e-13
-2.23827e-05
1.38169e-07
6.90029e-14
-2.25464e-05
1.63856e-07
4.78914e-14
-2.27503e-05
2.04144e-07
5.2664e-15
-2.3002e-05
2.51991e-07
-1.0779e-13
-2.32985e-05
2.96846e-07
-1.76497e-13
-2.36206e-05
3.22592e-07
-1.39536e-13
-2.39262e-05
3.06073e-07
4.99552e-14
-2.41431e-05
2.17308e-07
3.99977e-13
-2.41656e-05
2.27824e-08
7.73003e-13
-2.3859e-05
-3.06711e-07
1.06744e-12
-2.30784e-05
-7.81213e-07
1.45286e-12
-1.37654e-06
1.95495e-12
-2.17034e-05
-4.9993e-05
4.78618e-06
1.25247e-12
-5.25049e-05
3.5236e-06
1.04172e-12
-5.42743e-05
2.47317e-06
7.79187e-13
-5.54803e-05
1.67752e-06
6.00308e-13
-5.62912e-05
1.12159e-06
6.10523e-13
-5.68466e-05
7.64448e-07
5.90297e-13
-5.72545e-05
5.61234e-07
4.5877e-13
-5.75958e-05
4.73663e-07
3.10997e-13
-5.79301e-05
4.72205e-07
1.76533e-13
-5.83002e-05
5.33593e-07
1.1507e-13
-5.87325e-05
6.36036e-07
9.26721e-14
-5.92342e-05
7.53332e-07
-6.68549e-15
-5.97864e-05
8.48615e-07
-1.09669e-13
-6.03328e-05
8.68607e-07
-1.66594e-13
-6.0767e-05
7.40035e-07
-8.18547e-14
-6.0921e-05
3.71341e-07
1.44233e-13
-6.0562e-05
-3.35779e-07
3.71937e-13
-5.94056e-05
-1.46196e-06
7.09104e-13
-5.71563e-05
-3.02867e-06
1.14269e-12
-4.94952e-06
1.66407e-12
-5.35808e-05
-7.39873e-05
9.48204e-06
1.65132e-12
-7.73751e-05
6.91103e-06
1.39131e-12
-7.97126e-05
4.81019e-06
9.77762e-13
-8.12786e-05
3.24318e-06
5.88213e-13
-8.23176e-05
2.16019e-06
4.22086e-13
-8.30209e-05
1.4675e-06
3.43275e-13
-8.35301e-05
1.07022e-06
2.30742e-13
-8.39469e-05
8.90301e-07
9.50419e-15
-8.43434e-05
8.6852e-07
-1.40732e-13
-8.47685e-05
9.58552e-07
-1.49072e-13
-8.525e-05
1.11752e-06
-2.62306e-14
-8.57918e-05
1.29502e-06
4.92803e-14
-8.63649e-05
1.42169e-06
2.70181e-14
-8.6895e-05
1.3987e-06
-9.12427e-15
-8.72457e-05
1.09082e-06
7.14232e-14
-8.72027e-05
3.28471e-07
1.83399e-13
-8.64657e-05
-1.07258e-06
3.39892e-13
-8.46591e-05
-3.26818e-06
7.15687e-13
-8.13789e-05
-6.30835e-06
1.21524e-12
-1.00385e-05
1.77911e-12
-7.62895e-05
-9.16153e-05
1.47497e-05
1.88939e-12
-9.52181e-05
1.05133e-05
1.66072e-12
-9.75732e-05
7.16472e-06
1.25754e-12
-9.90733e-05
4.74277e-06
7.95707e-13
-0.000100025
3.11102e-06
4.88963e-13
-0.000100644
2.08617e-06
3.47962e-13
-0.000101076
1.50287e-06
1.9678e-13
-0.00010142
1.23409e-06
-4.71725e-14
-0.00010174
1.18804e-06
-2.30011e-13
-0.000102077
1.29575e-06
-2.25269e-13
-0.000102455
1.4955e-06
-8.91233e-14
-0.000102877
1.71625e-06
-3.79844e-14
-0.000103316
1.8607e-06
-1.06181e-13
-0.000103706
1.78884e-06
-2.24429e-13
-0.00010392
1.30507e-06
-2.84146e-13
-0.000103746
1.54958e-07
-3.50423e-13
-0.000102868
-1.95082e-06
-1.20008e-13
-0.000100851
-5.28522e-06
3.14445e-13
-9.71761e-05
-9.98237e-06
8.49467e-13
-1.58646e-05
1.34503e-12
-9.13496e-05
-0.000102929
1.98501e-05
1.79591e-12
-0.000106049
1.36316e-05
1.57098e-12
-0.000107853
8.96796e-06
1.29797e-12
-0.000108865
5.75449e-06
9.43644e-13
-0.000109431
3.67639e-06
6.25697e-13
-0.000109757
2.41205e-06
5.11019e-13
-0.000109962
1.70738e-06
5.27308e-13
-0.000110112
1.38423e-06
3.93442e-13
-0.000110247
1.32286e-06
6.62321e-14
-0.000110391
1.43894e-06
-1.47261e-13
-0.000110556
1.66098e-06
-1.74002e-13
-0.000110749
1.90872e-06
-1.43649e-13
-0.000110959
2.0712e-06
-1.85129e-13
-0.000111154
1.9841e-06
-3.2115e-13
-0.000111257
1.40781e-06
-4.76208e-13
-0.000111109
6.34703e-09
-3.5511e-13
-0.000110435
-2.62461e-06
-1.0021e-13
-0.000108777
-6.94243e-06
2.3476e-13
-0.000105483
-1.32753e-05
4.81791e-13
-2.15623e-05
6.49245e-13
-9.97844e-05
-0.000107699
2.39608e-05
1.43038e-12
-0.000109577
1.55076e-05
1.12528e-12
-0.000110273
9.66283e-06
9.19718e-13
-0.000110435
5.91579e-06
6.2536e-13
-0.000110394
3.63447e-06
3.36532e-13
-0.000110293
2.31125e-06
2.96101e-13
-0.000110185
1.59942e-06
4.52084e-13
-0.000110082
1.28122e-06
5.1492e-13
-0.000109983
1.22326e-06
2.92198e-13
-0.000109883
1.33945e-06
-2.85022e-14
-0.000109785
1.56221e-06
-2.3762e-13
-0.000109694
1.81798e-06
-3.27256e-13
-0.000109626
2.00303e-06
-4.22207e-13
-0.000109598
1.9561e-06
-4.52783e-13
-0.000109616
1.42576e-06
-2.67803e-13
-0.000109638
2.88117e-08
2.24295e-14
-0.0001095
-2.76274e-06
2.52362e-13
-0.000108803
-7.63922e-06
1.72801e-13
-0.00010677
-1.53068e-05
-3.64794e-14
-2.61411e-05
-5.46186e-14
-0.000102188
-0.000105301
2.60609e-05
1.31088e-12
-0.000105114
1.53173e-05
1.02429e-12
-0.000104232
8.7791e-06
8.32397e-13
-0.000103331
5.01366e-06
5.09558e-13
-0.00010261
2.91293e-06
3.28211e-14
-0.000102075
1.77607e-06
-1.29809e-13
-0.000101672
1.19654e-06
1.41973e-13
-0.000101341
9.50367e-07
4.18016e-13
-0.000101033
9.15203e-07
3.43032e-13
-0.000100714
1.02043e-06
4.17573e-14
-0.000100368
1.2161e-06
-3.09214e-13
-0.0001
1.45022e-06
-6.10985e-13
-9.96444e-05
1.64708e-06
-6.77793e-13
-9.93689e-05
1.68048e-06
-5.16668e-13
-9.92781e-05
1.33479e-06
-2.82823e-13
-9.94932e-05
2.43859e-07
-2.82646e-13
-0.000100066
-2.18966e-06
-6.95559e-13
-0.000100815
-6.88972e-06
-1.4272e-12
-0.000100973
-1.51457e-05
-1.70218e-12
-2.83993e-05
-1.31408e-12
-9.87061e-05
-9.44053e-05
2.47161e-05
1.24418e-12
-9.13771e-05
1.22852e-05
1.09762e-12
-8.87448e-05
6.14609e-06
1.05605e-12
-8.68818e-05
3.15034e-06
9.07817e-13
-8.56537e-05
1.68482e-06
4.29148e-13
-8.48481e-05
9.70693e-07
4.83219e-14
-8.42875e-05
6.36079e-07
1.99327e-13
-8.38442e-05
5.07173e-07
4.20964e-13
-8.34311e-05
5.02141e-07
3.61586e-13
-8.29909e-05
5.8031e-07
6.76789e-14
-8.24917e-05
7.1701e-07
-2.53516e-13
-8.19298e-05
8.88337e-07
-4.62196e-13
-8.13402e-05
1.05754e-06
-4.0233e-13
-8.08163e-05
1.15658e-06
-2.52124e-13
-8.05353e-05
1.05363e-06
-4.09161e-13
-8.07794e-05
4.87898e-07
-1.08075e-12
-8.19035e-05
-1.06545e-06
-2.19979e-12
-8.41984e-05
-4.59527e-06
-3.02569e-12
-8.73356e-05
-1.20053e-05
-2.9895e-12
-2.67517e-05
-2.47127e-12
-8.89694e-05
-7.22038e-05
1.74682e-05
7.58304e-13
-6.61585e-05
6.24529e-06
8.62065e-13
-6.24353e-05
2.42887e-06
7.30933e-13
-6.02999e-05
1.01751e-06
4.9078e-13
-5.90796e-05
4.65812e-07
3.98374e-13
-5.83528e-05
2.4462e-07
3.8928e-13
-5.78741e-05
1.57892e-07
5.085e-13
-5.74997e-05
1.33134e-07
5.134e-13
-5.71409e-05
1.43639e-07
2.41961e-13
-5.67396e-05
1.79429e-07
-9.36624e-14
-5.62585e-05
2.36392e-07
-2.74813e-13
-5.5681e-05
3.11373e-07
-1.90399e-13
-5.50213e-05
3.98439e-07
2.73785e-14
-5.43472e-05
4.8306e-07
2.23423e-14
-5.3822e-05
5.28785e-07
-6.037e-13
-5.3782e-05
4.4779e-07
-1.6368e-12
-5.47894e-05
-5.97861e-08
-2.6606e-12
-5.78298e-05
-1.5622e-06
-3.12439e-12
-6.39232e-05
-5.92178e-06
-3.07275e-12
-1.86118e-05
-3.30072e-12
-7.2048e-05
-3.287e-05
8.59588e-13
-2.66359e-05
5.82823e-13
-2.42078e-05
5.65311e-13
-2.31921e-05
4.18748e-13
-2.27274e-05
1.94919e-13
-2.24834e-05
2.86341e-13
-2.23258e-05
4.20437e-13
-2.21928e-05
3.05506e-13
-2.20494e-05
-2.49111e-15
-2.18702e-05
-1.97215e-13
-2.1634e-05
-1.72451e-13
-2.1323e-05
-1.83196e-14
-2.09249e-05
4.37278e-14
-2.04423e-05
-1.93598e-13
-1.99138e-05
-9.11296e-13
-1.94657e-05
-1.82067e-12
-1.95247e-05
-2.41206e-12
-2.10893e-05
-2.54919e-12
-2.7006e-05
-3.80508e-12
-5.96528e-12
-4.55334e-05
-1.92504e-05
1.3833e-06
-2.08003e-09
-2.02622e-05
1.01324e-06
-1.4489e-09
-2.09663e-05
7.05049e-07
-9.54032e-10
-2.14381e-05
4.72433e-07
-5.97895e-10
-2.17491e-05
3.11335e-07
-3.63191e-10
-2.19584e-05
2.09576e-07
-2.22381e-10
-2.2112e-05
1.53777e-07
-1.49195e-10
-2.22447e-05
1.32741e-07
-1.23818e-10
-2.23827e-05
1.38169e-07
-1.32946e-10
-2.25464e-05
1.63855e-07
-1.68442e-10
-2.27503e-05
2.04143e-07
-2.24636e-10
-2.3002e-05
2.51989e-07
-2.95625e-10
-2.32985e-05
2.96845e-07
-3.72456e-10
-2.36206e-05
3.22591e-07
-4.39981e-10
-2.39262e-05
3.06072e-07
-4.73227e-10
-2.41431e-05
2.17307e-07
-4.32905e-10
-2.41656e-05
2.27826e-08
-2.65955e-10
-2.3859e-05
-3.0671e-07
6.76415e-11
-2.30784e-05
-7.8121e-07
6.51627e-10
-1.37653e-06
1.52635e-09
-2.17034e-05
-4.99929e-05
4.78618e-06
1.88478e-09
-5.25048e-05
3.5236e-06
1.57047e-09
-5.42742e-05
2.47317e-06
1.23805e-09
-5.54802e-05
1.67752e-06
9.41501e-10
-5.62912e-05
1.12159e-06
6.99624e-10
-5.68466e-05
7.64447e-07
5.21416e-10
-5.72544e-05
5.61233e-07
4.06065e-10
-5.75957e-05
4.73661e-07
3.45944e-10
-5.79301e-05
4.72203e-07
3.3061e-10