/*--------------------------------*- C++ -*----------------------------------*\
| =========                 |                                                 |
| \\      /  F ield         | OpenFOAM: The Open Source CFD Toolbox           |
|  \\    /   O peration     | Version:  2.4.0                                 |
|   \\  /    A nd           | Web:      www.OpenFOAM.org                      |
|    \\/     M anipulation  |                                                 |
\*---------------------------------------------------------------------------*/
FoamFile
{
    version     2.0;
    format      ascii;
    class       volVectorField;
    location    "1.9";
    object      U;
}
// * * * * * * * * * * * * * * * * * * * * * * * * * * * * * * * * * * * * * //

dimensions      [0 1 -1 0 0 0 0];

internalField   nonuniform List<vector> 
4800
(
(0.000288294 -0.000291453 3.1449e-07)
(-2.2239e-05 0.000168702 0.000211772)
(-0.0018661 0.000661804 0.000427277)
(-0.0047979 0.000992153 0.000581603)
(-0.00843319 0.00117807 0.000632295)
(-0.0124416 0.00125686 0.000559819)
(-0.0165494 0.00125519 0.000358394)
(-0.0205264 0.00118642 2.89283e-05)
(-0.0241696 0.00105776 -0.000422197)
(-0.027308 0.000881098 -0.000981832)
(-0.000193052 2.21358e-05 -0.000210164)
(-0.00246622 0.00238216 5.42987e-06)
(-0.00792412 0.0046581 0.000164209)
(-0.0155871 0.00628819 0.000252707)
(-0.0247323 0.00727568 0.000253539)
(-0.0347044 0.00771356 0.000151294)
(-0.0448863 0.007686 -6.03011e-05)
(-0.0547185 0.00725103 -0.000383124)
(-0.0637009 0.00646249 -0.000815299)
(-0.0714223 0.00540758 -0.00134977)
(-0.000768215 0.00198686 -0.000430202)
(-0.00509207 0.00795063 -0.00014673)
(-0.0139057 0.0132133 1.27073e-05)
(-0.0255679 0.017042 8.03632e-05)
(-0.0391091 0.0194127 6.43958e-05)
(-0.0536915 0.0204572 -4.39443e-05)
(-0.0684803 0.0203147 -0.000248691)
(-0.0826828 0.0191032 -0.000553126)
(-0.0955683 0.016965 -0.000959612)
(-0.106522 0.0141423 -0.00146699)
(-0.00122207 0.00531091 -0.000573694)
(-0.00725385 0.0161951 -0.000207947)
(-0.0188725 0.0251346 -2.58047e-05)
(-0.033767 0.0315578 4.36674e-05)
(-0.0507431 0.0355182 2.95467e-05)
(-0.0688383 0.037205 -7.12577e-05)
(-0.0870709 0.0367975 -0.000261181)
(-0.104475 0.0344577 -0.000545961)
(-0.120116 0.0304172 -0.000933865)
(-0.133163 0.0251135 -0.00143193)
(-0.0015284 0.00966521 -0.000569535)
(-0.00877876 0.0265149 -0.000132736)
(-0.0224363 0.0396363 7.33849e-05)
(-0.0396615 0.0488898 0.00015441)
(-0.0590801 0.0545273 0.000154451)
(-0.0796437 0.0568278 7.36969e-05)
(-0.100272 0.0559954 -9.11119e-05)
(-0.119865 0.052198 -0.000350902)
(-0.137294 0.0457192 -0.000723481)
(-0.151437 0.0371908 -0.00123062)
(-0.00168491 0.0146703 -0.000371589)
(-0.00959639 0.0381967 0.000118006)
(-0.0243889 0.0558548 0.000343782)
(-0.0429164 0.0680986 0.000443094)
(-0.0636969 0.0754677 0.000468863)
(-0.0856378 0.0783606 0.000421987)
(-0.10761 0.0769858 0.000295303)
(-0.128423 0.0714578 6.90033e-05)
(-0.146769 0.0620226 -0.000289612)
(-0.161115 0.0494197 -0.000831377)
(-0.0016941 0.0199222 4.17372e-05)
(-0.00968261 0.0504253 0.000563323)
(-0.0246319 0.0727759 0.00080147)
(-0.0433351 0.0880786 0.000923832)
(-0.0642838 0.0972049 0.00098649)
(-0.0863863 0.100692 0.000989111)
(-0.108519 0.0987324 0.000917798)
(-0.129475 0.0913103 0.000740138)
(-0.147849 0.0784749 0.000402873)
(-0.161558 0.0608064 -0.000203521)
(-0.0015638 0.0250187 0.000669938)
(-0.00905795 0.0623583 0.00120297)
(-0.0231793 0.0893215 0.00144512)
(-0.0408849 0.107622 0.00159396)
(-0.0607051 0.11846 0.00170422)
(-0.0815745 0.122526 0.00177386)
(-0.102415 0.119992 0.00178089)
(-0.1221 0.110647 0.00167833)
(-0.139349 0.0941338 0.00139152)
(-0.15149 0.0702719 0.000697996)
(-0.0013133 0.0295857 0.0014914)
(-0.0078083 0.0731927 0.00201806)
(-0.0202044 0.104426 0.00225581)
(-0.0357917 0.125476 0.00243249)
(-0.0531619 0.137825 0.00259852)
(-0.0712472 0.142322 0.00275142)
(-0.0889814 0.139171 0.00286198)
(-0.105329 0.128003 0.00286785)
(-0.119515 0.107998 0.002684)
(-0.128698 0.0773817 0.00188813)
(-0.000979565 0.033319 0.00246567)
(-0.00610852 0.0822548 0.0029734)
(-0.0160976 0.117153 0.00319867)
(-0.0286657 0.140462 0.00340094)
(-0.0424376 0.153834 0.00362532)
(-0.0562283 0.15824 0.00387391)
(-0.0687697 0.153965 0.00411963)
(-0.0787408 0.140612 0.00429666)
(-0.0858562 0.117197 0.00437443)
(-0.0890784 0.0809423 0.00374585)
(0.000293099 -0.000295931 1.99866e-07)
(-1.53497e-05 0.000162898 1.37958e-06)
(-0.00186247 0.000648074 1.99336e-06)
(-0.00479537 0.000972868 2.53474e-06)
(-0.00843177 0.00115577 2.85545e-06)
(-0.0124411 0.00123311 2.98546e-06)
(-0.0165496 0.00123142 2.98854e-06)
(-0.0205275 0.00116395 2.8642e-06)
(-0.0241718 0.00103766 2.59472e-06)
(-0.0273113 0.000863992 2.16351e-06)
(-0.000185901 1.49172e-05 -1.04242e-06)
(-0.00246333 0.00238015 3.27391e-07)
(-0.00793145 0.00464712 -1.14763e-06)
(-0.0155917 0.00627225 -1.81405e-06)
(-0.0247345 0.00725803 -2.14395e-06)
(-0.034705 0.00769513 -2.35043e-06)
(-0.0448853 0.00766773 -2.35524e-06)
(-0.0547164 0.00723392 -2.18948e-06)
(-0.0636988 0.00644738 -1.92051e-06)
(-0.071421 0.00539455 -1.65618e-06)
(-0.000752643 0.00198148 -1.88303e-06)
(-0.00508109 0.007957 1.72875e-06)
(-0.0139124 0.0132165 8.78212e-08)
(-0.02557 0.0170453 -6.34614e-08)
(-0.0391091 0.0194178 9.63531e-08)
(-0.0536913 0.0204634 9.05553e-08)
(-0.0684794 0.0203212 9.88843e-08)
(-0.0826816 0.01911 1.4082e-07)
(-0.095568 0.0169718 1.89356e-07)
(-0.106524 0.0141479 1.14591e-07)
(-0.00119984 0.0053063 -2.73765e-06)
(-0.00723797 0.0161989 2.40531e-06)
(-0.0188813 0.0251338 6.02506e-10)
(-0.0337687 0.0315553 -1.97606e-07)
(-0.0507421 0.0355162 8.10654e-08)
(-0.0688373 0.0372033 1.14563e-07)
(-0.0870695 0.0367963 1.45918e-07)
(-0.104473 0.0344575 2.23491e-07)
(-0.120116 0.0304191 3.69679e-07)
(-0.133167 0.0251156 3.22863e-07)
(-0.00150188 0.00966233 -3.33108e-06)
(-0.0087608 0.026517 2.80882e-06)
(-0.0224483 0.0396344 -3.08935e-07)
(-0.0396643 0.0488859 -6.74366e-07)
(-0.059079 0.0545229 -3.97088e-07)
(-0.0796424 0.0568234 -3.75008e-07)
(-0.10027 0.0559911 -3.30148e-07)
(-0.119861 0.0521949 -1.84071e-07)
(-0.137291 0.0457205 2.46238e-07)
(-0.151444 0.0371941 4.55793e-07)
(-0.00165606 0.0146695 -3.61634e-06)
(-0.00957748 0.0381979 3.09654e-06)
(-0.024403 0.0558538 -4.03738e-07)
(-0.0429203 0.0680962 -8.55936e-07)
(-0.0636961 0.0754647 -5.83574e-07)
(-0.0856368 0.0783571 -5.76707e-07)
(-0.107607 0.0769818 -5.60707e-07)
(-0.128416 0.0714543 -4.45445e-07)
(-0.146762 0.062027 4.1354e-07)
(-0.161129 0.0494312 1.24203e-06)
(-0.00166502 0.0199234 -3.61669e-06)
(-0.00966398 0.0504254 3.16703e-06)
(-0.024647 0.0727757 -4.31163e-07)
(-0.0433397 0.0880777 -9.35544e-07)
(-0.0642837 0.0972032 -7.05384e-07)
(-0.086386 0.100689 -7.31346e-07)
(-0.108516 0.0987287 -8.10697e-07)
(-0.129463 0.0913055 -9.76623e-07)
(-0.147832 0.0784852 5.39545e-07)
(-0.161587 0.0608435 3.12954e-06)
(-0.00153654 0.0250219 -3.33008e-06)
(-0.00904082 0.0623575 3.03341e-06)
(-0.0231943 0.0893221 -3.92975e-07)
(-0.04089 0.107623 -9.10221e-07)
(-0.0607058 0.11846 -7.40616e-07)
(-0.0815753 0.122525 -7.55021e-07)
(-0.102415 0.119987 -8.55224e-07)
(-0.122078 0.110632 -1.52504e-06)
(-0.139298 0.0941294 1.56456e-06)
(-0.151536 0.0703308 1.09215e-05)
(-0.0012896 0.0295905 -2.77799e-06)
(-0.00779362 0.0731915 2.745e-06)
(-0.020218 0.104428 -2.71453e-07)
(-0.0357971 0.12548 -7.65623e-07)
(-0.0531639 0.137828 -7.07718e-07)
(-0.0712516 0.142324 -7.81079e-07)
(-0.0889921 0.139167 -1.06523e-06)
(-0.105312 0.12797 -3.68775e-06)
(-0.119413 0.107924 -1.0556e-06)
(-0.128745 0.0773508 2.45168e-05)
(-0.00096057 0.0333247 -2.02151e-06)
(-0.00609665 0.0822534 2.37067e-06)
(-0.0161083 0.117156 -4.2001e-08)
(-0.0286696 0.140469 -4.36013e-07)
(-0.0424391 0.153845 -4.75818e-07)
(-0.0562352 0.158262 -7.27211e-07)
(-0.0688023 0.154007 -1.57164e-06)
(-0.0787813 0.140675 -9.32319e-06)
(-0.0857702 0.117258 -2.16491e-05)
(-0.0891559 0.0810568 7.08657e-06)
(0.00029309 -0.000295939 -1.08352e-08)
(-1.53635e-05 0.000162898 -1.3039e-06)
(-0.00186248 0.000648075 -1.9636e-06)
(-0.00479537 0.000972868 -2.52141e-06)
(-0.00843176 0.00115577 -2.84883e-06)
(-0.0124411 0.00123311 -2.98019e-06)
(-0.0165495 0.00123142 -2.98381e-06)
(-0.0205274 0.00116395 -2.86142e-06)
(-0.0241718 0.00103766 -2.5927e-06)
(-0.0273113 0.000863992 -2.16106e-06)
(-0.000185901 1.49048e-05 1.11828e-06)
(-0.00246333 0.00238015 -2.83013e-07)
(-0.00793144 0.00464712 1.16926e-06)
(-0.0155917 0.00627225 1.82557e-06)
(-0.0247345 0.00725802 2.15088e-06)
(-0.034705 0.00769513 2.35623e-06)
(-0.0448852 0.00766772 2.36031e-06)
(-0.0547164 0.00723392 2.19291e-06)
(-0.0636988 0.00644738 1.9234e-06)
(-0.0714209 0.00539454 1.6594e-06)
(-0.00075264 0.00198147 1.91525e-06)
(-0.00508108 0.00795699 -1.70436e-06)
(-0.0139124 0.0132165 -7.27874e-08)
(-0.0255699 0.0170453 7.37055e-08)
(-0.0391091 0.0194178 -8.91141e-08)
(-0.0536912 0.0204634 -8.36767e-08)
(-0.0684793 0.0203212 -9.23088e-08)
(-0.0826815 0.0191099 -1.35877e-07)
(-0.0955679 0.0169718 -1.8522e-07)
(-0.106524 0.0141479 -1.10356e-07)
(-0.00119984 0.0053063 2.75538e-06)
(-0.00723795 0.0161989 -2.38997e-06)
(-0.0188812 0.0251338 1.0616e-08)
(-0.0337687 0.0315553 2.06851e-07)
(-0.050742 0.0355162 -7.38082e-08)
(-0.0688372 0.0372033 -1.07178e-07)
(-0.0870694 0.0367963 -1.38598e-07)
(-0.104472 0.0344575 -2.17803e-07)
(-0.120116 0.030419 -3.64958e-07)
(-0.133167 0.0251156 -3.18156e-07)
(-0.00150188 0.00966232 3.3445e-06)
(-0.00876078 0.026517 -2.79629e-06)
(-0.0224482 0.0396344 3.19413e-07)
(-0.0396642 0.0488858 6.84051e-07)
(-0.059079 0.0545229 4.05296e-07)
(-0.0796423 0.0568233 3.83492e-07)
(-0.10027 0.055991 3.38494e-07)
(-0.119861 0.0521949 1.90675e-07)
(-0.137291 0.0457205 -2.40917e-07)
(-0.151444 0.0371941 -4.50927e-07)
(-0.00165606 0.0146695 3.62794e-06)
(-0.00957746 0.0381979 -3.08508e-06)
(-0.024403 0.0558537 4.13525e-07)
(-0.0429202 0.0680962 8.6528e-07)
(-0.0636961 0.0754646 5.91831e-07)
(-0.0856367 0.078357 5.85304e-07)
(-0.107607 0.0769817 5.69049e-07)
(-0.128416 0.0714543 4.51977e-07)
(-0.146762 0.0620269 -4.08498e-07)
(-0.161129 0.0494311 -1.23776e-06)
(-0.00166502 0.0199234 3.62753e-06)
(-0.00966397 0.0504253 -3.15605e-06)
(-0.024647 0.0727756 4.40478e-07)
(-0.0433397 0.0880777 9.4468e-07)
(-0.0642837 0.0972031 7.13926e-07)
(-0.0863859 0.100689 7.40086e-07)
(-0.108516 0.0987286 8.18749e-07)
(-0.129462 0.0913055 9.82702e-07)
(-0.147832 0.0784852 -5.34923e-07)
(-0.161587 0.0608435 -3.12562e-06)
(-0.00153654 0.0250218 3.34108e-06)
(-0.0090408 0.0623574 -3.02246e-06)
(-0.0231942 0.0893221 4.02603e-07)
(-0.04089 0.107622 9.20065e-07)
(-0.0607057 0.11846 7.50205e-07)
(-0.0815753 0.122524 7.64281e-07)
(-0.102414 0.119987 8.62974e-07)
(-0.122077 0.110632 1.53059e-06)
(-0.139298 0.0941294 -1.56035e-06)
(-0.151536 0.0703308 -1.09177e-05)
(-0.00128959 0.0295905 2.78814e-06)
(-0.0077936 0.0731914 -2.73492e-06)
(-0.020218 0.104428 2.80829e-07)
(-0.035797 0.125479 7.75577e-07)
(-0.0531639 0.137828 7.17566e-07)
(-0.0712516 0.142324 7.89961e-07)
(-0.0889921 0.139167 1.07195e-06)
(-0.105312 0.12797 3.69257e-06)
(-0.119413 0.107924 1.0598e-06)
(-0.128745 0.0773508 -2.45132e-05)
(-0.000960567 0.0333246 2.02995e-06)
(-0.00609664 0.0822533 -2.36201e-06)
(-0.0161082 0.117156 5.05672e-08)
(-0.0286696 0.140469 4.45246e-07)
(-0.042439 0.153845 4.84872e-07)
(-0.0562352 0.158262 7.34843e-07)
(-0.0688022 0.154007 1.57719e-06)
(-0.0787813 0.140675 9.32775e-06)
(-0.0857702 0.117258 2.16539e-05)
(-0.0891559 0.0810568 -7.08274e-06)
(0.000288249 -0.000291496 -5.13215e-07)
(-2.23028e-05 0.000168702 -0.000211852)
(-0.00186611 0.000661805 -0.000427309)
(-0.00479789 0.000992152 -0.000581617)
(-0.00843317 0.00117807 -0.000632302)
(-0.0124415 0.00125686 -0.000559825)
(-0.0165493 0.00125519 -0.000358399)
(-0.0205263 0.00118641 -2.89312e-05)
(-0.0241696 0.00105776 0.000422195)
(-0.027308 0.000881098 0.000981829)
(-0.00019305 2.2075e-05 0.000210084)
(-0.00246621 0.00238215 -5.47678e-06)
(-0.00792409 0.00465809 -0.000164231)
(-0.0155871 0.00628818 -0.000252719)
(-0.0247322 0.00727567 -0.000253547)
(-0.0347043 0.00771355 -0.0001513)
(-0.0448861 0.00768599 6.02957e-05)
(-0.0547183 0.00725102 0.00038312)
(-0.0637007 0.00646248 0.000815296)
(-0.0714221 0.00540757 0.00134977)
(-0.000768208 0.00198685 0.000430168)
(-0.00509204 0.00795062 0.000146704)
(-0.0139057 0.0132133 -1.27232e-05)
(-0.0255678 0.017042 -8.0374e-05)
(-0.039109 0.0194126 -6.44035e-05)
(-0.0536914 0.0204572 4.3937e-05)
(-0.0684801 0.0203146 0.000248684)
(-0.0826826 0.0191032 0.000553121)
(-0.0955681 0.016965 0.000959608)
(-0.106522 0.0141423 0.00146698)
(-0.00122206 0.0053109 0.000573675)
(-0.00725382 0.016195 0.00020793)
(-0.0188725 0.0251346 2.57928e-05)
(-0.0337669 0.0315577 -4.36772e-05)
(-0.050743 0.0355182 -2.95544e-05)
(-0.0688381 0.0372049 7.12499e-05)
(-0.0870707 0.0367974 0.000261173)
(-0.104474 0.0344577 0.000545955)
(-0.120116 0.0304172 0.00093386)
(-0.133162 0.0251135 0.00143193)
(-0.00152839 0.00966519 0.00056952)
(-0.00877872 0.0265148 0.000132723)
(-0.0224362 0.0396363 -7.3396e-05)
(-0.0396613 0.0488897 -0.00015442)
(-0.0590799 0.0545272 -0.00015446)
(-0.0796434 0.0568277 -7.37059e-05)
(-0.100272 0.0559953 9.1103e-05)
(-0.119865 0.0521979 0.000350895)
(-0.137294 0.0457191 0.000723475)
(-0.151436 0.0371908 0.00123062)
(-0.0016849 0.0146703 0.000371576)
(-0.00959635 0.0381966 -0.000118018)
(-0.0243888 0.0558547 -0.000343792)
(-0.0429163 0.0680985 -0.000443104)
(-0.0636967 0.0754676 -0.000468872)
(-0.0856376 0.0783605 -0.000421996)
(-0.10761 0.0769857 -0.000295312)
(-0.128423 0.0714577 -6.90102e-05)
(-0.146769 0.0620225 0.000289606)
(-0.161115 0.0494196 0.000831372)
(-0.00169409 0.0199222 -4.17486e-05)
(-0.00968256 0.0504252 -0.000563335)
(-0.0246318 0.0727758 -0.00080148)
(-0.0433349 0.0880785 -0.000923841)
(-0.0642836 0.0972047 -0.0009865)
(-0.0863861 0.100692 -0.00098912)
(-0.108518 0.0987322 -0.000917807)
(-0.129475 0.0913102 -0.000740145)
(-0.147849 0.0784749 -0.000402878)
(-0.161558 0.0608064 0.000203517)
(-0.00156379 0.0250187 -0.00066995)
(-0.0090579 0.0623582 -0.00120298)
(-0.0231792 0.0893213 -0.00144513)
(-0.0408848 0.107621 -0.00159397)
(-0.060705 0.11846 -0.00170423)
(-0.0815743 0.122526 -0.00177387)
(-0.102415 0.119992 -0.0017809)
(-0.1221 0.110647 -0.00167834)
(-0.139349 0.0941338 -0.00139152)
(-0.15149 0.0702718 -0.000698)
(-0.00131329 0.0295857 -0.00149141)
(-0.00780827 0.0731925 -0.00201807)
(-0.0202043 0.104426 -0.00225582)
(-0.0357916 0.125476 -0.0024325)
(-0.0531618 0.137825 -0.00259853)
(-0.0712471 0.142322 -0.00275143)
(-0.0889813 0.139171 -0.00286198)
(-0.105329 0.128003 -0.00286785)
(-0.119515 0.107998 -0.002684)
(-0.128698 0.0773817 -0.00188813)
(-0.000979558 0.0333189 -0.00246568)
(-0.00610849 0.0822546 -0.00297341)
(-0.0160975 0.117152 -0.00319868)
(-0.0286656 0.140462 -0.00340095)
(-0.0424375 0.153833 -0.00362533)
(-0.0562282 0.15824 -0.00387392)
(-0.0687696 0.153965 -0.00411963)
(-0.0787407 0.140612 -0.00429666)
(-0.0858562 0.117197 -0.00437444)
(-0.0890784 0.0809423 -0.00374585)
(-0.029833 0.00068134 -0.00162926)
(-0.0317318 0.000491826 -0.00233923)
(-0.0330797 0.00033484 -0.00308908)
(-0.0339942 0.000217888 -0.00386183)
(-0.0345972 0.000138592 -0.00464629)
(-0.0349948 9.01965e-05 -0.00543597)
(-0.0352709 6.55058e-05 -0.00622783)
(-0.0354892 5.87823e-05 -0.00702115)
(-0.0356976 6.61196e-05 -0.00781696)
(-0.0359331 8.49675e-05 -0.00861777)
(-0.0362238 0.000113225 -0.00942764)
(-0.0365881 0.000148085 -0.0102523)
(-0.0370313 0.000184723 -0.011099)
(-0.0375378 0.000214918 -0.0119768)
(-0.0380608 0.000225892 -0.0128951)
(-0.0385103 0.000200021 -0.0138624)
(-0.0387436 0.000116523 -0.0148838)
(-0.0385642 -4.41709e-05 -0.0159565)
(-0.0377389 -0.000292567 -0.0170655)
(-0.0360411 -0.000617716 -0.0181802)
(-0.0776331 0.00423408 -0.00197252)
(-0.0823203 0.00312171 -0.00266366)
(-0.085677 0.00218989 -0.00340481)
(-0.0879878 0.00148122 -0.00418081)
(-0.0895412 0.000985767 -0.00498011)
(-0.0905867 0.000668888 -0.00579465)
(-0.0913213 0.000491404 -0.00661943)
(-0.091894 0.000419716 -0.00745188)
(-0.0924152 0.000428189 -0.00829144)
(-0.0929658 0.000497053 -0.00913929)
(-0.0936014 0.000607986 -0.00999819)
(-0.0943511 0.000738524 -0.0108724)
(-0.0952089 0.000855988 -0.0117674)
(-0.0961194 0.000911723 -0.0126897)
(-0.0969572 0.000837275 -0.0136458)
(-0.0975059 0.00054556 -0.014641)
(-0.097443 -5.84529e-05 -0.0156772)
(-0.0963448 -0.00105454 -0.0167499)
(-0.0937246 -0.00246824 -0.0178456)
(-0.0891243 -0.0042226 -0.018938)
(-0.115175 0.0110351 -0.0020655)
(-0.121556 0.00812194 -0.00273482)
(-0.126024 0.0057034 -0.00345752)
(-0.129042 0.00387361 -0.0042191)
(-0.131041 0.00259475 -0.00500787)
(-0.13237 0.00177103 -0.00581526)
(-0.133294 0.00129858 -0.00663554)
(-0.134002 0.00108889 -0.00746535)
(-0.13463 0.0010734 -0.00830327)
(-0.135273 0.00119771 -0.0091496)
(-0.135992 0.00141079 -0.0100061)
(-0.136815 0.00165193 -0.0108757)
(-0.137727 0.00183688 -0.0117625)
(-0.13865 0.00184537 -0.0126716)
(-0.139423 0.00151339 -0.013608)
(-0.139771 0.000637408 -0.0145763)
(-0.13928 -0.000999541 -0.0155789)
(-0.137402 -0.00357491 -0.016614)
(-0.133482 -0.00713386 -0.0176721)
(-0.126877 -0.0114799 -0.0187335)
(-0.143095 0.0193187 -0.00203394)
(-0.150039 0.0139983 -0.00271001)
(-0.154637 0.00968912 -0.00343981)
(-0.157583 0.00650183 -0.00420793)
(-0.159443 0.00431406 -0.00500204)
(-0.160631 0.00292087 -0.00581344)
(-0.161427 0.00212189 -0.00663646)
(-0.162018 0.0017554 -0.00746769)
(-0.162529 0.00170025 -0.00830549)
(-0.163042 0.00186255 -0.00914961)
(-0.163609 0.00215623 -0.0100009)
(-0.164253 0.00248101 -0.0108614)
(-0.164959 0.0026997 -0.0117339)
(-0.165659 0.00261715 -0.0126222)
(-0.166209 0.00196564 -0.0135307)
(-0.166345 0.000407388 -0.0144648)
(-0.165653 -0.00242756 -0.0154294)
(-0.163528 -0.00686198 -0.0164281)
(-0.159183 -0.0130125 -0.0174598)
(-0.151728 -0.0205831 -0.0185145)
(-0.161508 0.0279012 -0.00187205)
(-0.167821 0.0196443 -0.00258892)
(-0.171515 0.0132261 -0.00335403)
(-0.173602 0.00865951 -0.00415059)
(-0.174762 0.00562646 -0.00496586)
(-0.175416 0.0037427 -0.0057921)
(-0.175808 0.00267788 -0.00662486)
(-0.176072 0.00218641 -0.00746169)
(-0.176289 0.00209543 -0.00830137)
(-0.176504 0.00227799 -0.00914352)
(-0.176748 0.0026227 -0.00998838)
(-0.177035 0.00300273 -0.0108367)
(-0.177365 0.00324409 -0.01169)
(-0.177711 0.00309446 -0.0125506)
(-0.177995 0.0021967 -0.0134223)
(-0.178043 7.77711e-05 -0.0143116)
(-0.177529 -0.00382455 -0.0152264)
(-0.175887 -0.0100532 -0.0161789)
(-0.172223 -0.0189261 -0.0171806)
(-0.165287 -0.0301745 -0.0182406)
(-0.170122 0.0356149 -0.00157372)
(-0.174459 0.0239406 -0.00237922)
(-0.176181 0.0154243 -0.00321262)
(-0.176691 0.00971207 -0.00405975)
(-0.176706 0.0061045 -0.00491001)
(-0.17656 0.0039517 -0.00575935)
(-0.176383 0.00276901 -0.00660663)
(-0.176213 0.00223145 -0.00745167)
(-0.176052 0.0021289 -0.00829444)
(-0.175894 0.00231869 -0.00913484)
(-0.175734 0.00268373 -0.00997252)
(-0.175578 0.0030942 -0.010807)
(-0.175444 0.0033693 -0.011638)
(-0.175362 0.00323601 -0.012466)
(-0.175361 0.00228546 -0.0132933)
(-0.175432 -6.74698e-05 -0.014126)
(-0.175446 -0.00459915 -0.014977)
(-0.175012 -0.0121832 -0.0158665)
(-0.173248 -0.0235741 -0.0168238)
(-0.168427 -0.0388495 -0.0178952)
(-0.168077 0.0410252 -0.00115841)
(-0.16884 0.0256073 -0.0021181)
(-0.167563 0.0154174 -0.00305255)
(-0.166001 0.00915657 -0.00396581)
(-0.164679 0.00548319 -0.00485683)
(-0.163688 0.00341686 -0.00573051)
(-0.162961 0.00233196 -0.00659195)
(-0.162395 0.00185741 -0.00744451)
(-0.161899 0.00177757 -0.00828987)
(-0.161407 0.00196042 -0.0091283)
(-0.160876 0.00230719 -0.00995883)
(-0.160298 0.00271249 -0.0107795)
(-0.1597 0.00302531 -0.0115879)
(-0.159161 0.00300288 -0.0123817)
(-0.158825 0.00225 -0.0131602)
(-0.158891 0.000137909 -0.0139273)
(-0.159537 -0.00428407 -0.0146985)
(-0.160772 -0.0123099 -0.0155016)
(-0.16205 -0.0254648 -0.0163872)
(-0.161206 -0.0448644 -0.0174708)
(-0.153441 0.0420327 -0.00068052)
(-0.148737 0.0230936 -0.00187424)
(-0.143808 0.0124775 -0.00293026)
(-0.140226 0.0067812 -0.00390955)
(-0.137834 0.00378411 -0.00483298)
(-0.136281 0.00223915 -0.00572198)
(-0.135244 0.0014824 -0.00659071)
(-0.134481 0.00117449 -0.00744637)
(-0.133822 0.00114296 -0.00829202)
(-0.133155 0.0012955 -0.00912792)
(-0.13241 0.00157172 -0.00995218)
(-0.131556 0.0019109 -0.0107611)
(-0.130611 0.00222209 -0.0115496)
(-0.129669 0.00234495 -0.0123118)
(-0.12894 0.0019865 -0.0130425)
(-0.128793 0.000609755 -0.0137407)
(-0.129749 -0.00274874 -0.0144211)
(-0.132455 -0.00970684 -0.0151149)
(-0.137366 -0.0228616 -0.0158884)
(-0.142607 -0.0457392 -0.0169653)
(-0.121872 0.0361836 -0.000420359)
(-0.110001 0.0155022 -0.00187145)
(-0.102116 0.006818 -0.0029701)
(-0.097737 0.00314332 -0.00395471)
(-0.0952591 0.00154526 -0.00486989)
(-0.0938161 0.000841877 -0.00574898)
(-0.0929197 0.000541055 -0.00661065)
(-0.0922788 0.000439342 -0.00746208)
(-0.0917187 0.000452832 -0.00830521)
(-0.0911278 0.00054584 -0.00913897)
(-0.0904317 0.000700556 -0.00995988)
(-0.0895849 0.000901519 -0.0107621)
(-0.0885794 0.0011228 -0.0115376)
(-0.087469 0.00130899 -0.0122758)
(-0.086422 0.00133607 -0.0129641)
(-0.085809 0.000922868 -0.0135924)
(-0.0862804 -0.000582103 -0.0141683)
(-0.0890829 -0.00473121 -0.0146982)
(-0.0965862 -0.0149602 -0.0152235)
(-0.109809 -0.0389965 -0.0161248)
(-0.062213 0.0222371 -0.0010523)
(-0.0463693 0.00638812 -0.00248395)
(-0.0399179 0.00193478 -0.00322916)
(-0.0376045 0.000613165 -0.00397374)
(-0.0366135 0.000205526 -0.00473609)
(-0.0361162 8.21266e-05 -0.00551212)
(-0.0358263 4.97332e-05 -0.00629922)
(-0.0356108 4.9414e-05 -0.00709213)
(-0.0354004 6.4885e-05 -0.00788589)
(-0.03515 9.30166e-05 -0.00867574)
(-0.0348237 0.000134675 -0.00945586)
(-0.0343896 0.000191839 -0.0102183)
(-0.0338215 0.000266058 -0.0109516)
(-0.0331065 0.000355267 -0.0116394)
(-0.0322654 0.000443689 -0.0122578)
(-0.0314027 0.000471012 -0.0127732)
(-0.0308429 0.00022112 -0.0131411)
(-0.0315104 -0.00112516 -0.0133254)
(-0.0369552 -0.0061988 -0.0132132)
(-0.0549463 -0.0247639 -0.0134192)
(-0.0298365 0.000667352 1.62223e-06)
(-0.0317348 0.00048101 1.13029e-06)
(-0.0330818 0.000326884 7.44418e-07)
(-0.0339955 0.00021224 4.66838e-07)
(-0.0345979 0.00013466 2.84038e-07)
(-0.0349951 8.74358e-05 1.74302e-07)
(-0.035271 6.34558e-05 1.1699e-07)
(-0.035489 5.7075e-05 9.6895e-08)
(-0.0356973 6.44704e-05 1.03797e-07)
(-0.0359327 8.31649e-05 1.31341e-07)
(-0.0362233 0.000111129 1.75095e-07)
(-0.0365875 0.000145643 2.30281e-07)
(-0.0370306 0.000181999 2.89978e-07)
(-0.0375371 0.000212147 3.42625e-07)
(-0.0380603 0.000223536 3.68838e-07)
(-0.0385102 0.00019881 3.37939e-07)
(-0.0387443 0.00011746 2.08481e-07)
(-0.0385661 -3.99483e-05 -5.08317e-08)
(-0.0377424 -0.000283865 -5.05098e-07)
(-0.0360463 -0.000603843 -1.18564e-06)
(-0.0776321 0.00422254 -1.46362e-06)
(-0.0823186 0.00311228 -1.21957e-06)
(-0.085675 0.00218272 -9.61525e-07)
(-0.0879858 0.001476 -7.31232e-07)
(-0.0895394 0.00098209 -5.4321e-07)
(-0.0905852 0.000666325 -4.04585e-07)
(-0.0913202 0.000489568 -3.15053e-07)
(-0.0918933 0.000418288 -2.68587e-07)
(-0.0924148 0.000426918 -2.56902e-07)
(-0.0929656 0.000495745 -2.7064e-07)
(-0.0936012 0.000606498 -2.98648e-07)
(-0.0943507 0.000736774 -3.26737e-07)
(-0.0952082 0.000853972 -3.35507e-07)
(-0.0961179 0.000909561 -2.98899e-07)
(-0.0969548 0.000835272 -1.85453e-07)
(-0.0975024 0.000544238 3.57789e-08)
(-0.0974386 -5.83409e-05 3.89996e-07)
(-0.0963398 -0.00105203 8.67667e-07)
(-0.0937203 -0.00246232 1.44018e-06)
(-0.0891217 -0.00421323 1.97696e-06)
(-0.115177 0.0110371 -1.83218e-07)
(-0.121556 0.00812237 -3.15636e-07)
(-0.126023 0.00570341 -3.43987e-07)
(-0.12904 0.00387353 -3.25804e-07)
(-0.131039 0.00259476 -2.77523e-07)
(-0.132369 0.00177118 -2.20715e-07)
(-0.133293 0.00129888 -1.69567e-07)
(-0.134001 0.00108935 -1.29384e-07)
(-0.134629 0.00107402 -1.00545e-07)
(-0.135272 0.00119849 -8.07465e-08)
(-0.135991 0.00141171 -6.64397e-08)
(-0.136815 0.00165291 -5.33951e-08)
(-0.137726 0.0018378 -3.67113e-08)
(-0.138649 0.00184604 -9.96671e-09)
(-0.139422 0.00151362 3.56047e-08)
(-0.139768 0.000636951 1.03879e-07)
(-0.139278 -0.001001 1.92552e-07)
(-0.137399 -0.00357731 2.96684e-07)
(-0.133481 -0.00713707 4.029e-07)
(-0.126879 -0.0114854 3.4217e-07)
(-0.1431 0.0193153 -2.83839e-07)
(-0.15004 0.0139945 -4.57717e-07)
(-0.154636 0.00968669 -4.52679e-07)
(-0.157581 0.0065005 -4.0187e-07)
(-0.159441 0.00431355 -3.19776e-07)
(-0.160629 0.00292088 -2.36531e-07)
(-0.161425 0.00212216 -1.67734e-07)
(-0.162017 0.00175579 -1.15685e-07)
(-0.162528 0.00170068 -7.88158e-08)
(-0.163041 0.00186299 -5.38106e-08)
(-0.163609 0.00215663 -3.71367e-08)
(-0.164252 0.0024813 -2.59524e-08)
(-0.164958 0.0026998 -1.80394e-08)
(-0.165658 0.00261698 -8.29985e-09)
(-0.166208 0.00196522 1.95151e-08)
(-0.166343 0.000406798 7.13391e-08)
(-0.16565 -0.00242824 1.1937e-07)
(-0.163525 -0.0068619 2.12474e-07)
(-0.159183 -0.0130101 3.96492e-07)
(-0.151734 -0.0205803 3.4842e-07)
(-0.161516 0.0278925 -7.75087e-07)
(-0.16782 0.0196369 -8.6508e-07)
(-0.171512 0.0132226 -6.96046e-07)
(-0.173599 0.00865821 -5.42961e-07)
(-0.174759 0.00562641 -3.81856e-07)
(-0.175414 0.00374323 -2.505e-07)
(-0.175806 0.00267856 -1.59752e-07)
(-0.176071 0.00218706 -1.01231e-07)
(-0.176288 0.00209598 -6.61232e-08)
(-0.176504 0.00227841 -4.73998e-08)
(-0.176747 0.002623 -3.99119e-08)
(-0.177034 0.00300286 -4.05204e-08)
(-0.177365 0.00324401 -4.77396e-08)
(-0.17771 0.0030941 -5.52525e-08)
(-0.177993 0.00219607 -3.37654e-08)
(-0.178041 7.71234e-05 3.51315e-08)
(-0.177525 -0.00382469 7.50856e-08)
(-0.175882 -0.0100511 2.1171e-07)
(-0.172219 -0.0189179 6.86943e-07)
(-0.165296 -0.0301622 9.68491e-07)
(-0.170137 0.0355972 -1.671e-06)
(-0.174454 0.0239287 -1.41248e-06)
(-0.176173 0.0154207 -8.75885e-07)
(-0.176685 0.00971182 -5.85179e-07)
(-0.176702 0.00610556 -3.43875e-07)
(-0.176557 0.00395307 -1.80861e-07)
(-0.176381 0.00277024 -8.92264e-08)
(-0.176212 0.00223242 -4.06952e-08)
(-0.176052 0.00212963 -1.71857e-08)
(-0.175893 0.00231925 -8.43377e-09)
(-0.175733 0.00268414 -9.09085e-09)
(-0.175577 0.00309447 -1.7262e-08)
(-0.175444 0.00336939 -3.29221e-08)
(-0.175362 0.00323581 -5.53075e-08)
(-0.17536 0.00228487 -6.80002e-08)
(-0.17543 -6.81166e-05 -2.9861e-08)
(-0.175442 -0.00459884 -9.60102e-09)
(-0.175001 -0.0121796 1.26162e-07)
(-0.173238 -0.0235585 1.1705e-06)
(-0.168442 -0.0388231 2.43831e-06)
(-0.168108 0.0410007 -4.46523e-06)
(-0.168825 0.0255993 -2.91859e-06)
(-0.167548 0.0154208 -1.33423e-06)
(-0.165993 0.00916069 -6.94695e-07)
(-0.164674 0.00548654 -2.94976e-07)
(-0.163685 0.00341933 -9.07454e-08)
(-0.162959 0.00233365 -1.05498e-08)
(-0.162394 0.00185859 1.60412e-08)
(-0.161899 0.00177849 1.94886e-08)
(-0.161406 0.00196122 1.20933e-08)
(-0.160876 0.00230797 -1.8513e-09)
(-0.160298 0.00271328 -2.17712e-08)
(-0.1597 0.00302603 -4.78908e-08)
(-0.159161 0.0030033 -8.38087e-08)
(-0.158825 0.00224983 -1.21477e-07)
(-0.158888 0.00013712 -8.47996e-08)
(-0.15953 -0.00428575 6.66052e-08)
(-0.160753 -0.0123124 3.63876e-07)
(-0.162025 -0.0254537 2.80408e-06)
(-0.161237 -0.0448301 6.69176e-06)
(-0.153499 0.0419921 -7.60109e-06)
(-0.148706 0.0231034 -3.04912e-06)
(-0.14379 0.0124985 -6.04186e-07)
(-0.140221 0.00679301 -2.33599e-07)
(-0.137832 0.00379009 2.83485e-08)
(-0.13628 0.00224237 1.21011e-07)
(-0.135244 0.00148422 1.14307e-07)
(-0.13448 0.00117572 9.4126e-08)
(-0.133822 0.00114407 7.80394e-08)
(-0.133155 0.00129675 6.63817e-08)
(-0.13241 0.00157326 5.63851e-08)
(-0.131556 0.00191278 4.37601e-08)
(-0.130611 0.00222421 2.21575e-08)
(-0.12967 0.00234692 -2.84188e-08)
(-0.128941 0.00198752 -1.07797e-07)
(-0.128793 0.000608346 -5.50745e-08)
(-0.129747 -0.00275699 7.01683e-08)
(-0.132435 -0.00972846 -3.4815e-07)
(-0.137322 -0.022874 2.49063e-06)
(-0.142665 -0.0456849 1.0723e-05)
(-0.121943 0.0359915 -9.52164e-06)
(-0.109934 0.0154446 4.2024e-06)
(-0.102104 0.00680747 4.66593e-06)
(-0.0977461 0.00313645 1.96874e-06)
(-0.0952642 0.00154018 1.00912e-06)
(-0.0938185 0.000838744 6.06744e-07)
(-0.0929209 0.000539022 3.75555e-07)
(-0.0922791 0.000437842 2.80182e-07)
(-0.0917184 0.000451542 2.6687e-07)
(-0.0911273 0.000544545 2.99507e-07)
(-0.090431 0.00069912 3.59741e-07)
(-0.0895844 0.000899896 4.31942e-07)
(-0.0885796 0.00112108 4.88451e-07)
(-0.0874705 0.00130753 4.56652e-07)
(-0.0864254 0.00133566 2.41214e-07)
(-0.0858173 0.000924479 -1.14555e-07)
(-0.0862984 -0.00057848 -1.2917e-06)
(-0.0890788 -0.00472393 -5.76348e-06)
(-0.0964991 -0.0148978 -7.72278e-06)
(-0.10986 -0.0387494 1.17261e-05)
(-0.0622532 0.0220957 -5.25237e-05)
(-0.0462139 0.00632152 -8.74271e-06)
(-0.0398744 0.00190808 -5.81753e-07)
(-0.0376004 0.000598145 -1.40778e-06)
(-0.0366106 0.000196838 -9.1001e-07)
(-0.0361142 7.72912e-05 -4.20497e-07)
(-0.0358254 4.6832e-05 -2.33896e-07)
(-0.0356105 4.73338e-05 -1.63065e-07)
(-0.0354003 6.30168e-05 -1.42691e-07)
(-0.0351501 9.09972e-05 -1.56278e-07)
(-0.0348239 0.000132283 -1.93547e-07)
(-0.0343899 0.000188986 -2.44785e-07)
(-0.0338218 0.000262872 -2.96147e-07)
(-0.0331064 0.000352313 -3.23298e-07)
(-0.0322642 0.00044228 -2.37123e-07)
(-0.0314016 0.000473337 2.0832e-07)
(-0.0308451 0.000230552 6.37186e-07)
(-0.0314699 -0.0011022 -1.87929e-06)
(-0.0367471 -0.00612735 3.91529e-06)
(-0.0549346 -0.0245763 6.57646e-05)
(-0.0298365 0.000667352 -1.61958e-06)
(-0.0317347 0.00048101 -1.12808e-06)
(-0.0330818 0.000326884 -7.42732e-07)
(-0.0339955 0.00021224 -4.65334e-07)
(-0.0345979 0.00013466 -2.82449e-07)
(-0.0349951 8.74357e-05 -1.72779e-07)
(-0.0352709 6.34556e-05 -1.15862e-07)
(-0.035489 5.70747e-05 -9.62485e-08)
(-0.0356973 6.44701e-05 -1.03507e-07)
(-0.0359327 8.31644e-05 -1.3118e-07)
(-0.0362232 0.000111128 -1.74984e-07)
(-0.0365875 0.000145642 -2.30368e-07)
(-0.0370306 0.000181998 -2.90254e-07)
(-0.0375371 0.000212146 -3.42824e-07)
(-0.0380602 0.000223535 -3.68571e-07)
(-0.0385102 0.00019881 -3.36903e-07)
(-0.0387443 0.000117459 -2.06601e-07)
(-0.038566 -3.99477e-05 5.34363e-08)
(-0.0377424 -0.000283864 5.08585e-07)
(-0.0360462 -0.00060384 1.19031e-06)
(-0.077632 0.00422254 1.46682e-06)
(-0.0823186 0.00311228 1.22221e-06)
(-0.0856749 0.00218272 9.63465e-07)
(-0.0879857 0.001476 7.32702e-07)