/*--------------------------------*- C++ -*----------------------------------*\
| =========                 |                                                 |
| \\      /  F ield         | OpenFOAM: The Open Source CFD Toolbox           |
|  \\    /   O peration     | Version:  2.4.0                                 |
|   \\  /    A nd           | Web:      www.OpenFOAM.org                      |
|    \\/     M anipulation  |                                                 |
\*---------------------------------------------------------------------------*/
FoamFile
{
    version     2.0;
    format      ascii;
    class       volScalarField;
    location    "0.0044";
    object      T;
}
// * * * * * * * * * * * * * * * * * * * * * * * * * * * * * * * * * * * * * //

dimensions      [0 0 0 1 0 0 0];

internalField   nonuniform List<scalar> 
4800
(
100.193
100.58
100.967
101.353
101.737
102.116
102.487
102.844
103.181
103.492
100.58
101.741
102.903
104.062
105.216
106.357
107.474
108.551
109.569
110.509
100.967
102.903
104.839
106.776
108.708
110.622
112.5
114.316
116.036
117.623
101.353
104.062
106.776
109.497
112.217
114.923
117.59
120.178
122.636
124.904
101.737
105.216
108.708
112.217
115.74
119.264
122.757
126.17
129.426
132.434
102.116
106.357
110.622
114.923
119.264
123.635
128.007
132.317
136.466
140.309
102.487
107.474
112.501
117.59
122.758
128.007
133.317
138.627
143.811
148.655
102.844
108.551
114.317
120.179
126.171
132.318
138.627
145.062
151.496
157.636
103.181
109.57
116.038
122.638
129.428
136.468
143.812
151.497
159.476
167.456
103.493
110.511
117.626
124.908
132.437
140.313
148.658
157.639
167.457
178.219
100.193
100.58
100.967
101.353
101.737
102.116
102.487
102.844
103.181
103.492
100.58
101.741
102.903
104.062
105.216
106.357
107.474
108.551
109.569
110.509
100.967
102.903
104.839
106.776
108.708
110.622
112.5
114.316
116.036
117.623
101.353
104.062
106.776
109.497
112.217
114.923
117.59
120.178
122.636
124.904
101.737
105.216
108.708
112.217
115.74
119.264
122.757
126.17
129.426
132.434
102.116
106.357
110.622
114.923
119.264
123.635
128.007
132.317
136.466
140.309
102.487
107.474
112.501
117.59
122.758
128.007
133.317
138.627
143.811
148.655
102.844
108.551
114.317
120.179
126.171
132.318
138.627
145.062
151.497
157.637
103.182
109.57
116.038
122.638
129.429
136.468
143.813
151.498
159.477
167.456
103.493
110.511
117.626
124.908
132.438
140.313
148.659
157.639
167.458
178.22
100.193
100.58
100.967
101.353
101.737
102.116
102.487
102.844
103.181
103.492
100.58
101.741
102.903
104.062
105.216
106.357
107.474
108.551
109.569
110.509
100.967
102.903
104.839
106.776
108.708
110.622
112.5
114.316
116.036
117.623
101.353
104.062
106.776
109.497
112.217
114.923
117.59
120.178
122.636
124.904
101.737
105.216
108.708
112.217
115.74
119.264
122.757
126.17
129.426
132.434
102.116
106.357
110.622
114.923
119.264
123.635
128.007
132.317
136.466
140.309
102.487
107.474
112.501
117.59
122.758
128.007
133.317
138.627
143.811
148.655
102.844
108.551
114.317
120.179
126.171
132.318
138.627
145.062
151.497
157.637
103.182
109.57
116.038
122.638
129.429
136.468
143.813
151.498
159.477
167.456
103.493
110.511
117.626
124.908
132.438
140.313
148.659
157.639
167.458
178.22
100.193
100.58
100.967
101.353
101.737
102.116
102.487
102.844
103.181
103.492
100.58
101.741
102.903
104.062
105.216
106.357
107.474
108.551
109.569
110.509
100.967
102.903
104.839
106.776
108.708
110.622
112.5
114.316
116.036
117.623
101.353
104.062
106.776
109.497
112.217
114.923
117.59
120.178
122.636
124.904
101.737
105.216
108.708
112.217
115.74
119.264
122.757
126.17
129.426
132.434
102.116
106.357
110.622
114.923
119.264
123.635
128.007
132.317
136.466
140.309
102.487
107.474
112.501
117.59
122.758
128.007
133.317
138.627
143.811
148.655
102.844
108.551
114.317
120.179
126.171
132.318
138.627
145.062
151.496
157.636
103.181
109.57
116.038
122.638
129.428
136.468
143.812
151.497
159.477
167.456
103.493
110.511
117.626
124.908
132.437
140.313
148.658
157.639
167.457
178.219
103.772
104.016
104.222
104.391
104.526
104.63
104.707
104.761
104.796
104.812
104.812
104.795
104.761
104.707
104.629
104.525
104.391
104.222
104.016
103.772
111.352
112.085
112.702
113.207
113.607
113.915
114.143
114.303
114.404
114.453
114.453
114.404
114.303
114.143
113.914
113.607
113.206
112.702
112.084
111.352
119.042
120.27
121.296
122.128
122.782
123.281
123.648
123.904
124.065
124.143
124.143
124.065
123.903
123.647
123.279
122.78
122.126
121.295
120.268
119.041
126.924
128.655
130.084
131.226
132.111
132.778
133.263
133.599
133.81
133.911
133.911
133.809
133.599
133.262
132.776
132.109
131.224
130.082
128.654
126.923
135.096
137.343
139.161
140.58
141.659
142.456
143.029
143.421
143.664
143.781
143.781
143.664
143.42
143.028
142.455
141.656
140.578
139.158
137.341
135.094
143.683
146.46
148.634
150.277
151.487
152.36
152.975
153.39
153.646
153.768
153.767
153.645
153.389
152.974
152.359
151.485
150.274
148.632
146.458
143.681
152.865
156.182
158.64
160.405
161.652
162.523
163.122
163.52
163.762
163.876
163.876
163.761
163.519
163.121
162.521
161.65
160.403
158.638
156.18
152.863
162.939
166.762
169.339
171.051
172.192
172.958
173.471
173.804
174.005
174.1
174.1
174.005
173.804
173.47
172.957
172.191
171.049
169.338
166.761
162.937
174.491
178.589
180.904
182.266
183.108
183.647
183.998
184.222
184.356
184.418
184.418
184.355
184.221
183.997
183.647
183.108
182.266
180.903
178.588
174.491
188.982
192.198
193.421
194.003
194.327
194.525
194.651
194.73
194.777
194.799
194.799
194.777
194.73
194.65
194.525
194.327
194.003
193.421
192.198
188.981
103.772
104.016
104.222
104.391
104.525
104.629
104.707
104.761
104.795
104.812
104.812
104.795
104.761
104.706
104.629
104.525
104.39
104.221
104.015
103.771
111.352
112.085
112.702
113.207
113.607
113.915
114.143
114.303
114.404
114.453
114.452
114.403
114.302
114.142
113.914
113.606
113.205
112.701
112.083
111.35
119.042
120.269
121.296
122.127
122.781
123.28
123.647
123.903
124.065
124.142
124.142
124.064
123.902
123.646
123.278
122.779
122.125
121.293
120.267
119.04
126.924
128.655
130.084
131.225
132.11
132.777
133.263
133.599
133.809
133.91
133.91
133.809
133.598
133.261
132.775
132.108
131.223
130.081
128.652
126.921
135.096
137.343
139.16
140.58
141.658
142.456
143.028
143.42
143.664
143.78
143.78
143.663
143.419
143.026
142.453
141.655
140.577
139.157
137.339
135.093
143.683
146.46
148.634
150.276
151.486
152.36
152.975
153.39
153.645
153.767
153.766
153.644
153.388
152.973
152.357
151.483
150.273
148.63
146.457
143.679
152.865
156.182
158.64
160.404
161.651
162.523
163.121
163.519
163.761
163.875
163.875
163.76
163.517
163.12
162.52
161.648
160.401
158.636
156.178
152.861
162.939
166.762
169.339
171.05
172.192
172.958
173.47
173.804
174.004
174.099
174.099
174.004
173.802
173.468
172.956
172.189
171.048
169.336
166.759
162.936
174.491
178.589
180.904
182.266
183.108
183.647
183.997
184.221
184.355
184.417
184.417
184.354
184.22
183.996
183.645
183.106
182.264
180.902
178.587
174.489
188.982
192.198
193.421
194.003
194.327
194.525
194.65
194.729
194.776
194.798
194.798
194.776
194.729
194.65
194.524
194.326
194.002
193.42
192.197
188.98
103.772
104.016
104.222
104.391
104.525
104.629
104.707
104.761
104.795
104.812
104.812
104.795
104.761
104.706
104.629
104.525
104.39
104.221
104.015
103.771
111.352
112.085
112.702
113.207
113.607
113.915
114.143
114.303
114.404
114.453
114.452
114.403
114.302
114.142
113.914
113.606
113.205
112.701
112.083
111.35
119.042
120.269
121.296
122.127
122.781
123.28
123.647
123.903
124.065
124.142
124.142
124.064
123.902
123.646
123.278
122.779
122.125
121.293
120.267
119.04
126.924
128.655
130.084
131.225
132.11
132.777
133.263
133.599
133.809
133.91
133.91
133.809
133.598
133.261
132.775
132.108
131.223
130.081
128.652
126.921
135.096
137.343
139.16
140.58
141.658
142.456
143.028
143.42
143.664
143.78
143.78
143.663
143.419
143.026
142.453
141.655
140.577
139.157
137.339
135.093
143.683
146.46
148.634
150.276
151.486
152.36
152.975
153.39
153.645
153.767
153.766
153.644
153.388
152.973
152.357
151.483
150.273
148.63
146.457
143.679
152.865
156.182
158.64
160.404
161.651
162.523
163.121
163.519
163.761
163.875
163.875
163.76
163.517
163.12
162.52
161.648
160.401
158.636
156.178
152.861
162.939
166.762
169.339
171.05
172.192
172.958
173.47
173.804
174.004
174.099
174.099
174.004
173.802
173.468
172.956
172.189
171.048
169.336
166.759
162.936
174.491
178.589
180.904
182.266
183.108
183.647
183.997
184.221
184.355
184.417
184.417
184.354
184.22
183.996
183.645
183.106
182.264
180.902
178.587
174.489
188.982
192.198
193.421
194.003
194.327
194.525
194.65
194.729
194.776
194.798
194.798
194.776
194.729
194.65
194.524
194.326
194.002
193.42
192.197
188.98
103.772
104.016
104.222
104.391
104.526
104.63
104.707
104.761
104.796
104.812
104.812
104.795
104.761
104.707
104.629
104.525
104.391
104.222
104.016
103.772
111.352
112.085
112.702
113.207
113.607
113.915
114.143
114.303
114.404
114.453
114.453
114.404
114.303
114.143
113.914
113.607
113.206
112.702
112.084
111.352
119.042
120.27
121.296
122.128
122.782
123.281
123.648
123.904
124.065
124.143
124.143
124.065
123.903
123.647
123.279
122.78
122.126
121.295
120.268
119.041
126.924
128.655
130.084
131.226
132.111
132.778
133.263
133.599
133.81
133.911
133.911
133.809
133.599
133.262
132.776
132.109
131.224
130.082
128.654
126.923
135.096
137.343
139.161
140.58
141.659
142.456
143.029
143.421
143.664
143.781
143.781
143.664
143.42
143.028
142.455
141.656
140.578
139.158
137.341
135.094
143.683
146.46
148.634
150.277
151.487
152.36
152.975
153.39
153.646
153.768
153.767
153.645
153.389
152.974
152.359
151.485
150.274
148.632
146.458
143.681
152.865
156.182
158.64
160.405
161.652
162.523
163.122
163.52
163.762
163.876
163.876
163.761
163.519
163.121
162.521
161.65
160.403
158.638
156.18
152.863
162.939
166.762
169.339
171.051
172.192
172.958
173.471
173.804
174.005
174.1
174.1
174.005
173.804
173.47
172.957
172.191
171.049
169.338
166.761
162.937
174.491
178.589
180.904
182.266
183.108
183.647
183.998
184.222
184.356
184.418
184.418
184.355
184.221
183.997
183.647
183.108
182.266
180.903
178.588
174.491
188.982
192.198
193.421
194.003
194.327
194.525
194.651
194.73
194.777
194.799
194.799
194.777
194.73
194.65
194.525
194.327
194.003
193.421
192.198
188.981
103.493
103.181
102.844
102.487
102.116
101.737
101.354
100.968
100.581
100.194
110.509
109.569
108.551
107.474
106.357
105.216
104.063
102.903
101.742
100.581
117.622
116.036
114.316
112.5
110.622
108.708
106.777
104.84
102.903
100.968
124.903
122.635
120.178
117.59
114.923
112.218
109.497
106.777
104.063
101.354
132.433
129.426
126.169
122.758
119.265
115.741
112.218
108.709
105.217
101.738
140.308
136.465
132.317
128.007
123.636
119.265
114.925
110.623
106.358
102.117
148.654
143.811
138.627
133.318
128.008
122.759
117.592
112.502
107.475
102.487
157.636
151.497
145.063
138.629
132.32
126.173
120.181
114.319
108.553
102.844
167.456
159.478
151.499
143.815
136.47
129.431
122.641
116.04
109.572
103.182
178.22
167.459
157.641
148.661
140.316
132.441
124.911
117.628
110.513
103.494
103.492
103.18
102.843
102.486
102.116
101.737
101.353
100.967
100.58
100.193
110.508
109.568
108.549
107.472
106.356
105.215
104.061
102.902
101.741
100.58
117.621
116.034
114.315
112.499
110.621
108.707
106.776
104.839
102.902
100.967
124.902
122.634
120.176
117.588
114.922
112.216
109.496
106.776
104.061
101.353
132.431
129.424
126.168
122.756
119.263
115.74
112.216
108.707
105.215
101.737
140.306
136.464
132.315
128.005
123.634
119.264
114.923
110.622
106.357
102.116
148.653
143.809
138.625
133.316
128.006
122.758
117.59
112.501
107.474
102.486
157.634
151.495
145.061
138.627
132.318
126.171
120.179
114.317
108.551
102.844
167.455
159.476
151.497
143.813
136.469
129.429
122.639
116.038
109.57
103.181
178.218
167.456
157.639
148.659
140.314
132.439
124.909
117.626
110.511
103.493
103.492
103.18
102.843
102.486
102.116
101.737
101.353
100.967
100.58
100.193
110.508
109.568
108.549
107.472
106.356
105.215
104.061
102.902
101.741
100.58
117.621
116.034
114.315
112.499
110.621
108.707
106.776
104.839
102.902
100.967
124.902
122.634
120.176
117.588
114.922
112.216
109.496
106.776
104.061
101.353
132.431
129.424
126.168
122.756
119.263
115.74
112.216
108.707
105.215
101.737
140.306
136.464
132.315
128.005
123.634
119.264
114.923
110.622
106.357
102.116
148.653
143.809
138.625
133.316
128.006
122.758
117.59
112.501
107.474
102.486
157.634
151.495
145.061
138.627
132.318
126.171
120.179
114.317
108.551
102.844
167.455
159.476
151.497
143.813
136.469
129.429
122.639
116.038
109.57
103.181
178.218
167.456
157.639
148.659
140.314
132.439
124.909
117.626
110.511
103.493
103.493
103.181
102.844
102.487
102.116
101.737
101.354
100.968
100.581
100.194
110.509
109.569
108.551
107.474
106.357
105.216
104.063
102.903
101.742
100.581
117.622
116.036
114.316
112.5
110.622
108.708
106.777
104.84
102.903
100.968
124.903
122.635
120.178
117.59
114.923
112.218
109.497
106.777
104.063
101.354
132.433
129.426
126.169
122.758
119.265
115.741
112.218
108.709
105.217
101.738
140.308
136.465
132.317
128.007
123.636
119.265
114.925
110.623
106.358
102.117
148.654
143.811
138.627
133.318
128.008
122.759
117.592
112.502
107.475
102.487
157.636
151.497
145.063
138.629
132.32
126.173
120.181
114.319
108.553
102.844
167.456
159.478
151.499
143.815
136.47
129.431
122.641
116.04
109.572
103.182
178.22
167.459
157.641
148.661
140.316
132.441
124.911
117.628
110.513
103.494
188.984
174.496
162.946
152.873
143.692
135.106
126.933
119.049
111.357
103.774
192.201
178.596
166.772
156.194
146.474
137.357
128.668
120.28
112.092
104.018
193.425
180.913
169.353
158.657
148.653
139.179
130.102
121.31
112.711
104.225
194.008
182.279
171.07
160.429
150.303
140.607
131.25
122.146
113.219
104.395
194.334
183.126
172.219
161.685
151.523
141.695
132.144
122.808
113.624
104.532
194.534
183.671
172.995
162.569
152.411
142.507
132.823
123.317
113.938
104.638
194.662
184.031
173.522
163.186
153.046
143.099
133.326
123.698
114.175
104.718
194.746
184.268
173.875
163.608
153.488
143.518
133.687
123.973
114.347
104.777
194.799
184.419
174.103
163.884
153.781
143.799
133.93
124.16
114.465
104.817
194.83
184.506
174.236
164.047
153.955
143.966
134.077
124.274
114.537
104.841
194.842
184.541
174.289
164.113
154.026
144.037
134.14
124.323
114.568
104.852
194.837
184.527
174.269
164.09
154.004
144.017
134.124
124.312
114.562
104.85
194.814
184.463
174.173
163.976
153.886
143.907
134.031
124.241
114.518
104.835
194.769
184.337
173.988
163.758
153.662
143.698
133.853
124.108
114.435
104.807
194.695
184.13
173.688
163.411
153.31
143.374
133.582
123.904
114.309
104.764
194.574
183.803
173.229
162.895
152.8
142.914
133.201
123.622
114.136
104.706
194.371
183.282
172.534
162.15
152.088
142.29
132.695
123.252
113.911
104.631
193.997
182.428
171.486
161.093
151.125
141.472
132.048
122.786
113.631
104.537
193.189
180.954
169.9
159.626
149.862
140.44
131.251
122.221
113.294
104.425
190.997
178.314
167.55
157.668
148.277
139.193
130.311
121.565
112.907
104.297
188.983
174.494
162.943
152.871
143.69
135.104
126.931
119.048
111.355
103.773
192.199
178.593
166.77
156.192
146.472
137.355
128.666
120.278
112.09
104.017
193.423
180.911
169.351
158.655
148.651
139.177
130.099
121.308
112.71
104.224
194.006
182.277
171.067
160.426
150.3
140.604
131.247
122.144
113.218
104.394
194.332
183.123
172.216
161.682
151.521
141.693
132.141
122.806
113.622
104.531
194.532
183.669
172.992
162.566
152.408
142.504
132.821
123.315
113.937
104.637
194.66
184.028
173.519
163.183
153.043
143.096
133.324
123.695
114.173
104.717
194.744
184.265
173.872
163.605
153.485
143.515
133.684
123.971
114.346
104.775
194.797
184.416
174.1
163.881
153.778
143.796
133.928
124.158
114.463
104.816
194.828
184.503
174.233
164.043
153.952
143.964
134.075
124.272
114.535
104.84
194.84
184.538
174.286
164.109
154.023
144.034
134.137
124.321
114.566
104.851
194.835
184.524
174.266
164.086
154.001
144.014
134.122
124.31
114.56
104.849
194.812
184.459
174.17
163.972
153.883
143.904
134.028
124.239
114.516
104.834
194.767
184.333
173.985
163.755
153.658
143.695
133.85
124.105
114.433
104.806
194.692
184.126
173.684
163.408
153.307
143.371
133.579
123.901
114.307
104.763
194.571
183.799
173.225
162.892
152.796
142.911
133.198
123.619
114.134
104.705
194.368
183.279
172.53
162.146
152.085
142.286
132.692
123.249
113.909
104.629
193.995
182.424
171.482
161.089
151.121
141.469
132.045
122.783
113.628
104.536
193.186
180.95
169.896
159.622
149.858
140.437
131.248
122.218
113.292
104.424
190.994
178.31
167.546
157.664
148.274
139.189
130.308
121.562
112.904
104.296
188.983
174.494
162.943
152.871
143.69
135.104
126.931
119.048
111.355
103.773
192.199
178.593
166.77
156.192
146.472
137.355
128.666
120.278
112.09
104.017
193.423
180.911
169.351
158.655
148.651
139.177
130.099
121.308
112.71
104.224
194.006
182.277
171.067
160.426
150.3
140.604
131.247
122.144
113.218
104.394
194.332
183.123
172.216
161.682
151.521
141.693
132.141
122.806
113.622
104.531
194.532
183.669
172.992
162.566
152.408
142.504
132.821
123.315
113.937
104.637
194.66
184.028
173.519
163.183
153.043
143.096
133.324
123.695
114.173
104.717
194.744
184.265
173.872
163.605
153.485
143.515
133.684
123.971
114.346
104.775
194.797
184.416
174.1
163.881
153.778
143.796
133.928
124.158
114.463
104.816
194.828
184.503
174.233
164.043
153.952
143.964
134.075
124.272
114.535
104.84
194.84
184.538
174.286
164.109
154.023
144.034
134.137
124.321
114.566
104.851
194.835
184.524
174.266
164.086
154.001
144.014
134.122
124.31
114.56
104.849
194.812
184.459
174.17
163.972
153.883
143.904
134.028
124.239
114.516
104.834
194.767
184.333
173.985
163.755
153.658
143.695
133.85
124.105
114.433
104.806
194.692
184.126
173.684
163.408
153.307
143.371
133.579
123.901
114.307
104.763
194.571
183.799
173.225
162.892
152.796
142.911
133.198
123.619
114.134
104.705
194.368
183.279
172.53
162.146
152.085
142.286
132.692
123.249
113.909
104.629
193.995
182.424
171.482
161.089
151.121
141.469
132.045
122.783
113.628
104.536
193.186
180.95
169.896
159.622
149.859
140.437
131.248
122.218
113.292
104.424
190.994
178.31
167.546
157.664
148.274
139.189
130.308
121.562
112.904
104.296
188.984
174.496
162.946
152.873
143.692
135.106
126.933
119.049
111.357
103.774
192.201
178.596
166.772
156.194
146.474
137.357
128.668
120.28
112.092
104.018
193.425
180.913
169.353
158.657
148.653
139.179
130.102
121.31
112.711
104.225
194.008
182.279
171.07
160.429
150.303
140.607
131.25
122.146
113.219
104.395
194.334
183.126
172.219
161.685
151.523
141.695
132.144
122.808
113.624
104.532
194.534
183.671
172.995
162.569
152.411
142.507
132.823
123.317
113.938
104.638
194.662
184.031
173.522
163.186
153.046
143.099
133.326
123.698
114.175
104.718
194.746
184.268
173.875
163.608
153.488
143.518
133.687
123.973
114.347
104.777
194.799
184.419
174.103
163.884
153.781
143.799
133.93
124.16
114.465
104.817
194.83
184.506
174.236
164.047
153.955
143.966
134.077
124.274
114.537
104.841
194.842
184.541
174.289
164.113
154.026
144.037
134.14
124.323
114.568
104.852
194.837
184.527
174.269
164.09
154.004
144.017
134.124
124.312
114.562
104.85
194.814
184.463
174.173
163.976
153.886
143.907
134.031
124.241
114.518
104.835
194.769
184.337
173.988
163.758
153.662
143.698
133.853
124.108
114.435
104.807
194.695
184.13
173.688
163.411
153.31
143.374
133.582
123.904
114.309
104.764
194.574
183.803
173.228
162.895
152.8
142.914
133.201
123.622
114.136
104.706
194.371
183.282
172.534
162.15
152.088
142.29
132.695
123.252
113.911
104.631
193.997
182.428
171.486
161.093
151.125
141.472
132.048
122.786
113.631
104.537
193.189
180.954
169.9
159.626
149.862
140.44
131.251
122.221
113.294
104.425
190.997
178.314
167.55
157.668
148.277
139.193
130.311
121.565
112.907
104.297
183.484
173.774
164.341
155.245
146.411
137.765
129.254
120.836
112.479
104.156
176.77
168.988
160.828
152.594
144.387
136.232
128.127
120.062
112.026
104.007
171.272
164.625
157.43
149.957
142.351
134.682
126.986
119.279
111.569
103.857
166.814
160.863
154.362
147.504
140.422
133.199
125.888
118.524
111.126
103.711
163.213
157.719
151.715
145.334
138.685
131.848
124.881
117.827
110.718
103.576
160.341
155.162
149.517
143.499
137.194
130.676
124
117.215
110.357
103.457
158.116
153.159
147.77
142.022
135.981
129.714
123.273
116.708
110.058
103.359
156.486
151.681
146.471
140.913
135.064
128.982
122.717
116.318
109.827
103.282
155.416
150.707
145.611
140.174
134.45
128.49
122.344
116.056
109.67
103.231
154.886
150.224
145.182
139.806
134.143
128.244
122.156
115.925
109.593
103.21
183.481
173.77
164.337
155.242
146.407
137.762
129.251
120.833
112.476
104.155
176.766
168.985
160.824
152.59
144.384
136.229
128.123
120.059
112.024
104.006
171.269
164.621
157.426
149.954
142.347
134.679
126.983
119.276
111.566
103.855
166.811
160.86
154.359
147.501
140.418
133.195
125.885
118.52
111.124
103.709
163.21
157.716
151.712
145.331
138.682
131.844
124.877
117.824
110.714
103.574
160.338
155.16
149.514
143.496
137.191
130.672
123.997
117.211
110.354
103.455
158.114
153.156
147.768
142.019
135.978
129.71
123.269
116.703
110.053
103.356
156.483
151.678
146.468
140.91
135.061
128.978
122.713
116.314
109.822
103.279
155.413
150.705
145.608
140.171
134.447
128.486
122.339
116.051
109.665
103.226
154.883
150.222
145.18
139.803
134.14
128.24
122.151
115.919
109.586
103.204
183.481
173.77
164.337
155.242
146.407
137.762
129.251
120.833
112.476
104.155
176.766
168.985
160.824
152.59
144.384
136.229
128.123
120.059
112.024
104.006
171.269
164.621
157.426
149.954
142.347
134.679
126.983
119.276
111.566
103.855
166.811
160.86
154.359
147.501
140.418
133.195
125.885
118.52
111.124
103.709
163.21
157.716
151.712
145.331
138.682
131.844
124.877
117.824
110.714
103.574
160.338
155.159
149.514
143.496
137.191
130.672
123.997
117.211
110.354
103.455
158.114
153.156
147.768
142.019
135.978
129.71
123.269
116.703
110.053
103.356
156.483
151.678
146.468
140.91
135.061
128.978
122.713
116.314
109.822
103.279
155.413
150.705
145.608
140.171
134.447
128.486
122.339
116.051
109.665
103.226
154.884
150.222
145.18
139.803
134.14
128.24
122.151
115.919
109.586
103.204
183.484
173.774
164.341
155.245
146.411
137.765
129.254
120.836
112.479
104.156
176.77
168.988
160.828
152.594
144.387
136.232
128.127
120.062
112.026
104.007
171.272
164.625
157.43
149.957
142.351
134.682
126.986
119.279
111.569
103.857
166.814
160.863
154.362
147.504
140.422
133.199
125.888
118.524
111.127
103.711
163.213
157.719
151.715
145.334
138.685
131.848
124.881
117.827
110.718
103.576
160.341
155.162
149.517
143.499
137.194
130.676
124
117.215
110.357
103.457
158.116
153.159
147.77
142.022
135.982
129.714
123.273
116.708
110.058
103.359
156.486
151.681
146.471
140.913
135.064
128.982
122.717
116.319
109.827
103.283
155.416
150.707
145.611
140.174
134.45
128.49
122.344
116.056
109.671
103.231
154.886
150.224
145.183
139.806
134.143
128.244
122.156
115.925
109.593
103.21
192.418
195.249
196.435
197.071
197.47
197.741
197.93
198.059
198.14
198.179
198.179
198.14
198.06
197.932
197.743
197.472
197.073
196.437
195.25
192.419
183.371
187.404
189.867
191.462
192.551
193.319
193.863
194.237
194.473
194.588
194.588
194.475
194.24
193.866
193.323
192.556
191.467
189.872
187.407
183.373
176.928
181.161
184.203
186.394
187.988
189.155
190.001
190.591
190.965
191.148
191.149
190.968
190.595
190.007
189.163
187.996
186.402
184.212
181.168
176.934
171.966
176.161
179.447
181.977
183.91
185.372
186.455
187.22
187.71
187.95
187.951
187.714
187.226
186.463
185.383
183.922
181.99
179.46
176.174
171.977
168.038
172.144
175.519
178.234
180.382
182.049
183.306
184.207
184.788
185.074
185.076
184.793
184.215
183.318
182.064
180.399
178.253
175.539
172.165
168.059
164.934
168.947
172.342
175.152
177.43
179.234
180.614
181.614
182.264
182.586
182.588
182.271
181.626
180.63
179.254
177.454
175.179
172.371
168.977
164.965
162.538
166.469
169.856
172.712
175.067
176.957
178.421
179.49
180.19
180.537
180.54
180.199
179.505
178.442
176.983
175.097
172.747
169.895
166.51
162.58
160.783
164.651
168.021
170.896
173.294
175.238
176.755
177.87
178.603
178.968
178.971
178.614
177.888
176.78
175.269
173.331
170.939
168.069
164.703
160.837
159.63
163.456
166.81
169.692
172.112
174.086
175.635
176.778
177.531
177.907
177.911
177.543
176.798
175.664
174.123
172.156
169.742
166.866
163.517
159.695
159.059
162.862
166.208
169.092
171.521
173.509
175.072
176.228
176.991
177.372
177.376
177.004
176.25
175.103
173.548
171.568
169.147
166.269
162.929
159.13
192.42
195.25
196.436
197.072
197.471
197.742
197.931
198.059
198.14
198.179
198.179
198.14
198.059
197.931
197.742
197.471
197.072
196.436
195.249
192.416
183.374
187.406
189.87
191.464
192.553
193.32
193.864
194.238
194.474
194.588
194.588
194.474
194.239
193.865
193.322
192.554
191.465
189.87
187.405
183.37
176.931
181.164
184.206
186.396
187.99
189.157
190.002
190.592
190.966
191.148
191.148
190.967
190.594
190.006
189.161
187.995
186.4
184.209
181.166
176.931
171.969
176.164
179.449
181.98
183.912
185.374
186.456
187.221
187.711
187.95
187.951
187.714
187.226
186.462
185.381
183.921
181.988
179.458
176.172
171.975
168.041
172.147
175.522
178.236
180.384
182.05
183.307
184.207
184.788
185.074
185.076
184.793
184.214
183.317
182.062
180.397
178.251
175.537
172.163
168.056
164.937
168.95
172.345
175.154
177.432
179.235
180.615
181.615
182.265
182.586
182.588
182.271
181.625
180.629
179.252
177.452
175.177
172.369
168.975
164.962
162.541
166.472
169.859
172.714
175.069
176.959
178.422
179.491
180.19
180.537
180.54
180.198
179.504
178.441
176.982
175.095
172.745
169.893
166.508
162.578
160.786
164.654
168.024
170.899
173.296
175.239
176.756
177.871
178.603
178.968
178.971
178.613
177.887
176.779
175.268
173.33
170.938
168.067
164.701
160.835
159.633
163.458
166.813
169.694
172.114
174.088
175.636
176.778
177.531
177.907
177.91
177.543
176.798
175.663
174.121
172.154
169.741
166.864
163.515
159.693
159.061
162.865
166.21
169.094
171.523
173.51
175.073
176.228
176.991
177.372
177.376
177.004
176.249
175.102
173.547
171.567
169.145
166.267
162.927
159.128
192.42
195.25
196.436
197.072
197.471
197.742
197.931
198.059
198.14
198.179
198.179
198.14
198.059
197.931
197.742
197.471
197.072
196.436
195.249
192.416
183.374
187.406
189.87
191.464
192.553
193.32
193.864
194.238
194.474
194.588
194.588
194.474
194.239
193.865
193.322
192.554
191.465
189.87
187.405
183.37
176.931
181.164
184.206
186.396
187.99
189.157
190.002
190.592
190.966
191.148
191.148
190.967
190.594
190.006
189.161
187.995
186.4
184.209
181.166
176.931
171.969
176.164
179.449
181.98
183.912
185.374
186.456
187.221
187.711
187.95
187.951
187.714
187.226
186.462
185.381
183.921
181.988
179.458
176.172
171.975
168.042
172.147
175.522
178.236
180.384
182.05
183.307
184.207
184.788
185.074
185.076
184.793
184.214
183.317
182.062
180.397
178.251
175.537
172.163
168.056
164.937
168.95
172.345
175.154
177.432
179.235
180.615
181.615
182.265
182.586
182.588
182.271
181.625
180.629
179.252
177.452
175.177
172.369
168.975
164.962
162.541
166.472
169.859
172.714
175.069
176.959
178.422
179.491
180.19
180.537
180.54
180.198
179.504
178.441
176.982
175.096
172.745
169.893
166.508
162.578
160.786
164.654
168.024
170.899
173.296
175.24
176.756
177.871
178.604
178.968
178.971
178.613
177.887
176.779
175.268
173.33
170.938
168.067
164.701
160.835
159.633
163.459
166.813
169.694
172.114
174.088
175.636
176.778
177.531
177.907
177.91
177.543
176.798
175.663
174.121
172.154
169.741
166.864
163.515
159.693
159.061
162.865
166.21
169.094
171.523
173.51
175.073
176.228
176.991
177.372
177.376
177.004
176.249
175.102
173.547
171.567
169.145
166.267
162.927
159.128
192.418
195.249
196.435
197.071
197.47
197.741
197.93
198.059
198.14
198.179
198.179
198.14
198.06
197.932
197.743
197.472
197.073
196.437
195.25
192.418
183.371
187.404
189.867
191.462
192.551
193.319
193.863
194.237
194.473
194.588
194.588
194.475
194.24
193.866
193.323
192.556
191.467
189.872
187.407
183.373
176.928
181.161
184.203
186.394
187.988
189.155
190.001
190.591
190.965
191.148
191.149
190.968
190.595
190.007
189.163
187.996
186.402
184.212
181.168
176.934
171.966
176.161
179.447
181.977
183.91
185.372
186.455
187.22
187.71
187.95
187.951
187.714
187.226
186.463
185.383
183.922
181.99
179.46
176.174
171.977
168.038
172.144
175.519
178.234
180.382
182.049
183.306
184.206
184.788
185.074
185.076
184.793
184.215
183.318
182.064
180.399
178.253
175.539
172.165
168.058
164.934
168.947
172.342
175.152
177.43
179.234
180.614
181.614
182.264
182.585
182.588
182.271
181.626
180.63
179.254
177.454
175.178
172.371
168.977
164.965
162.538
166.469
169.856
172.712
175.067
176.958
178.421
179.49
180.19
180.537
180.54
180.199
179.505
178.442
176.983
175.097
172.747
169.895
166.511
162.58
160.783
164.651
168.021
170.896
173.294
175.238
176.755
177.87
178.603
178.968
178.971
178.614
177.888
176.78
175.27
173.332
170.94
168.069
164.703
160.837
159.63
163.456
166.81
169.692
172.112
174.086
175.635
176.778
177.531
177.907
177.911
177.544
176.798
175.664
174.123
172.156
169.743
166.866
163.517
159.695
159.059
162.863
166.208
169.092
171.521
173.509
175.072
176.228
176.991
177.372
177.376
177.004
176.25
175.103
173.548
171.569
169.147
166.269
162.929
159.13
104.156
112.481
120.841
129.262
137.775
146.421
155.255
164.349
173.779
183.485
104.007
112.028
120.067
128.134
136.241
144.396
152.602
160.834
168.992
176.77
103.856
111.57
119.283
126.991
134.688
142.357
149.962
157.432
164.624
171.269
103.71
111.126
118.524
125.89
133.2
140.422
147.502
154.358
160.856
166.804
103.575
110.715
117.824
124.877
131.842
138.676
145.323
151.701
157.702
163.194
103.455
110.351
117.207
123.989
130.66
137.175
143.476
149.49
155.133
160.311
103.354
110.048
116.693
123.253
129.687
135.95
141.985
147.731
153.117
158.073
103.276
109.813
116.296
122.686
128.943
135.019
140.862
146.417
151.625
156.43
103.223
109.654
116.025
122.301
128.439
134.392
140.111
145.544
150.639
155.349
103.192