/*--------------------------------*- C++ -*----------------------------------*\
| =========                 |                                                 |
| \\      /  F ield         | OpenFOAM: The Open Source CFD Toolbox           |
|  \\    /   O peration     | Version:  2.4.0                                 |
|   \\  /    A nd           | Web:      www.OpenFOAM.org                      |
|    \\/     M anipulation  |                                                 |
\*---------------------------------------------------------------------------*/
FoamFile
{
    version     2.0;
    format      ascii;
    class       volScalarField;
    location    "0.505";
    object      T;
}
// * * * * * * * * * * * * * * * * * * * * * * * * * * * * * * * * * * * * * //

dimensions      [0 0 0 1 0 0 0];

internalField   nonuniform List<scalar> 
1600
(
101.358
104.073
106.787
109.498
112.205
114.907
117.602
120.291
122.971
125.642
128.301
130.949
133.585
136.206
138.813
141.404
143.978
146.536
149.076
151.598
154.102
156.587
159.055
161.503
163.934
166.348
168.745
171.126
173.492
175.844
178.184
180.511
182.828
185.136
187.436
189.73
192.018
194.301
196.582
198.861
101.359
104.076
106.791
109.504
112.213
114.917
117.614
120.304
122.986
125.658
128.32
130.969
133.606
136.228
138.836
141.428
144.003
146.562
149.102
151.625
154.128
156.614
159.08
161.529
163.959
166.372
168.768
171.148
173.512
175.863
178.201
180.527
182.842
185.149
187.447
189.738
192.025
194.306
196.585
198.862
101.361
104.081
106.8
109.516
112.229
114.936
117.637
120.331
123.016
125.691
128.355
131.007
133.646
136.271
138.881
141.475
144.052
146.612
149.153
151.676
154.181
156.666
159.132
161.58
164.009
166.42
168.814
171.192
173.554
175.902
178.236
180.559
182.871
185.174
187.468
189.756
192.038
194.316
196.591
198.864
101.363
104.089
106.813
109.535
112.252
114.965
117.671
120.369
123.059
125.739
128.407
131.064
133.707
136.335
138.948
141.545
144.124
146.686
149.229
151.753
154.258
156.743
159.209
161.655
164.083
166.492
168.883
171.257
173.616
175.959
178.289
180.607
182.914
185.211
187.5
189.782
192.059
194.331
196.599
198.867
101.367
104.099
106.831
109.559
112.284
115.003
117.716
120.42
123.116
125.802
128.476
131.138
133.786
136.419
139.036
141.636
144.219
146.783
149.328
151.854
154.359
156.844
159.31
161.755
164.18
166.586
168.974
171.344
173.698
176.036
178.36
180.671
182.971
185.261
187.543
189.817
192.086
194.35
196.611
198.871
101.371
104.112
106.852
109.59
112.323
115.05
117.771
120.484
123.187
125.881
128.562
131.23
133.884
136.523
139.145
141.75
144.336
146.903
149.451
151.978
154.484
156.97
159.434
161.878
164.301
166.703
169.087
171.452
173.8
176.131
178.448
180.751
183.043
185.324
187.596
189.861
192.12
194.375
196.626
198.876
101.376
104.128
106.878
109.626
112.369
115.106
117.837
120.559
123.272
125.974
128.663
131.339
134
136.645
139.274
141.884
144.475
147.046
149.596
152.125
154.633
157.119
159.582
162.024
164.444
166.843
169.222
171.581
173.922
176.246
178.554
180.848
183.129
185.4
187.661
189.914
192.162
194.405
196.644
198.882
101.382
104.146
106.909
109.668
112.423
115.172
117.914
120.647
123.37
126.082
128.781
131.465
134.135
136.787
139.422
142.038
144.635
147.21
149.764
152.295
154.804
157.29
159.753
162.193
164.61
167.005
169.378
171.731
174.064
176.379
178.677
180.96
183.23
185.488
187.736
189.977
192.21
194.439
196.665
198.889
101.389
104.167
106.943
109.716
112.484
115.246
118.001
120.746
123.481
126.204
128.914
131.608
134.287
136.948
139.591
142.213
144.815
147.395
149.953
152.487
154.998
157.484
159.946
162.384
164.798
167.188
169.555
171.901
174.225
176.53
178.817
181.088
183.345
185.589
187.823
190.048
192.266
194.479
196.689
198.897
101.397
104.19
106.982
109.77
112.553
115.33
118.099
120.858
123.606
126.342
129.063
131.769
134.457
137.128
139.778
142.409
145.017
147.602
150.163
152.701
155.213
157.7
160.161
162.596
165.007
167.392
169.753
172.09
174.405
176.7
178.975
181.232
183.474
185.703
187.92
190.128
192.329
194.524
196.716
198.906
101.406
104.216
107.025
109.83
112.63
115.423
118.208
120.982
123.745
126.494
129.228
131.946
134.645
137.326
139.986
142.624
145.238
147.829
150.395
152.935
155.449
157.936
160.396
162.829
165.236
167.616
169.97
172.299
174.604
176.887
179.149
181.392
183.618
185.83
188.029
190.218
192.399
194.575
196.746
198.916
101.415
104.245
107.073
109.897
112.715
115.526
118.328
121.119
123.897
126.661
129.41
132.14
134.852
137.543
140.212
142.858
145.48
148.077
150.647
153.19
155.705
158.193
160.652
163.082
165.485
167.859
170.206
172.526
174.821
177.092
179.34
181.567
183.776
185.969
188.149
190.317
192.477
194.63
196.78
198.927
101.426
104.277
107.126
109.97
112.809
115.639
118.46
121.269
124.065
126.845
129.608
132.353
135.077
137.779
140.459
143.114
145.743
148.345
150.92
153.466
155.982
158.47
160.927
163.355
165.753
168.121
170.461
172.772
175.056
177.314
179.547
181.758
183.949
186.122
188.28
190.426
192.562
194.692
196.817
198.939
101.438
104.311
107.183
110.051
112.911
115.763
118.604
121.433
124.247
127.045
129.824
132.584
135.321
138.036
140.726
143.39
146.026
148.635
151.213
153.762
156.281
158.768
161.224
163.648
166.041
168.403
170.734
173.036
175.308
177.552
179.77
181.964
184.136
186.288
188.423
190.544
192.655
194.758
196.857
198.952
101.45
104.349
107.246
110.138
113.023
115.898
118.762
121.612
124.446
127.262
130.059
132.834
135.586
138.314
141.015
143.688
146.332
148.947
151.53
154.082
156.601
159.088
161.541
163.962
166.35
168.704
171.027
173.318
175.578
177.808
180.01
182.185
184.337
186.466
188.577
190.673
192.756
194.831
196.901
198.967
101.464
104.391
107.316
110.234
113.145
116.046
118.933
121.806
124.662
127.499
130.314
133.106
135.873
138.614
141.327
144.01
146.662
149.283
151.871
154.425
156.945
159.431
161.882
164.299
166.68
169.027
171.34
173.62
175.866
178.081
180.266
182.423
184.553
186.659
188.744
190.812
192.866
194.91
196.949
198.983
101.479
104.437
107.391
110.339
113.279
116.207
119.121
122.018
124.897
127.756
130.591
133.401
136.185
138.94
141.665
144.358
147.019
149.646
152.238
154.795
157.317
159.801
162.25
164.661
167.036
169.375
171.677
173.944
176.176
178.375
180.541
182.677
184.784
186.866
188.924
190.962
192.984
194.995
197
199
101.496
104.487
107.474
110.454
113.425
116.382
119.325
122.25
125.154
128.036
130.892
133.722
136.523
139.293
142.031
144.735
147.405
150.039
152.636
155.196
157.718
160.201
162.646
165.053
167.42
169.749
172.04
174.293
176.509
178.69
180.836
182.95
185.033
187.087
189.117
191.124
193.112
195.088
197.056
199.018
101.514
104.542
107.565
110.58
113.584
116.575
119.548
122.502
125.434
128.341
131.22
134.071
136.89
139.676
142.428
145.144
147.823
150.464
153.067
155.63
158.152
160.635
163.076
165.476
167.836
170.154
172.432
174.67
176.87
179.031
181.155
183.244
185.3
187.326
189.325
191.298
193.251
195.188
197.117
199.038
101.535
104.602
107.664
110.718
113.76
116.786
119.793
122.779
125.74
128.674
131.578
134.451
137.29
140.094
142.861
145.589
148.279
150.928
153.535
156.101
158.625
161.105
163.543
165.937
168.287
170.594
172.858
175.08
177.26
179.4
181.5
183.563
185.59
187.584
189.549
191.487
193.401
195.297
197.183
199.06
101.557
104.668
107.774
110.87
113.952
117.017
120.062
123.082
126.075
129.039
131.97
134.867
137.727
140.55
143.333
146.075
148.775
151.432
154.046
156.615
159.139
161.618
164.051
166.438
168.779
171.073
173.322
175.526
177.686
179.802
181.876
183.909
185.905
187.864
189.792
191.691
193.563
195.416
197.255
199.084
101.581
104.741
107.895
111.037
114.164
117.272
120.357
123.415
126.443
129.439
132.399
135.322
138.206
141.048
143.848
146.605
149.316
151.983
154.602
157.175
159.7
162.177
164.605
166.984
169.315
171.596
173.829
176.013
178.15
180.241
182.286
184.287
186.248
188.17
190.057
191.913
193.74
195.544
197.334
199.11
101.608
104.822
108.028
111.222
114.398
117.553
120.682
123.781
126.848
129.878
132.87
135.821
138.729
141.594
144.412
147.184
149.908
152.584
155.21
157.787
160.313
162.787
165.21
167.581
169.9
172.167
174.382
176.545
178.658
180.721
182.735
184.701
186.624
188.504
190.347
192.155
193.933
195.685
197.42
199.138
101.638
104.911
108.176
111.426
114.657
117.864
121.041
124.186
127.293
130.362
133.387
136.369
139.304
142.191
145.03
147.818
150.555
153.241
155.875
158.455
160.982
163.454
165.871
168.234
170.54
172.792
174.987
177.128
179.214
181.247
183.227
185.156
187.036
188.871
190.665
192.421
194.144
195.839
197.514
199.17
101.671
105.011
108.34
111.654
114.944
118.208
121.438
124.632
127.785
130.894
133.957
136.971
139.935
142.847
145.706
148.512
151.264
153.96
156.601
159.185
161.712
164.182
166.594
168.946
171.24
173.475
175.65
177.766
179.824
181.824
183.767
185.655
187.49
189.276
191.015
192.714
194.377
196.009
197.618
199.204
101.709
105.122
108.523
111.906
115.263
118.589
121.878
125.126
128.328
131.481
134.584
137.633
140.627
143.566
146.448
149.272
152.038
154.746
157.394
159.983
162.511
164.977
167.382
169.725
172.005
174.222
176.376
178.466
180.493
182.458
184.361
186.205
187.991
189.722
191.403
193.038
194.634
196.196
197.733
199.242
101.75
105.245
108.727
112.188
115.618
119.013
122.366
125.673
128.928
132.129
135.274
138.361
141.388
144.355
147.26
150.104
152.885
155.604
158.261
160.853
163.382
165.846
168.244
170.576
172.841
175.04
177.17
179.233
181.227
183.155
185.015
186.811
188.543
190.216
191.832
193.398
194.919
196.404
197.861
199.285
101.796
105.384
108.956
112.502
116.015
119.486
122.909
126.279
129.592
132.845
136.035
139.162
142.223
145.219
148.149
151.013
153.811
156.542
159.206
161.803
164.332
166.792
169.183
171.505
173.755
175.933
178.039
180.073
182.033
183.921
185.736
187.48
189.155
190.763
192.308
193.798
195.237
196.636
198.003
199.332
101.849
105.54
109.213
112.855
116.458
120.013
123.513
126.952
130.327
133.635
136.874
140.042
143.14
146.167
149.122
152.007
154.821
157.564
160.237
162.838
165.367
167.824
170.207
172.517
174.751
176.909
178.99
180.993
182.918
184.763
186.53
188.219
189.831
191.37
192.839
194.244
195.593
196.895
198.162
199.385
101.908
105.716
109.502
113.252
116.956
120.603
124.186
127.7
131.142
134.508
137.797
141.01
144.145
147.204
150.185
153.092
155.922
158.678
161.358
163.963
166.493
168.946
171.322
173.619
175.837
177.974
180.029
182.001
183.888
185.69
187.406
189.036
190.582
192.045
193.431
194.743
195.992
197.187
198.34
199.445
101.975
105.916
109.83
113.701
117.516
121.264
124.938
128.532
132.044
135.472
138.814
142.072
145.246
148.337
151.345
154.273
157.12
159.888
162.577
165.186
167.715
170.165
172.533
174.818
177.019
179.135
181.164
183.103
184.952
186.708
188.371
189.94
191.416
192.799
194.093
195.304
196.441
197.516
198.541
199.513
102.052
106.145
110.204
114.21
118.149
122.007
125.779
129.459
133.045
136.536
139.933
143.237
146.45
149.573
152.609
155.558
158.422
161.201
163.898
166.511
169.04
171.486
173.846
176.119
178.304
180.399
182.401
184.308
186.118
187.828
189.437
190.942
192.343
193.64
194.837
195.937
196.95
197.891
198.77
199.59
102.141
106.409
110.634
114.793
118.867
122.846
126.721
130.491
134.154
137.71
141.163
144.513
147.765
150.92
153.982
156.952
159.832
162.623
165.327
167.944
170.473
172.915
175.267
177.529
179.698
181.772
183.748
185.623
187.394
189.059
190.612
192.052
193.376
194.584
195.675
196.655
197.531
198.319
199.033
199.68
102.246
106.717
111.133
115.463
119.688
123.795
127.78
131.643
135.383
139.005
142.512
145.908
149.198
152.384
155.471
158.461
161.356
164.159
166.87
169.49
172.02
174.457
176.802
179.053
181.206
183.26
185.212
187.056
188.791
190.41
191.909
193.284
194.53
195.644
196.625
197.476
198.2
198.816
199.338
199.786
102.371
107.084
111.721
116.243
120.63
124.874
128.972
132.928
136.746
140.431
143.991
147.431
150.756
153.972
157.082
160.091
163
165.813
168.531
171.155
173.684
176.118
178.456
180.696
182.836
184.872
186.8
188.616
190.315
191.892
193.339
194.651
195.82
196.841
197.707
198.419
198.978
199.401
199.701
199.914
102.525
107.531
112.424
117.16
121.721
126.105
130.316
134.362
138.254
141.999
145.608
149.088
152.446
155.688
158.82
161.845
164.768
167.59
170.314
172.941
175.47
177.901
180.234
182.465
184.592
186.612
188.52
190.311
191.979
193.517
194.917
196.17
197.266
198.195
198.947
199.515
199.895
200.101
200.14
200.07
102.724
108.094
113.285
118.252
122.992
127.514
131.832
135.962
139.92
143.719
147.371
150.886
154.273
157.538
160.689
163.729
166.663
169.494
172.224
174.853
177.383
179.812
182.14
184.364
186.481
188.488
190.379
192.149
193.791
195.296
196.655
197.857
198.888
199.733
200.377
200.802
200.994
200.958
200.682
200.265
102.997
108.837
114.364
119.569
124.481
129.128
133.541
137.744
141.758
145.602
149.29
152.834
156.244
159.529
162.695
165.748
168.691
171.529
174.264
176.896
179.427
181.855
184.18
186.399
188.509
190.506
192.385
194.139
195.76
197.24
198.568
199.729
200.708
201.484
202.035
202.332
202.34
202.043
201.387
200.525
103.457
109.877
115.74
121.166
126.226
130.977
135.464
139.723
143.78
147.658
151.373
154.939
158.367
161.666
164.844
167.907
170.858
173.702
176.441
179.077
181.609
184.038
186.361
188.578
190.684
192.675
194.545
196.289
197.897
199.36
200.666
201.8
202.742
203.471
203.955
204.157
204.017
203.478
202.399
200.964
104.304
111.463
117.601
123.176
128.327
133.136
137.663
141.951
146.03
149.926
153.655
157.232
160.67
163.978
167.162
170.23
173.186
176.034
178.775
181.412
183.946
186.375
188.698
190.913
193.016
195.004
196.871
198.609
200.21
201.665
202.959
204.077
204.999
205.701
206.148
206.297
206.074
205.399
204.028
202.014
)
;

boundaryField
{
    carasuperior
    {
        type            fixedGradient;
        gradient        uniform 100;
    }
    lateralizquierda
    {
        type            fixedValue;
        value           uniform 100;
    }
    lateralderecha
    {
        type            fixedValue;
        value           uniform 200;
    }
    carainferior
    {
        type            zeroGradient;
    }
    frontAndBack
    {
        type            empty;
    }
}


// ************************************************************************* //
