/*--------------------------------*- C++ -*----------------------------------*\
| =========                 |                                                 |
| \\      /  F ield         | OpenFOAM: The Open Source CFD Toolbox           |
|  \\    /   O peration     | Version:  2.4.0                                 |
|   \\  /    A nd           | Web:      www.OpenFOAM.org                      |
|    \\/     M anipulation  |                                                 |
\*---------------------------------------------------------------------------*/
FoamFile
{
    version     2.0;
    format      ascii;
    class       volScalarField;
    location    "0.008";
    object      T;
}
// * * * * * * * * * * * * * * * * * * * * * * * * * * * * * * * * * * * * * //

dimensions      [0 0 0 1 0 0 0];

internalField   nonuniform List<scalar> 
4800
(
100.194
100.581
100.968
101.354
101.738
102.117
102.487
102.844
103.182
103.493
100.581
101.742
102.903
104.063
105.217
106.359
107.475
108.552
109.571
110.511
100.968
102.903
104.841
106.778
108.71
110.625
112.503
114.319
116.039
117.626
101.354
104.063
106.779
109.499
112.22
114.927
117.593
120.182
122.64
124.908
101.738
105.218
108.711
112.221
115.745
119.269
122.762
126.174
129.431
132.438
102.117
106.359
110.625
114.927
119.269
123.641
128.012
132.323
136.471
140.314
102.488
107.476
112.504
117.595
122.764
128.013
133.323
138.633
143.817
148.66
102.845
108.554
114.321
120.184
126.177
132.325
138.634
145.068
151.502
157.641
103.182
109.573
116.042
122.644
129.435
136.475
143.82
151.504
159.482
167.46
103.494
110.514
117.631
124.914
132.445
140.321
148.666
157.645
167.462
178.222
100.194
100.581
100.968
101.354
101.738
102.117
102.487
102.844
103.182
103.493
100.581
101.742
102.903
104.063
105.217
106.359
107.475
108.552
109.571
110.511
100.968
102.903
104.841
106.778
108.71
110.625
112.503
114.319
116.039
117.626
101.354
104.063
106.779
109.499
112.22
114.927
117.593
120.182
122.64
124.908
101.738
105.218
108.711
112.221
115.745
119.269
122.762
126.174
129.431
132.438
102.117
106.359
110.625
114.928
119.269
123.641
128.012
132.323
136.471
140.314
102.488
107.476
112.505
117.595
122.764
128.013
133.323
138.633
143.817
148.66
102.845
108.554
114.321
120.185
126.177
132.325
138.634
145.068
151.502
157.641
103.183
109.573
116.043
122.644
129.436
136.476
143.82
151.504
159.482
167.46
103.494
110.515
117.631
124.915
132.446
140.321
148.666
157.646
167.463
178.223
100.194
100.581
100.968
101.354
101.738
102.117
102.487
102.844
103.182
103.493
100.581
101.742
102.903
104.063
105.217
106.359
107.475
108.552
109.571
110.511
100.968
102.903
104.841
106.778
108.71
110.625
112.503
114.319
116.039
117.626
101.354
104.063
106.779
109.499
112.22
114.927
117.593
120.182
122.64
124.908
101.738
105.218
108.711
112.221
115.745
119.269
122.762
126.174
129.431
132.438
102.117
106.359
110.625
114.928
119.269
123.641
128.012
132.323
136.471
140.314
102.488
107.476
112.505
117.595
122.764
128.013
133.323
138.633
143.817
148.66
102.845
108.554
114.321
120.185
126.177
132.325
138.634
145.068
151.502
157.641
103.183
109.573
116.043
122.644
129.436
136.476
143.82
151.504
159.482
167.46
103.494
110.515
117.631
124.915
132.446
140.321
148.666
157.646
167.463
178.223
100.194
100.581
100.968
101.354
101.738
102.117
102.487
102.844
103.182
103.493
100.581
101.742
102.903
104.063
105.217
106.359
107.475
108.552
109.571
110.511
100.968
102.903
104.841
106.778
108.71
110.625
112.503
114.319
116.039
117.626
101.354
104.063
106.779
109.499
112.22
114.927
117.593
120.182
122.64
124.908
101.738
105.218
108.711
112.221
115.745
119.269
122.762
126.174
129.431
132.438
102.117
106.359
110.625
114.927
119.269
123.641
128.012
132.323
136.471
140.314
102.488
107.476
112.504
117.595
122.764
128.013
133.323
138.633
143.817
148.66
102.845
108.554
114.321
120.184
126.177
132.325
138.634
145.068
151.502
157.641
103.182
109.573
116.042
122.644
129.435
136.475
143.82
151.504
159.482
167.46
103.494
110.514
117.631
124.914
132.445
140.321
148.666
157.645
167.462
178.222
103.773
104.016
104.222
104.391
104.526
104.63
104.707
104.762
104.796
104.813
104.813
104.796
104.761
104.707
104.63
104.526
104.391
104.222
104.016
103.773
111.354
112.087
112.704
113.208
113.609
113.916
114.144
114.304
114.405
114.454
114.454
114.405
114.304
114.144
113.916
113.608
113.208
112.703
112.086
111.353
119.045
120.272
121.298
122.13
122.784
123.283
123.65
123.906
124.067
124.145
124.145
124.067
123.905
123.649
123.281
122.782
122.128
121.297
120.271
119.044
126.928
128.659
130.088
131.229
132.114
132.78
133.266
133.602
133.812
133.914
133.913
133.812
133.601
133.265
132.779
132.112
131.227
130.086
128.657
126.926
135.1
137.347
139.164
140.584
141.662
142.459
143.032
143.423
143.667
143.783
143.783
143.666
143.422
143.03
142.457
141.66
140.581
139.162
137.345
135.098
143.687
146.465
148.638
150.28
151.49
152.363
152.978
153.393
153.649
153.77
153.77
153.648
153.392
152.977
152.361
151.488
150.278
148.636
146.462
143.685
152.869
156.186
158.643
160.408
161.655
162.526
163.125
163.522
163.764
163.879
163.878
163.763
163.521
163.123
162.524
161.653
160.406
158.641
156.184
152.867
162.943
166.766
169.342
171.053
172.195
172.96
173.473
173.806
174.007
174.102
174.101
174.007
173.806
173.472
172.959
172.193
171.052
169.34
166.764
162.941
174.494
178.591
180.906
182.268
183.11
183.649
183.999
184.223
184.357
184.419
184.419
184.356
184.223
183.998
183.648
183.109
182.267
180.905
178.591
174.494
188.984
192.199
193.422
194.004
194.328
194.526
194.651
194.73
194.777
194.799
194.799
194.777
194.73
194.651
194.525
194.328
194.003
193.422
192.199
188.983
103.773
104.016
104.222
104.391
104.526
104.63
104.707
104.761
104.796
104.812
104.812
104.796
104.761
104.707
104.629
104.525
104.391
104.222
104.016
103.772
111.354
112.086
112.704
113.208
113.608
113.916
114.144
114.304
114.405
114.454
114.454
114.405
114.303
114.143
113.915
113.607
113.207
112.702
112.085
111.352
119.045
120.272
121.298
122.13
122.783
123.282
123.649
123.905
124.067
124.144
124.144
124.066
123.904
123.648
123.28
122.781
122.127
121.296
120.27
119.043
126.928
128.658
130.087
131.228
132.113
132.78
133.265
133.601
133.812
133.913
133.913
133.811
133.6
133.264
132.778
132.111
131.226
130.084
128.656
126.925
135.1
137.347
139.164
140.583
141.661
142.459
143.031
143.423
143.666
143.783
143.782
143.665
143.421
143.029
142.456
141.658
140.58
139.16
137.343
135.097
143.687
146.464
148.638
150.28
151.489
152.363
152.978
153.392
153.648
153.769
153.769
153.647
153.391
152.976
152.36
151.486
150.276
148.634
146.461
143.684
152.869
156.186
158.643
160.407
161.654
162.525
163.124
163.521
163.763
163.878
163.877
163.762
163.52
163.122
162.523
161.651
160.404
158.64
156.182
152.866
162.943
166.765
169.342
171.053
172.194
172.96
173.472
173.805
174.006
174.101
174.1
174.006
173.804
173.47
172.958
172.192
171.05
169.339
166.762
162.94
174.495
178.591
180.906
182.268
183.109
183.648
183.998
184.222
184.356
184.418
184.418
184.355
184.222
183.997
183.647
183.108
182.266
180.904
178.589
174.492
188.984
192.199
193.422
194.003
194.328
194.525
194.651
194.73
194.777
194.799
194.799
194.777
194.73
194.65
194.525
194.327
194.003
193.421
192.198
188.982
103.773
104.016
104.222
104.391
104.526
104.63
104.707
104.761
104.796
104.812
104.812
104.796
104.761
104.707
104.629
104.525
104.391
104.222
104.016
103.772
111.354
112.086
112.704
113.208
113.608
113.916
114.144
114.304
114.405
114.454
114.454
114.405
114.303
114.143
113.915
113.607
113.207
112.702
112.085
111.352
119.045
120.272
121.298
122.13
122.783
123.282
123.649
123.905
124.067
124.144
124.144
124.066
123.904
123.648
123.28
122.781
122.127
121.296
120.27
119.043
126.928
128.658
130.087
131.228
132.113
132.78
133.265
133.601
133.812
133.913
133.913
133.811
133.6
133.264
132.778
132.111
131.226
130.084
128.656
126.925
135.1
137.347
139.164
140.583
141.661
142.459
143.031
143.423
143.666
143.783
143.782
143.665
143.421
143.029
142.456
141.658
140.58
139.16
137.343
135.097
143.687
146.464
148.638
150.28
151.489
152.363
152.978
153.392
153.648
153.769
153.769
153.647
153.391
152.976
152.36
151.486
150.276
148.634
146.461
143.684
152.869
156.186
158.643
160.407
161.654
162.525
163.124
163.521
163.763
163.878
163.877
163.762
163.52
163.122
162.523
161.651
160.404
158.64
156.182
152.866
162.943
166.765
169.342
171.053
172.194
172.96
173.472
173.805
174.006
174.101
174.1
174.006
173.804
173.47
172.958
172.192
171.05
169.339
166.762
162.94
174.495
178.591
180.906
182.268
183.109
183.648
183.998
184.222
184.356
184.418
184.418
184.355
184.222
183.997
183.647
183.108
182.266
180.904
178.589
174.492
188.984
192.199
193.422
194.003
194.328
194.525
194.651
194.73
194.777
194.799
194.799
194.777
194.73
194.65
194.525
194.327
194.003
193.421
192.198
188.982
103.773
104.016
104.222
104.391
104.526
104.63
104.707
104.762
104.796
104.813
104.813
104.796
104.761
104.707
104.63
104.526
104.391
104.222
104.016
103.773
111.354
112.087
112.704
113.208
113.609
113.916
114.144
114.304
114.405
114.454
114.454
114.405
114.304
114.144
113.916
113.608
113.208
112.703
112.086
111.353
119.045
120.272
121.298
122.13
122.784
123.283
123.65
123.906
124.067
124.145
124.145
124.067
123.905
123.649
123.281
122.782
122.128
121.297
120.271
119.044
126.928
128.659
130.088
131.229
132.114
132.78
133.266
133.602
133.812
133.914
133.913
133.812
133.601
133.265
132.779
132.112
131.227
130.086
128.657
126.926
135.1
137.347
139.164
140.584
141.662
142.459
143.032
143.423
143.667
143.783
143.783
143.666
143.422
143.03
142.457
141.66
140.581
139.162
137.345
135.098
143.687
146.465
148.638
150.28
151.49
152.363
152.978
153.393
153.649
153.77
153.77
153.648
153.392
152.977
152.361
151.488
150.278
148.636
146.462
143.685
152.869
156.186
158.643
160.408
161.655
162.526
163.125
163.522
163.764
163.879
163.878
163.763
163.521
163.123
162.524
161.653
160.406
158.641
156.184
152.867
162.943
166.766
169.342
171.053
172.195
172.96
173.473
173.806
174.007
174.102
174.101
174.007
173.806
173.472
172.959
172.193
171.052
169.34
166.764
162.941
174.494
178.591
180.906
182.268
183.11
183.649
183.999
184.223
184.357
184.419
184.419
184.356
184.223
183.998
183.648
183.109
182.267
180.905
178.591
174.494
188.984
192.199
193.422
194.004
194.328
194.526
194.651
194.73
194.777
194.799
194.799
194.777
194.73
194.651
194.525
194.328
194.003
193.422
192.199
188.983
103.493
103.182
102.845
102.488
102.117
101.738
101.354
100.968
100.581
100.194
110.511
109.571
108.553
107.476
106.359
105.218
104.064
102.904
101.743
100.581
117.625
116.039
114.319
112.503
110.625
108.711
106.779
104.842
102.904
100.968
124.907
122.639
120.182
117.594
114.927
112.221
109.5
106.779
104.064
101.354
132.437
129.43
126.174
122.762
119.269
115.745
112.221
108.711
105.218
101.738
140.313
136.471
132.323
128.013
123.642
119.27
114.929
110.626
106.36
102.117
148.659
143.816
138.633
133.324
128.014
122.765
117.596
112.506
107.477
102.488
157.641
151.502
145.069
138.636
132.327
126.179
120.186
114.323
108.555
102.845
167.461
159.483
151.506
143.822
136.478
129.438
122.647
116.044
109.575
103.183
178.223
167.464
157.648
148.669
140.324
132.449
124.918
117.633
110.516
103.495
103.492
103.181
102.844
102.487
102.116
101.737
101.353
100.967
100.58
100.193
110.509
109.57
108.551
107.474
106.358
105.217
104.063
102.903
101.741
100.58
117.624
116.037
114.318
112.502
110.624
108.709
106.778
104.84
102.903
100.967
124.905
122.638
120.18
117.592
114.926
112.219
109.499
106.778
104.063
101.353
132.436
129.429
126.173
122.761
119.268
115.744
112.22
108.71
105.217
101.737
140.311
136.469
132.321
128.011
123.64
119.269
114.927
110.625
106.359
102.117
148.658
143.815
138.631
133.322
128.013
122.763
117.595
112.504
107.476
102.487
157.639
151.501
145.067
138.634
132.325
126.177
120.185
114.321
108.554
102.845
167.459
159.481
151.504
143.82
136.476
129.436
122.645
116.043
109.573
103.182
178.222
167.462
157.646
148.667
140.322
132.447
124.916
117.632
110.515
103.494
103.492
103.181
102.844
102.487
102.116
101.737
101.353
100.967
100.58
100.193
110.509
109.57
108.551
107.474
106.358
105.217
104.063
102.903
101.741
100.58
117.624
116.037
114.318
112.502
110.624
108.709
106.778
104.84
102.903
100.967
124.905
122.638
120.18
117.592
114.926
112.219
109.499
106.778
104.063
101.353
132.436
129.429
126.173
122.761
119.268
115.744
112.22
108.71
105.217
101.737
140.311
136.469
132.321
128.011
123.64
119.269
114.927
110.625
106.359
102.117
148.658
143.815
138.631
133.322
128.013
122.763
117.595
112.504
107.476
102.487
157.639
151.501
145.067
138.634
132.325
126.177
120.185
114.321
108.554
102.845
167.459
159.481
151.504
143.82
136.476
129.436
122.645
116.043
109.573
103.182
178.222
167.462
157.646
148.667
140.322
132.447
124.916
117.632
110.515
103.494
103.493
103.182
102.845
102.488
102.117
101.738
101.354
100.968
100.581
100.194
110.511
109.571
108.553
107.476
106.359
105.218
104.064
102.904
101.743
100.581
117.625
116.039
114.319
112.503
110.625
108.711
106.779
104.842
102.904
100.968
124.907
122.639
120.182
117.594
114.927
112.221
109.5
106.779
104.064
101.354
132.437
129.43
126.174
122.762
119.269
115.745
112.221
108.711
105.218
101.738
140.313
136.471
132.323
128.013
123.642
119.27
114.929
110.626
106.36
102.117
148.659
143.816
138.633
133.324
128.014
122.765
117.596
112.506
107.477
102.488
157.641
151.502
145.069
138.636
132.327
126.179
120.186
114.323
108.555
102.845
167.461
159.483
151.506
143.822
136.478
129.438
122.647
116.044
109.575
103.183
178.223
167.464
157.648
148.669
140.324
132.449
124.918
117.633
110.516
103.495
188.986
174.501
162.953
152.882
143.701
135.115
126.941
119.056
111.361
103.775
192.203
178.601
166.78
156.204
146.485
137.367
128.677
120.287
112.096
104.02
193.427
180.919
169.362
158.669
148.666
139.192
130.112
121.318
112.717
104.227
194.01
182.286
171.081
160.442
150.318
140.621
131.263
122.157
113.226
104.398
194.337
183.134
172.232
161.701
151.542
141.713
132.16
122.821
113.633
104.534
194.537
183.682
173.011
162.59
152.434
142.529
132.844
123.333
113.949
104.641
194.667
184.044
173.542
163.212
153.074
143.127
133.352
123.718
114.188
104.723
194.752
184.284
173.901
163.641
153.524
143.554
133.719
123.998
114.364
104.782
194.807
184.441
174.137
163.926
153.827
143.844
133.972
124.193
114.486
104.824
194.839
184.534
174.279
164.1
154.014
144.025
134.13
124.316
114.564
104.85
194.854
184.577
174.345
164.182
154.103
144.113
134.208
124.377
114.603
104.864
194.853
184.574
174.341
164.179
154.103
144.115
134.212
124.381
114.606
104.865
194.835
184.523
174.267
164.092
154.014
144.033
134.143
124.329
114.574
104.854
194.797
184.417
174.111
163.91
153.827
143.86
133.997
124.22
114.507
104.831
194.732
184.236
173.849
163.609
153.524
143.583
133.766
124.048
114.401
104.796
194.623
183.944
173.442
163.155
153.077
143.183
133.437
123.805
114.252
104.746
194.44
183.475
172.82
162.491
152.448
142.634
132.994
123.482
114.057
104.68
194.097
182.697
171.872
161.544
151.591
141.911
132.425
123.075
113.812
104.599
193.348
181.344
170.43
160.221
150.461
140.995
131.722
122.579
113.518
104.501
191.296
178.904
168.283
158.451
149.041
139.886
130.892
122.002
113.178
104.389
188.985
174.499
162.951
152.88
143.699
135.113
126.939
119.054
111.359
103.774
192.201
178.598
166.778
156.201
146.482
137.365
128.675
120.285
112.095
104.019
193.425
180.916
169.359
158.666
148.663
139.189
130.11
121.316
112.715
104.226
194.008
182.283
171.078
160.439
150.315
140.619
131.261
122.155
113.224
104.397
194.335
183.131
172.229
161.699
151.539
141.711
132.158
122.819
113.631
104.533
194.535
183.679
173.008
162.587
152.431
142.527
132.841
123.331
113.947
104.64
194.665
184.041
173.539
163.209
153.071
143.125
133.35
123.716
114.186
104.721
194.75
184.281
173.898
163.638
153.521
143.551
133.716
123.996
114.362
104.781
194.805
184.437
174.133
163.923
153.824
143.842
133.969
124.191
114.484
104.823
194.837
184.531
174.276
164.097
154.011
144.022
134.128
124.314
114.562
104.849
194.852
184.573
174.341
164.178
154.1
144.11
134.205
124.374
114.6
104.863
194.851
184.57
174.338
164.176
154.099
144.112
134.209
124.378
114.603
104.864
194.833
184.52
174.263
164.089
154.01
144.03
134.14
124.327
114.572
104.853
194.795
184.413
174.107
163.906
153.823
143.857
133.994
124.218
114.504
104.83
194.729
184.232
173.846
163.606
153.52
143.58
133.763
124.045
114.398
104.794
194.621
183.94
173.438
163.151
153.074
143.179
133.434
123.802
114.25
104.744
194.437
183.471
172.816
162.488
152.444
142.63
132.991
123.48
114.054
104.679
194.095
182.693
171.868
161.54
151.587
141.907
132.422
123.072
113.81
104.597
193.345
181.34
170.426
160.217
150.458
140.991
131.719
122.576
113.515
104.5
191.293
178.9
168.279
158.447
149.038
139.883
130.889
122
113.176
104.388
188.985
174.499
162.951
152.88
143.699
135.113
126.939
119.054
111.359
103.774
192.201
178.598
166.778
156.201
146.482
137.365
128.675
120.285
112.095
104.019
193.425
180.916
169.359
158.666
148.663
139.189
130.11
121.316
112.715
104.226
194.008
182.283
171.078
160.439
150.315
140.619
131.261
122.155
113.224
104.397
194.335
183.131
172.229
161.699
151.539
141.711
132.158
122.819
113.631
104.533
194.535
183.679
173.008
162.587
152.431
142.527
132.841
123.331
113.947
104.64
194.665
184.041
173.539
163.209
153.071
143.125
133.35
123.716
114.186
104.721
194.75
184.281
173.898
163.638
153.521
143.551
133.716
123.996
114.362
104.781
194.805
184.437
174.133
163.923
153.824
143.842
133.969
124.191
114.484
104.823
194.837
184.531
174.276
164.097
154.011
144.022
134.128
124.314
114.562
104.849
194.852
184.573
174.341
164.178
154.1
144.11
134.205
124.374
114.6
104.863
194.851
184.57
174.338
164.176
154.099
144.112
134.209
124.378
114.603
104.864
194.833
184.52
174.263
164.089
154.01
144.03
134.14
124.327
114.572
104.853
194.795
184.413
174.107
163.906
153.823
143.857
133.994
124.218
114.504
104.83
194.729
184.232
173.846
163.606
153.52
143.58
133.763
124.045
114.398
104.794
194.621
183.94
173.438
163.151
153.074
143.179
133.434
123.802
114.25
104.744
194.437
183.471
172.816
162.488
152.444
142.63
132.991
123.48
114.054
104.679
194.095
182.693
171.868
161.54
151.587
141.907
132.422
123.072
113.81
104.597
193.345
181.34
170.426
160.217
150.458
140.991
131.719
122.576
113.515
104.5
191.293
178.9
168.279
158.447
149.038
139.883
130.889
122
113.176
104.388
188.986
174.501
162.953
152.882
143.701
135.115
126.941
119.056
111.361
103.775
192.203
178.601
166.78
156.204
146.485
137.367
128.677
120.287
112.096
104.02
193.427
180.919
169.362
158.669
148.666
139.192
130.112
121.318
112.717
104.227
194.01
182.286
171.081
160.442
150.318
140.621
131.263
122.157
113.226
104.398
194.337
183.134
172.232
161.701
151.542
141.713
132.16
122.821
113.633
104.534
194.537
183.682
173.011
162.59
152.434
142.529
132.844
123.333
113.949
104.641
194.667
184.044
173.542
163.212
153.074
143.127
133.352
123.718
114.188
104.723
194.752
184.284
173.901
163.641
153.524
143.554
133.719
123.998
114.364
104.782
194.807
184.441
174.137
163.926
153.827
143.844
133.972
124.193
114.486
104.824
194.839
184.534
174.279
164.1
154.014
144.025
134.13
124.316
114.564
104.85
194.854
184.577
174.345
164.182
154.103
144.113
134.208
124.377
114.603
104.864
194.853
184.574
174.341
164.179
154.103
144.115
134.212
124.381
114.606
104.865
194.835
184.523
174.267
164.092
154.014
144.033
134.143
124.329
114.574
104.854
194.797
184.417
174.111
163.91
153.827
143.86
133.997
124.22
114.507
104.831
194.732
184.236
173.849
163.609
153.524
143.583
133.766
124.048
114.401
104.796
194.623
183.944
173.442
163.155
153.077
143.183
133.437
123.805
114.252
104.746
194.44
183.475
172.82
162.491
152.448
142.634
132.994
123.482
114.057
104.68
194.097
182.697
171.872
161.544
151.591
141.911
132.425
123.075
113.812
104.599
193.348
181.344
170.43
160.221
150.461
140.995
131.722
122.579
113.518
104.501
191.296
178.904
168.283
158.451
149.041
139.886
130.892
122.002
113.178
104.389
184.224
174.695
165.348
156.26
147.37
138.618
129.959
121.362
112.803
104.266
178.024
170.308
162.156
153.874
145.564
137.26
128.967
120.684
112.408
104.136
173.032
166.359
159.1
151.518
143.757
135.893
127.966
120
112.01
104.005
169.048
163
156.37
149.346
142.058
134.593
127.008
119.343
111.626
103.879
165.875
160.227
154.039
147.441
140.539
133.416
126.134
118.74
111.273
103.763
163.377
157.998
152.123
145.843
139.245
132.401
125.374
118.214
110.963
103.661
161.462
156.268
150.614
144.568
138.199
131.574
124.75
117.779
110.707
103.576
160.071
155.002
149.499
143.616
137.413
130.947
124.275
117.447
110.51
103.511
159.164
154.174
148.765
142.986
136.889
130.529
123.957
117.224
110.378
103.468
158.716
153.764
148.401
142.673
136.628
130.319
123.798
117.113
110.312
103.45
184.22
174.691
165.344
156.256
147.367
138.615
129.956
121.359
112.801
104.264
178.021
170.304
162.153
153.87
145.561
137.256
128.963
120.681
112.406
104.134
173.029
166.356
159.097
151.515
143.754
135.89
127.963
119.997
112.007
104.003
169.045
162.997
156.367
149.343
142.055
134.59
127.005
119.34
111.623
103.877
165.873
160.224
154.036
147.438
140.536
133.413
126.13
118.737
111.27
103.761
163.374
157.995
152.12
145.84
139.242
132.398
125.37
118.21
110.96
103.658
161.46
156.266
150.611
144.565
138.196
131.57
124.746
117.774
110.703
103.573
160.068
155
149.496
143.613
137.409
130.944
124.271
117.442
110.505
103.508
159.161
154.171
148.762
142.983
136.886
130.525
123.952
117.219
110.372
103.463
158.714
153.761
148.398
142.67
136.625
130.315
123.793
117.108
110.305
103.444
184.22
174.691
165.344
156.256
147.367
138.615
129.956
121.359
112.801
104.264
178.021
170.304
162.153
153.87
145.561
137.256
128.963
120.681
112.406
104.134
173.029
166.356
159.097
151.515
143.754
135.89
127.963
119.997
112.007
104.003
169.045
162.997
156.367
149.343
142.055
134.59
127.005
119.34
111.623
103.877
165.873
160.224
154.036
147.438
140.536
133.413
126.13
118.737
111.27
103.761
163.374
157.995
152.12
145.84
139.242
132.398
125.37
118.21
110.96
103.658
161.46
156.266
150.611
144.565
138.196
131.57
124.746
117.774
110.703
103.573
160.068
155
149.496
143.613
137.41
130.944
124.271
117.442
110.505
103.508
159.161
154.171
148.762
142.983
136.886
130.525
123.952
117.219
110.372
103.463
158.714
153.761
148.398
142.67
136.625
130.315
123.793
117.108
110.305
103.444
184.224
174.695
165.348
156.26
147.37
138.618
129.959
121.362
112.803
104.266
178.024
170.308
162.156
153.874
145.564
137.26
128.967
120.684
112.408
104.136
173.032
166.359
159.1
151.518
143.757
135.893
127.966
120
112.01
104.005
169.048
163
156.37
149.346
142.058
134.593
127.008
119.343
111.626
103.879
165.875
160.227
154.039
147.441
140.539
133.416
126.134
118.74
111.273
103.763
163.377
157.998
152.123
145.843
139.245
132.401
125.374
118.214
110.963
103.661
161.462
156.268
150.614
144.568
138.199
131.574
124.75
117.779
110.707
103.576
160.071
155.003
149.499
143.616
137.413
130.947
124.275
117.447
110.51
103.511
159.164
154.174
148.765
142.986
136.889
130.529
123.957
117.224
110.378
103.468
158.716
153.764
148.401
142.673
136.628
130.319
123.798
117.113
110.312
103.45
192.878
195.644
196.817
197.455
197.86
198.137
198.332
198.465
198.549
198.59
198.591
198.55
198.467
198.334
198.14
197.862
197.458
196.82
195.647
192.881
184.529
188.526
190.989
192.599
193.708
194.496
195.058
195.446
195.692
195.812
195.813
195.695
195.45
195.062
194.502
193.714
192.606
190.996
188.532
184.534
178.691
182.942
186.016
188.245
189.878
191.081
191.958
192.572
192.963
193.154
193.155
192.967
192.578
191.966
191.091
189.889
188.256
186.028
182.954
178.701
174.27
178.537
181.891
184.487
186.481
187.996
189.123
189.923
190.436
190.688
190.69
190.441
189.931
189.134
188.01
186.497
184.505
181.91
178.556
174.288
170.825
175.047
178.526
181.335
183.565
185.303
186.618
187.563
188.174
188.476
188.478
188.181
187.574
186.634
185.322
183.588
181.36
178.553
175.075
170.852
168.136
172.303
175.834
178.764
181.146
183.036
184.487
185.541
186.227
186.567
186.569
186.236
185.555
184.508
183.062
181.175
178.798
175.871
172.342
168.176
166.082
170.199
173.748
176.746
179.222
181.214
182.759
183.89
184.631
184.999
185.002
184.642
183.908
182.785
181.246
179.26
176.789
173.796
170.25
166.135
164.591
168.667
172.22
175.254
177.787
179.844
181.452
182.635
183.413
183.801
183.805
183.426
182.656
181.482
179.882
177.833
175.306
172.278
168.73
164.657
163.617
167.666
171.217
174.269
176.834
178.929
180.575
181.79
182.592
182.992
182.997
182.607
181.815
180.609
178.973
176.887
174.33
171.284
167.739
163.695
163.135
167.171
170.72
173.78
176.359
178.472
180.135
181.365
182.178
182.585
182.59
182.194
181.392
180.172
178.519
176.416
173.845
170.793
167.25
163.22
192.881
195.646
196.819
197.456
197.861
198.138
198.333
198.466
198.55
198.59
198.59
198.55
198.466
198.333
198.139
197.861
197.457
196.819
195.645
192.878
184.532
188.528
190.992
192.601
193.709
194.497
195.059
195.447
195.693
195.812
195.812
195.694
195.449
195.061
194.5
193.713
192.604
190.994
188.53
184.531
178.694
182.945
186.019
188.247
189.88
191.083
191.959
192.573
192.963
193.154
193.155
192.966
192.577
191.965
191.09
189.887
188.254
186.026
182.951
178.698
174.274
178.54
181.894
184.489
186.483
187.998
189.124
189.924
190.437
190.688
190.689
190.441
189.93
189.133
188.009
186.495
184.503
181.907
178.553
174.286
170.828
175.05
178.528
181.337
183.567
185.305
186.619
187.564
188.175
188.476
188.478
188.181
187.573
186.632
185.321
183.586
181.358
178.55
175.072
170.85
168.139
172.306
175.837
178.766
181.148
183.038
184.489
185.541
186.227
186.567
186.569
186.235
185.554
184.506
183.06
181.174
178.796
175.869
172.34
168.173
166.085
170.202
173.751
176.748
179.224
181.216
182.761
183.891
184.631
184.999
185.002
184.641
183.907
182.783
181.244
179.258
176.787
173.794
170.248
166.133
164.594
168.67
172.223
175.256
177.789
179.846
181.453
182.635
183.413
183.801
183.805
183.426
182.656
181.481
179.881
177.831
175.305
172.276
168.728
164.655
163.62
167.669
171.219
174.272
176.836
178.931
180.576
181.791
182.592
182.992
182.997
182.606
181.814
180.608
178.972
176.885
174.328
171.282
167.737
163.692
163.138
167.173
170.722
173.782
176.361
178.473
180.136
181.366
182.179
182.585
182.59
182.194
181.391
180.171
178.518
176.414
173.844
170.791
167.248
163.218
192.881
195.646
196.819
197.456
197.861
198.138
198.333
198.466
198.55
198.59
198.59
198.55
198.466
198.333
198.139
197.861
197.457
196.819
195.645
192.878
184.532
188.529
190.992
192.601
193.71
194.497
195.059
195.447
195.693
195.812
195.812
195.694
195.449
195.061
194.5
193.713
192.604
190.994
188.53
184.531
178.694
182.945
186.019
188.247
189.88
191.083
191.959
192.573
192.963
193.154
193.155
192.966
192.577
191.965
191.09
189.887
188.254
186.026
182.951
178.698
174.274
178.54
181.894
184.489
186.483
187.998
189.124
189.924
190.437
190.688
190.69
190.441
189.93
189.133
188.009
186.495
184.503
181.907
178.553
174.286
170.828
175.05
178.528
181.337
183.567
185.305
186.619
187.564
188.175
188.476
188.478
188.181
187.573
186.632
185.321
183.586
181.358
178.55
175.072
170.85
168.139
172.306
175.837
178.766
181.148
183.038
184.489
185.541
186.227
186.567
186.569
186.235
185.554
184.506
183.06
181.174
178.796
175.869
172.34
168.173
166.085
170.202
173.751
176.748
179.224
181.216
182.761
183.891
184.631
184.999
185.002
184.641
183.907
182.784
181.244
179.258
176.787
173.794
170.248
166.133
164.594
168.67
172.223
175.256
177.789
179.846
181.453
182.635
183.413
183.801
183.805
183.426
182.656
181.481
179.881
177.831
175.305
172.276
168.728
164.655
163.62
167.669
171.219
174.272
176.836
178.931
180.576
181.791
182.592
182.992
182.997
182.606
181.814
180.608
178.972
176.885
174.328
171.282
167.737
163.692
163.138
167.173
170.722
173.782
176.361
178.473
180.136
181.366
182.178
182.584
182.59
182.194
181.391
180.171
178.518
176.414
173.843
170.791
167.248
163.218
192.878
195.644
196.817
197.455
197.86
198.137
198.332
198.465
198.549
198.59
198.591
198.55
198.467
198.334
198.14
197.862
197.458
196.82
195.647
192.881
184.529
188.526
190.989
192.599
193.708
194.496
195.058
195.446
195.692
195.812
195.813
195.695
195.45
195.062
194.502
193.714
192.606
190.996
188.532
184.534
178.691
182.942
186.016
188.245
189.878
191.081
191.958
192.572
192.963
193.154
193.155
192.967
192.578
191.966
191.091
189.889
188.256
186.028
182.954
178.701
174.27
178.537
181.891
184.487
186.481
187.996
189.123
189.923
190.436
190.688
190.69
190.441
189.931
189.134
188.01
186.497
184.505
181.909
178.556
174.288
170.825
175.047
178.526
181.335
183.565
185.303
186.618
187.563
188.174
188.476
188.478
188.181
187.574
186.634
185.322
183.588
181.36
178.553
175.075
170.853
168.136
172.303
175.834
178.764
181.146
183.036
184.487
185.541
186.227
186.567
186.569
186.236
185.555
184.508
183.062
181.175
178.798
175.871
172.342
168.176
166.082
170.199
173.748
176.746
179.222
181.214
182.759
183.89
184.631
184.999
185.003
184.642
183.908
182.785
181.246
179.26
176.789
173.796
170.25
166.135
164.591
168.667
172.22
175.254
177.787
179.844
181.452
182.635
183.413
183.801
183.805
183.426
182.657
181.482
179.882
177.833
175.307
172.278
168.73
164.657
163.617
167.666
171.217
174.269
176.834
178.929
180.575
181.79
182.592
182.992
182.997
182.607
181.815
180.609
178.973
176.887
174.33
171.284
167.739
163.695
163.136
167.171
170.72
173.78
176.359
178.472
180.135
181.365
182.178
182.585
182.59
182.194
181.392
180.172
178.519
176.416
173.845
170.793
167.25
163.22
104.266
112.805
121.365
129.964
138.624
147.377
156.265
165.351
174.697
184.222
104.136
112.409
120.686
128.97
137.264
145.569
153.877
162.158
170.307
178.02
104.004
112.009
120.001
127.968
135.894
143.758
151.517
159.096
166.353
173.024
103.877
111.623
119.34
127.005
134.588
142.051
149.337
156.359
162.986
169.032
103.76
111.268
118.733
126.124
133.404
140.523
147.422
154.017
160.202
165.848
103.657
110.955
118.201
125.356
132.379
139.217
145.811
152.087
157.96
163.337
103.571
110.694
117.759
124.723
131.539
138.158
144.521
150.563
156.215
161.408
103.504
110.493
117.419
124.236
130.899
137.357
143.554
149.433
154.934
160.002
103.459
110.357
117.187
123.906
130.467
136.819
142.91
148.685
154.093
159.083
103.432
110.288
117.069