/*--------------------------------*- C++ -*----------------------------------*\
| =========                 |                                                 |
| \\      /  F ield         | OpenFOAM: The Open Source CFD Toolbox           |
|  \\    /   O peration     | Version:  2.4.0                                 |
|   \\  /    A nd           | Web:      www.OpenFOAM.org                      |
|    \\/     M anipulation  |                                                 |
\*---------------------------------------------------------------------------*/
FoamFile
{
    version     2.0;
    format      ascii;
    class       volScalarField;
    location    "1";
    object      p;
}
// * * * * * * * * * * * * * * * * * * * * * * * * * * * * * * * * * * * * * //

dimensions      [0 2 -2 0 0 0 0];

internalField   nonuniform List<scalar> 
4800
(
-2.63654e-06
-0.00138933
-0.00265147
-0.0034184
-0.00341494
-0.00251835
-0.000697311
0.00203389
0.00562228
0.00996828
0.00138113
-2.38771e-05
-0.000893214
-0.00122366
-0.000915612
0.000124024
0.00192981
0.00450424
0.00782238
0.0118244
0.00265949
0.000811449
-5.88057e-05
-0.000261066
0.000150678
0.00123098
0.0030033
0.00547852
0.00865569
0.0125079
0.00334575
0.000992697
-1.02104e-05
-0.000219204
0.000190265
0.00124024
0.00294602
0.00533228
0.00843083
0.0122593
0.00301182
0.000276463
-0.000861439
-0.00113012
-0.000787948
0.000169114
0.00176179
0.00404393
0.00710119
0.0110324
0.00140058
-0.00154592
-0.00278858
-0.00315106
-0.00293655
-0.00214374
-0.000729191
0.0014115
0.00445104
0.00865439
-0.00159325
-0.00456649
-0.00586969
-0.00635111
-0.00632619
-0.00578519
-0.00464611
-0.00273233
0.000255201
0.00493062
-0.00594891
-0.00877072
-0.0100872
-0.0107091
-0.0109399
-0.0107589
-0.0100384
-0.00851793
-0.00575327
-0.00042577
-0.011528
-0.0140443
-0.0153298
-0.0161079
-0.0166554
-0.0169503
-0.0168247
-0.015935
-0.01374
-0.00757072
-0.0180862
-0.0201849
-0.0214003
-0.0223353
-0.02324
-0.0241253
-0.0248462
-0.0250713
-0.0246008
-0.0193135
-4.88904e-06
-0.00140807
-0.00267934
-0.00345402
-0.00345483
-0.00255982
-0.000738614
0.00199449
0.00558678
0.00993893
0.00139605
-2.73891e-05
-0.000876507
-0.00119871
-0.000886785
0.000155314
0.00196102
0.00453322
0.00784783
0.0118464
0.00268622
0.000788728
-5.96264e-05
-0.000260036
0.000149435
0.00122975
0.00300194
0.00547664
0.00865326
0.0125066
0.00338367
0.000961807
-1.03035e-05
-0.000216983
0.000188686
0.00123811
0.00294344
0.00532873
0.00842553
0.0122548
0.00305684
0.000241058
-0.000857709
-0.00112208
-0.000783681
0.000172932
0.00176492
0.00404518
0.00709708
0.0110258
0.00144867
-0.00158452
-0.00278387
-0.00314102
-0.00293017
-0.00213761
-0.0007234
0.00141578
0.00444456
0.00863775
-0.00154551
-0.0046056
-0.00586473
-0.0063402
-0.00631833
-0.00577711
-0.0046372
-0.00272145
0.00024693
0.00488994
-0.00590493
-0.00880792
-0.0100826
-0.0106984
-0.0109314
-0.0107502
-0.0100286
-0.00850029
-0.00577608
-0.000568445
-0.0114911
-0.0140778
-0.0153265
-0.0160986
-0.0166466
-0.01694
-0.0168102
-0.0158869
-0.013728
-0.00789417
-0.0180589
-0.0202139
-0.0213998
-0.0223299
-0.0232336
-0.0241144
-0.0248219
-0.024943
-0.0243099
-0.0193934
-5.12576e-06
-0.00140824
-0.00267943
-0.00345406
-0.00345486
-0.00255984
-0.000738631
0.00199446
0.00558677
0.00993892
0.00139589
-2.75055e-05
-0.000876589
-0.00119876
-0.000886829
0.000155277
0.001961
0.0045332
0.00784781
0.0118464
0.00268611
0.000788646
-5.96932e-05
-0.00026008
0.000149397
0.00122972
0.00300192
0.00547662
0.00865324
0.0125066
0.00338358
0.000961741
-1.03604e-05
-0.000217024
0.000188647
0.00123808
0.00294341
0.00532871
0.00842551
0.0122547
0.00305678
0.000241018
-0.000857752
-0.00112211
-0.000783714
0.000172904
0.0017649
0.00404516
0.00709706
0.0110258
0.00144863
-0.00158455
-0.00278391
-0.00314105
-0.00293019
-0.00213763
-0.000723419
0.00141576
0.00444454
0.00863773
-0.00154554
-0.00460563
-0.00586476
-0.00634023
-0.00631836
-0.00577713
-0.00463722
-0.00272147
0.000246917
0.00488993
-0.00590495
-0.00880794
-0.0100826
-0.0106984
-0.0109314
-0.0107502
-0.0100287
-0.00850031
-0.00577609
-0.000568456
-0.0114911
-0.0140778
-0.0153266
-0.0160986
-0.0166466
-0.0169401
-0.0168102
-0.0158869
-0.013728
-0.00789418
-0.0180589
-0.0202139
-0.0213998
-0.02233
-0.0232337
-0.0241144
-0.0248219
-0.024943
-0.0243099
-0.0193934
-4.38904e-06
-0.00139002
-0.0026518
-0.00341858
-0.00341505
-0.00251843
-0.00069737
0.00203383
0.00562223
0.00996825
0.00138048
-2.4268e-05
-0.000893461
-0.00122382
-0.000915727
0.000123939
0.00192974
0.00450418
0.00782233
0.0118244
0.00265917
0.000811202
-5.89911e-05
-0.000261199
0.000150574
0.00123091
0.00300323
0.00547846
0.00865565
0.0125079
0.00334556
0.000992535
-1.03533e-05
-0.000219316
0.000190173
0.00124016
0.00294595
0.00533222
0.00843079
0.0122592
0.00301169
0.000276352
-0.000861546
-0.00113021
-0.00078803
0.000169045
0.00176173
0.00404388
0.00710116
0.0110323
0.00140048
-0.00154601
-0.00278867
-0.00315114
-0.00293662
-0.0021438
-0.000729245
0.00141145
0.00445099
0.00865435
-0.00159333
-0.00456656
-0.00586977
-0.00635117
-0.00632625
-0.00578524
-0.00464616
-0.00273238
0.000255162
0.00493059
-0.00594897
-0.00877079
-0.0100872
-0.0107091
-0.0109399
-0.010759
-0.0100384
-0.00851797
-0.0057533
-0.000425799
-0.0115281
-0.0140443
-0.0153298
-0.0161079
-0.0166555
-0.0169503
-0.0168247
-0.0159351
-0.01374
-0.00757075
-0.0180863
-0.0201849
-0.0214003
-0.0223354
-0.0232401
-0.0241253
-0.0248462
-0.0250713
-0.0246009
-0.0193136
0.0149222
0.0203058
0.02596
0.0317664
0.0376474
0.0435592
0.0494814
0.0554091
0.061348
0.0673121
0.0733234
0.0794125
0.0856189
0.0919899
0.0985761
0.105422
0.112551
0.119937
0.127488
0.135014
0.0164069
0.0214325
0.0267755
0.0323344
0.0380334
0.0438209
0.0496654
0.0555504
0.0614717
0.0674342
0.0734517
0.0795452
0.0857424
0.0920752
0.0985754
0.105267
0.112154
0.119206
0.126336
0.133389
0.0169549
0.0218558
0.0270902
0.0325616
0.0381945
0.0439352
0.049748
0.0556124
0.0615191
0.0674683
0.0734681
0.0795333
0.0856841
0.0919448
0.09834
0.10489
0.111602
0.118456
0.125391
0.132282
0.0167523
0.0217103
0.0269945
0.0325054
0.0381664
0.0439251
0.0497476
0.0556141
0.0615148
0.0674475
0.0734165
0.0794313
0.0855061
0.0916597
0.0979146
0.104295
0.110823
0.117509
0.124334
0.131226
0.0157964
0.0210187
0.026519
0.0321952
0.0379735
0.0438098
0.0496799
0.0555705
0.0614754
0.0673928
0.073324
0.0792733
0.0852486
0.0912626
0.0973351
0.103497
0.109793
0.116276
0.122998
0.129987
0.0140639
0.0198363
0.0257421
0.0317072
0.037678
0.0436359
0.0495781
0.055506
0.061421
0.0673237
0.0732133
0.0790883
0.0849484
0.0907972
0.0966486
0.102537
0.108529
0.114731
0.121297
0.128461
0.0116581
0.0183738
0.0248726
0.0312111
0.0374033
0.043487
0.0494977
0.0554581
0.0613798
0.0672662
0.0731135
0.0789133
0.0846541
0.0903263
0.0959294
0.10149
0.10709
0.112888
0.119171
0.126574
0.00889473
0.0170349
0.0242352
0.0309373
0.0372978
0.0434533
0.0494927
0.0554606
0.0613763
0.0672429
0.0730519
0.0787854
0.0844183
0.0899219
0.0952721
0.100472
0.105606
0.110858
0.116627
0.124226
0.00750034
0.0171996
0.0245815
0.0312608
0.0375411
0.0436186
0.0496036
0.0555378
0.0614319
0.0672805
0.073066
0.0787585
0.0843161
0.0896843
0.094798
0.0996065
0.104153
0.108494
0.112898
0.1198
0.011768
0.0218616
0.0272872
0.0327335
0.0383405
0.0440583
0.0498607
0.05571
0.0615727
0.067419
0.0732157
0.0789185
0.0844638
0.0897588
0.0946665
0.0989925
0.102479
0.104856
0.105554
0.109008
0.0149005
0.0202909
0.0259504
0.0317605
0.037644
0.0435572
0.0494802
0.0554082
0.0613471
0.0673109
0.0733217
0.0794102
0.085616
0.0919865
0.0985725
0.105419
0.112549
0.119939
0.127496
0.135031
0.0164264
0.0214487
0.0267882
0.0323439
0.0380402
0.0438259
0.049669
0.0555534
0.0614743
0.0674369
0.0734545
0.0795482
0.0857453
0.0920775
0.0985763
0.105265
0.112148
0.119194
0.126318
0.133365
0.0169576
0.0218601
0.0270947
0.0325658
0.0381981
0.0439379
0.0497501
0.055614
0.0615203
0.0674692
0.0734689
0.0795338
0.0856844
0.0919446
0.0983393
0.104888
0.111599
0.118452
0.125385
0.132278
0.016756
0.0217162
0.0270002
0.0325104
0.0381704
0.043928
0.0497497
0.0556155
0.0615157
0.0674482
0.073417
0.0794315
0.0855062
0.0916597
0.0979142
0.104294
0.110821
0.117506
0.124328
0.131221
0.0158065
0.0210298
0.0265276
0.0322019
0.0379782
0.0438129
0.0496818
0.0555717
0.0614762
0.0673933
0.0733244
0.0792737
0.0852491
0.091263
0.0973353
0.103497
0.109791
0.116273
0.122989
0.129974
0.0140864
0.0198546
0.025753
0.0317144
0.0376822
0.0436381
0.0495792
0.0555065
0.0614212
0.0673238
0.0732134
0.0790885
0.0849487
0.0907977
0.0966492
0.102537
0.108528
0.114728
0.121281
0.12843
0.011719
0.0184121
0.0248893
0.0312198
0.037407
0.0434881
0.0494979
0.0554579
0.0613796
0.067266
0.0731135
0.0789135
0.0846546
0.0903271
0.0959304
0.10149
0.107089
0.112883
0.119134
0.126489
0.0089995
0.0170749
0.0242424
0.0309403
0.0372975
0.0434519
0.0494913
0.0554595
0.0613754
0.0672422
0.0730513
0.0787849
0.084418
0.0899223
0.0952733
0.100472
0.105605
0.110862
0.116594
0.124089
0.00763272
0.0171425
0.0245196
0.0312357
0.0375287
0.0436114
0.0495994
0.0555349
0.0614292
0.0672776
0.0730624
0.0787542
0.0843114
0.0896801
0.0947966
0.0996097
0.10417
0.108569
0.112993
0.119643
0.0125151
0.0219764
0.0272923
0.0327523
0.0383524
0.0440635
0.0498635
0.0557118
0.0615742
0.0674206
0.0732176
0.0789208
0.0844666
0.0897616
0.0946678
0.0989874
0.102469
0.104879
0.105495
0.108105
0.0149004
0.0202909
0.0259504
0.0317605
0.037644
0.0435572
0.0494802
0.0554082
0.0613471
0.0673109
0.0733217
0.0794102
0.085616
0.0919865
0.0985725
0.105419
0.112549
0.119939
0.127496
0.135031
0.0164263
0.0214487
0.0267881
0.0323439
0.0380402
0.0438258
0.049669
0.0555534
0.0614743
0.0674369
0.0734545
0.0795482
0.0857453
0.0920775
0.0985763
0.105265
0.112148
0.119194
0.126318
0.133365
0.0169575
0.0218601
0.0270947
0.0325658
0.0381981
0.0439379
0.0497501
0.055614
0.0615203
0.0674692
0.0734689
0.0795338
0.0856844
0.0919446
0.0983393
0.104888
0.111599
0.118452
0.125385
0.132278
0.016756
0.0217162
0.0270002
0.0325104
0.0381704
0.043928
0.0497497
0.0556155
0.0615157
0.0674482
0.073417
0.0794315
0.0855062
0.0916597
0.0979142
0.104294
0.110821
0.117506
0.124328
0.131221
0.0158065
0.0210298
0.0265276
0.0322019
0.0379782
0.0438129
0.0496818
0.0555717
0.0614762
0.0673933
0.0733244
0.0792737
0.085249
0.091263
0.0973353
0.103497
0.109791
0.116273
0.122989
0.129974
0.0140864
0.0198546
0.025753
0.0317144
0.0376822
0.043638
0.0495792
0.0555065
0.0614212
0.0673238
0.0732134
0.0790885
0.0849487
0.0907977
0.0966492
0.102537
0.108528
0.114728
0.121281
0.12843
0.011719
0.0184121
0.0248893
0.0312198
0.0374069
0.0434881
0.0494979
0.0554579
0.0613796
0.067266
0.0731135
0.0789135
0.0846546
0.0903271
0.0959304
0.10149
0.107089
0.112883
0.119134
0.126489
0.00899949
0.0170749
0.0242424
0.0309403
0.0372975
0.0434519
0.0494913
0.0554595
0.0613754
0.0672422
0.0730513
0.0787849
0.084418
0.0899223
0.0952733
0.100472
0.105605
0.110862
0.116594
0.124089
0.00763271
0.0171425
0.0245196
0.0312357
0.0375287
0.0436114
0.0495994
0.0555348
0.0614292
0.0672776
0.0730624
0.0787542
0.0843114
0.0896801
0.0947966
0.0996097
0.10417
0.108569
0.112993
0.119643
0.0125151
0.0219764
0.0272923
0.0327523
0.0383524
0.0440635
0.0498635
0.0557118
0.0615742
0.0674206
0.0732176
0.0789208
0.0844666
0.0897616
0.0946678
0.0989874
0.102469
0.104879
0.105495
0.108105
0.0149222
0.0203058
0.02596
0.0317663
0.0376474
0.0435592
0.0494814
0.0554091
0.061348
0.0673121
0.0733234
0.0794125
0.0856189
0.0919899
0.0985761
0.105422
0.112551
0.119937
0.127488
0.135014
0.0164069
0.0214325
0.0267755
0.0323344
0.0380334
0.0438209
0.0496654
0.0555504
0.0614716
0.0674342
0.0734517
0.0795452
0.0857424
0.0920752
0.0985754
0.105267
0.112154
0.119206
0.126336
0.133389
0.0169549
0.0218558
0.0270902
0.0325615
0.0381945
0.0439352
0.049748
0.0556124
0.0615191
0.0674683
0.0734682
0.0795333
0.0856841
0.0919448
0.09834
0.10489
0.111602
0.118456
0.125391
0.132282
0.0167523
0.0217103
0.0269945
0.0325053
0.0381664
0.043925
0.0497476
0.0556141
0.0615148
0.0674475
0.0734165
0.0794313
0.0855061
0.0916597
0.0979146
0.104295
0.110823
0.117509
0.124334
0.131226
0.0157964
0.0210187
0.0265189
0.0321952
0.0379735
0.0438098
0.0496799
0.0555705
0.0614754
0.0673928
0.073324
0.0792733
0.0852486
0.0912625
0.0973351
0.103497
0.109793
0.116276
0.122998
0.129987
0.0140639
0.0198363
0.0257421
0.0317072
0.0376779
0.0436358
0.0495781
0.055506
0.061421
0.0673237
0.0732133
0.0790883
0.0849484
0.0907972
0.0966486
0.102537
0.108529
0.114731
0.121297
0.128461
0.011658
0.0183737
0.0248726
0.0312111
0.0374033
0.043487
0.0494977
0.0554581
0.0613798
0.0672662
0.0731135
0.0789133
0.0846541
0.0903263
0.0959294
0.10149
0.10709
0.112888
0.119171
0.126574
0.00889471
0.0170349
0.0242352
0.0309373
0.0372978
0.0434533
0.0494927
0.0554606
0.0613763
0.0672429
0.0730519
0.0787854
0.0844183
0.089922
0.0952721
0.100472
0.105606
0.110858
0.116627
0.124226
0.00750032
0.0171996
0.0245815
0.0312608
0.0375411
0.0436186
0.0496036
0.0555378
0.0614319
0.0672805
0.0730659
0.0787585
0.0843161
0.0896843
0.094798
0.0996065
0.104153
0.108494
0.112898
0.1198
0.011768
0.0218615
0.0272872
0.0327335
0.0383405
0.0440582
0.0498607
0.05571
0.0615727
0.067419
0.0732157
0.0789185
0.0844638
0.0897588
0.0946666
0.0989925
0.102479
0.104856
0.105554
0.109008
0.142229
0.148788
0.154369
0.158726
0.161721
0.163334
0.163669
0.162984
0.161705
0.160319
0.140131
0.146272
0.151547
0.155753
0.158775
0.160599
0.161316
0.161135
0.1603
0.158933
0.138915
0.144987
0.15023
0.154449
0.157532
0.159461
0.160313
0.160265
0.159431
0.157672
0.13798
0.144208
0.149608
0.153968
0.15717
0.159192
0.160105
0.160064
0.159101
0.156905
0.137074
0.14366
0.149376
0.153992
0.157384
0.159535
0.160515
0.160477
0.159411
0.15691
0.136188
0.143363
0.149556
0.154532
0.158177
0.160493
0.161566
0.161559
0.160453
0.157809
0.135465
0.143487
0.150275
0.15567
0.159591
0.162086
0.163274
0.163334
0.162262
0.159634
0.135238
0.144374
0.151793
0.157583
0.161732
0.16437
0.165663
0.165813
0.164841
0.16237
0.135706
0.146565
0.154554
0.160568
0.164771
0.167429
0.168765
0.168996
0.168166
0.165967
0.140987
0.152726
0.159876
0.165239
0.168973
0.171362
0.172599
0.172856
0.172178
0.170325
0.142257
0.148825
0.154413
0.158774
0.16177
0.163379
0.163707
0.16301
0.16172
0.160319
0.140102
0.146239
0.15151
0.155714
0.158736
0.160563
0.161285
0.161113
0.160296
0.158915
0.138916
0.14499
0.150235
0.154454
0.157537
0.159464
0.160313
0.160264
0.159448
0.157644
0.137985
0.144217
0.149619
0.153979
0.15718
0.1592
0.160107
0.160065
0.159126
0.15687
0.137081
0.143668
0.149385
0.154
0.15739
0.159539
0.160513
0.160475
0.15944
0.15687
0.136199
0.143374
0.149565
0.154541
0.158183
0.160496
0.161564
0.161558
0.160484
0.157768
0.13549
0.143502
0.150285
0.155679
0.159597
0.162089
0.163272
0.163333
0.162293
0.159592
0.135367
0.144422
0.151811
0.157594
0.161736
0.164371
0.16566
0.165811
0.16487
0.162331
0.135996
0.146577
0.154531
0.160559
0.164764
0.167425
0.16876
0.168994
0.168192
0.165931
0.140907
0.152403
0.159732
0.165199
0.168957
0.171355
0.172594
0.172854
0.1722
0.170295
0.142257
0.148825
0.154413
0.158774
0.16177
0.163379
0.163707
0.16301
0.16172
0.160319
0.140102
0.146239
0.15151
0.155714
0.158736
0.160563
0.161285
0.161113
0.160296
0.158915
0.138916
0.14499
0.150235
0.154454
0.157537
0.159464
0.160313
0.160264
0.159448
0.157644
0.137985
0.144217
0.149619
0.153979
0.15718
0.1592
0.160107
0.160065
0.159126
0.15687
0.137081
0.143668
0.149385
0.154
0.15739
0.159539
0.160513
0.160475
0.15944
0.15687
0.136199
0.143374
0.149565
0.154541
0.158183
0.160496
0.161564
0.161558
0.160484
0.157768
0.13549
0.143502
0.150285
0.155679
0.159597
0.162089
0.163272
0.163333
0.162293
0.159592
0.135367
0.144422
0.151811
0.157594
0.161736
0.164371
0.16566
0.165811
0.16487
0.162331
0.135996
0.146577
0.154531
0.160559
0.164764
0.167425
0.16876
0.168994
0.168192
0.165931
0.140907
0.152403
0.159732
0.165199
0.168957
0.171355
0.172594
0.172854
0.1722
0.170295
0.142229
0.148788
0.154369
0.158726
0.161721
0.163334
0.163669
0.162984
0.161705
0.160319
0.140131
0.146272
0.151547
0.155753
0.158775
0.160599
0.161316
0.161135
0.1603
0.158933
0.138915
0.144987
0.15023
0.154449
0.157532
0.159461
0.160313
0.160265
0.159431
0.157672
0.13798
0.144208
0.149608
0.153968
0.15717
0.159192
0.160105
0.160064
0.159101
0.156905
0.137074
0.14366
0.149376
0.153992
0.157384
0.159535
0.160515
0.160477
0.159411
0.15691
0.136188
0.143363
0.149556
0.154532
0.158177
0.160493
0.161566
0.161559
0.160453
0.157809
0.135465
0.143487
0.150275
0.15567
0.159591
0.162086
0.163274
0.163334
0.162262
0.159634
0.135238
0.144374
0.151793
0.157583
0.161732
0.16437
0.165663
0.165813
0.164841
0.16237
0.135706
0.146565
0.154554
0.160568
0.164771
0.167429
0.168765
0.168996
0.168166
0.165967
0.140987
0.152726
0.159876
0.165239
0.168973
0.171362
0.172599
0.172856
0.172178
0.170325
0.172045
0.167782
0.169185
0.171961
0.174381
0.176128
0.177098
0.177312
0.176773
0.175295
0.18211
0.177462
0.177313
0.17867
0.180152
0.181353
0.182063
0.182224
0.181815
0.180701
0.187505
0.184824
0.1845
0.185161
0.186056
0.186856
0.187354
0.18747
0.187176
0.186384
0.192915
0.191484
0.191191
0.191494
0.192019
0.192535
0.19287
0.192951
0.192753
0.192225
0.198485
0.19775
0.197548
0.197686
0.19799
0.198313
0.198532
0.198588
0.198465
0.198142
0.204171
0.203828
0.203715
0.20378
0.203952
0.204146
0.204281
0.204319
0.204252
0.204084
0.209963
0.209841
0.209792
0.209819
0.209905
0.210006
0.210076
0.210095
0.210068
0.210018
0.215838
0.215863
0.215847
0.215841
0.215855
0.215875
0.215884
0.215877
0.215872
0.215915
0.221815
0.221931
0.221925
0.221873
0.221808
0.221741
0.221677
0.221628
0.221628
0.221742
0.227921
0.228097
0.22807
0.227943
0.227773
0.227592
0.227429
0.227313
0.227293
0.227457
0.234216
0.234414
0.234325
0.234078
0.233757
0.233416
0.233112
0.232892
0.23282
0.233002
0.240787
0.240947
0.240733
0.240302
0.239765
0.239203
0.2387
0.238325
0.238154
0.238306
0.247757
0.247768
0.247337
0.246636
0.245798
0.244938
0.244167
0.243573
0.24324
0.243279
0.255281
0.254947
0.254167
0.253085
0.251851
0.250608
0.249493
0.248607
0.248028
0.24783
0.263559
0.262523
0.26121
0.259628
0.257902
0.256202
0.254674
0.253424
0.252496
0.251868
0.272802
0.270473
0.268373
0.26617
0.26389
0.261703
0.259733
0.258058
0.256656
0.255354
0.283113
0.278544
0.275348
0.272472
0.269674
0.267074
0.264716
0.26261
0.260609
0.258302
0.294111
0.285945
0.281438
0.27804
0.274964
0.27222
0.269692
0.267253
0.264558
0.260847
0.30544
0.291735
0.285536
0.281995
0.279199
0.276904
0.274711
0.272245
0.268856
0.263295
0.318954
0.293606
0.28475
0.282262
0.281156
0.280571
0.279724
0.27791
0.274041
0.266205
0.172792
0.167914
0.16929
0.172022
0.174404
0.176139
0.177101
0.177314
0.176793
0.175274
0.182225
0.177405
0.177353
0.178708
0.18017
0.181364
0.182069
0.182228
0.18183
0.180686
0.18751
0.184763
0.184507
0.185178
0.186067
0.186865
0.18736
0.187474
0.187188
0.186375
0.192934
0.19146
0.191195
0.191503
0.192027
0.192541
0.192875
0.192955
0.192761
0.192219
0.198496
0.197739
0.197548
0.19769
0.197995
0.198318
0.198536
0.198591
0.19847
0.198139
0.204175
0.203823
0.203714
0.203781
0.203955
0.204149
0.204284
0.204321
0.204255
0.204083
0.209964
0.20984
0.209792
0.20982
0.209906
0.210007
0.210078
0.210096
0.210069
0.210018
0.215838
0.215864
0.215847
0.21584
0.215856
0.215876
0.215885
0.215877
0.215871
0.215916
0.221813
0.221934
0.221925
0.221872
0.221809
0.221741
0.221678
0.221628
0.221625
0.221744
0.227918
0.228101
0.22807
0.227943
0.227773
0.227592
0.227429
0.227313
0.227289
0.22746
0.234211
0.234419
0.234324
0.234077
0.233757
0.233416
0.233113
0.232892
0.232816
0.233006
0.240782
0.240952
0.240732
0.240301
0.239764
0.239202
0.238701
0.238325
0.23815
0.23831
0.247752
0.247771
0.247335
0.246634
0.245797
0.244937
0.244167
0.243573
0.243237
0.243285
0.255277
0.254944
0.254163
0.253082
0.251849
0.250607
0.249493
0.248609
0.248029
0.247834
0.263558
0.262508
0.261203
0.259624
0.257898
0.256201
0.254675
0.253427
0.252503
0.251871
0.272813
0.270439
0.268365
0.266166
0.263886
0.261702
0.259734
0.258064
0.256675
0.255352
0.283169
0.278485
0.275343
0.272471
0.26967
0.267073
0.264718
0.262618
0.260644
0.258291
0.294224
0.285793
0.281416
0.278038
0.274957
0.272219
0.269695
0.267267
0.264617
0.260821
0.305591
0.291391
0.285517
0.282031
0.279211
0.276916
0.27472
0.272266
0.268949
0.26325
0.320294
0.293677
0.285032
0.282452
0.281225
0.280604
0.279741
0.277941
0.274178
0.266131
0.172792
0.167914
0.16929
0.172022
0.174404
0.176139
0.177101
0.177314
0.176793
0.175274
0.182225
0.177405
0.177353
0.178708
0.18017
0.181364
0.182069
0.182228
0.18183
0.180686
0.18751
0.184763
0.184507
0.185178
0.186067
0.186865
0.18736
0.187474
0.187188
0.186375
0.192934
0.19146
0.191195
0.191503
0.192027
0.192541
0.192875
0.192955
0.192761
0.192219
0.198496
0.197739
0.197548
0.19769
0.197995
0.198318
0.198536
0.198591
0.19847
0.198139
0.204175
0.203823
0.203714
0.203781
0.203955
0.204149
0.204284
0.204321
0.204255
0.204083
0.209964
0.20984
0.209792
0.20982
0.209906
0.210007
0.210078
0.210096
0.210069
0.210018
0.215838
0.215864
0.215847
0.21584
0.215856
0.215876
0.215885
0.215877
0.215871
0.215916
0.221813
0.221934
0.221925
0.221872
0.221809
0.221741
0.221678
0.221628
0.221625
0.221744
0.227918
0.228101
0.22807
0.227943
0.227773
0.227592
0.227429
0.227313
0.227289
0.22746
0.234211
0.234419
0.234324
0.234077
0.233757
0.233416
0.233113
0.232892
0.232816
0.233006
0.240782
0.240952
0.240732
0.240301
0.239764
0.239202
0.238701
0.238325
0.23815
0.23831
0.247752
0.247771
0.247335
0.246634
0.245797
0.244937
0.244167
0.243573
0.243237
0.243285
0.255277
0.254944
0.254163
0.253082
0.251849
0.250607
0.249493
0.248609
0.248029
0.247834
0.263558
0.262508
0.261203
0.259624
0.257898
0.256201
0.254675
0.253427
0.252503
0.251871
0.272813
0.270439
0.268365
0.266166
0.263886
0.261702
0.259734
0.258064
0.256675
0.255352
0.283169
0.278485
0.275343
0.272471
0.26967
0.267073
0.264718
0.262618
0.260644
0.258291
0.294224
0.285793
0.281416
0.278038
0.274957
0.272219
0.269695
0.267267
0.264617
0.260821
0.305591
0.291391
0.285517
0.282031
0.279211
0.276916
0.27472
0.272266
0.268949
0.26325
0.320294
0.293677
0.285032
0.282452
0.281225
0.280604
0.279741
0.277941
0.274178
0.266131
0.172045
0.167782
0.169185
0.171961
0.174381
0.176128
0.177098
0.177312
0.176773
0.175295
0.18211
0.177462
0.177313
0.17867
0.180152
0.181353
0.182063
0.182224
0.181815
0.180701
0.187505
0.184824
0.1845
0.185161
0.186056
0.186856
0.187354
0.18747
0.187176
0.186384
0.192915
0.191484
0.191191
0.191494
0.192019
0.192535
0.19287
0.192951
0.192753
0.192225
0.198485
0.19775
0.197548
0.197686
0.19799
0.198313
0.198532
0.198588
0.198465
0.198142
0.204171
0.203828
0.203715
0.20378
0.203952
0.204146
0.204281
0.204319
0.204252
0.204084
0.209963
0.209841
0.209792
0.209819
0.209905
0.210006
0.210076
0.210095
0.210068
0.210018
0.215838
0.215863
0.215847
0.215841
0.215855
0.215875
0.215884
0.215877
0.215872
0.215915
0.221815
0.221931
0.221925
0.221873
0.221808
0.221741
0.221677
0.221628
0.221628
0.221742
0.227921
0.228097
0.22807
0.227943
0.227773
0.227592
0.227429
0.227313
0.227293
0.227457
0.234216
0.234414
0.234325
0.234078
0.233757
0.233416
0.233112
0.232892
0.23282
0.233002
0.240787
0.240947
0.240733
0.240302
0.239765
0.239203
0.2387
0.238325
0.238154
0.238306
0.247757
0.247768
0.247337
0.246636
0.245798
0.244938
0.244167
0.243573
0.24324
0.243279
0.255281
0.254947
0.254167
0.253085
0.251851
0.250608
0.249493
0.248607
0.248028
0.24783
0.263559
0.262523
0.26121
0.259628
0.257902
0.256202
0.254674
0.253424
0.252496
0.251868
0.272802
0.270473
0.268373
0.26617
0.26389
0.261703
0.259733
0.258058
0.256656
0.255354
0.283113
0.278544
0.275348
0.272472
0.269674
0.267074
0.264716
0.26261
0.260609
0.258302
0.294111
0.285945
0.281438
0.27804
0.274964
0.27222
0.269692
0.267253
0.264558
0.260847
0.30544
0.291735
0.285536
0.281995
0.279199
0.276904
0.274711
0.272245
0.268856
0.263295
0.318954
0.293606
0.28475
0.282262
0.281156
0.280571
0.279724
0.27791
0.274041
0.266205
0.256045
0.264625
0.271025
0.275546
0.279257
0.28253
0.284667
0.284695
0.280921
0.270507
0.227368
0.243885
0.255696
0.265457
0.274522
0.283006
0.289811
0.293309
0.290705
0.277709
0.210472
0.226384
0.240062
0.253578
0.267829
0.28245
0.295671
0.304775
0.305146
0.290201
0.197152
0.21127
0.225509
0.241699
0.260705
0.282018
0.303355
0.320711
0.326857
0.311892
0.187156
0.199719
0.214058
0.232249
0.255538
0.283801
0.314828
0.3436
0.359772
0.349279
0.180887
0.192711
0.207451
0.227621
0.255027
0.290471
0.332739
0.376813
0.409535
0.412625
0.178211
0.190533
0.206581
0.2292
0.261061
0.304266
0.359647
0.423916
0.482897
0.516517
0.178548
0.192188
0.210223
0.235881
0.272749
0.324682
0.395602
0.485779
0.585289
0.68845
0.180279
0.195066
0.214526
0.242215
0.28267
0.341965
0.428629
0.551072
0.719383
0.999006
0.181831
0.196154
0.214509
0.240303
0.278321
0.336073
0.427746
0.581031
0.866815
1.48361
0.256354
0.264123
0.270897
0.275527
0.279249
0.282537
0.284671
0.284729
0.281113
0.270398
0.227821
0.243842
0.255652
0.265428
0.274501
0.283002
0.289805
0.293347
0.290967
0.277558
0.210743
0.226412
0.240043
0.253546
0.267796
0.282427
0.295644
0.304813
0.30549
0.290007
0.197247
0.211261
0.225467
0.24164
0.260639
0.281957
0.303285
0.320732
0.327278
0.311651
0.187183
0.199692
0.213999
0.232161
0.255429
0.283682
0.314691
0.343581
0.360223
0.349018
0.180882
0.192676
0.207388
0.227507
0.254869
0.29027
0.332493
0.376698
0.409913
0.412566
0.17822
0.190511
0.206517
0.229076
0.260859
0.303946
0.359197
0.423573
0.4829
0.516994
0.17859
0.19222
0.210242
0.235877
0.272688
0.324467
0.395199
0.48539
0.584029
0.688126
0.180348
0.195175
0.214704
0.242498
0.283091
0.342512
0.429353
0.551655
0.716158
0.996697
0.181887
0.196201
0.214537
0.240315
0.278342
0.336155
0.428111
0.58148
0.863144
1.49286
0.256354
0.264123
0.270897
0.275527
0.279249
0.282537
0.284671
0.284729
0.281113
0.270398
0.227821
0.243842
0.255652
0.265428
0.274501
0.283002
0.289805
0.293347
0.290967
0.277558
0.210743
0.226412
0.240043
0.253546
0.267796
0.282427
0.295644
0.304813
0.30549
0.290007
0.197247
0.211261
0.225467
0.24164
0.260639
0.281957
0.303285
0.320732
0.327278
0.311651
0.187183
0.199692
0.213999
0.232161
0.255429
0.283682
0.314691
0.343581
0.360223
0.349018
0.180882
0.192676
0.207388
0.227507
0.254869
0.29027
0.332493
0.376698
0.409913
0.412566
0.17822
0.190511
0.206517
0.229076
0.260859
0.303946
0.359197
0.423573
0.4829
0.516995
0.17859
0.19222
0.210242
0.235877
0.272688
0.324467
0.395199
0.48539
0.584029
0.688126
0.180348
0.195175
0.214704
0.242498
0.283091
0.342512
0.429353
0.551655
0.716158
0.996697
0.181887
0.196201
0.214537
0.240315
0.278342
0.336155
0.428111
0.58148
0.863144
1.49286
0.256045
0.264625
0.271025
0.275546
0.279257
0.28253
0.284667
0.284695
0.280921
0.270507
0.227368
0.243885
0.255696
0.265457
0.274522
0.283006
0.289811
0.293309
0.290705
0.277709
0.210472
0.226384
0.240062
0.253578
0.267829
0.28245
0.295671
0.304775
0.305146
0.290201
0.197152
0.21127
0.225509
0.241699
0.260705
0.282018
0.303355
0.320711
0.326857
0.311892
0.187156
0.199719
0.214058
0.232249
0.255538
0.283801
0.314828
0.3436
0.359772
0.349279
0.180887
0.192711
0.207451
0.227621
0.255027
0.290471
0.332739
0.376813
0.409535
0.412625
0.178211
0.190533
0.206581
0.2292
0.261061
0.304266
0.359647
0.423916
0.482897
0.516517
0.178548
0.192188
0.210223
0.235881
0.272749
0.324682
0.395602
0.485779
0.585289
0.68845
0.180279
0.195066
0.214526
0.242215
0.28267
0.341965
0.428629
0.551072
0.719383
0.999006
0.181831
0.196154
0.214509
0.240303
0.278321
0.336073
0.427746
0.581031
0.866815
1.48361
-0.147705
-0.127335
-0.109818
-0.0935264
-0.0771373
-0.0604954
-0.0436231
-0.0265738
-0.00941876
0.00776405
0.0248936
0.0418904
0.0586711
0.0751879
0.0914473
0.107614
0.124142
0.142017
0.164466
0.201764
-0.135014
-0.121521
-0.107113
-0.0919522
-0.0761115
-0.0597992
-0.0431474
-0.0262549
-0.00920824
0.00791469
0.0250437
0.0421157
0.0590914
0.075959
0.0927861
0.109775
0.127325
0.146067
0.167552
0.195564
-0.132425
-0.120265
-0.106503
-0.0916309
-0.075959
-0.0597351
-0.043122
-0.0262371
-0.0091723
0.00799745
0.0252097
0.0424125
0.0595704
0.0766733
0.09376
0.110953
0.128481
0.14667
0.16615
0.188007
-0.133972
-0.121426
-0.107412
-0.0923515
-0.0765341
-0.0601821
-0.0434524
-0.0264573
-0.00927996
0.00801537
0.0253764
0.0427577
0.0601185
0.0774241
0.0946509
0.111796
0.128878
0.145924
0.16304
0.180399
-0.137162
-0.123806
-0.109197
-0.093684
-0.0775231
-0.0609055
-0.043965
-0.0267942
-0.00945816
0.00799481
0.0255242
0.0430887
0.0606374
0.0781018
0.0953878
0.112369
0.128884
0.144735
0.159761
0.173922
-0.140252
-0.126105
-0.110891
-0.0949177
-0.078411
-0.0615334
-0.044394
-0.0270638
-0.00959023
0.00799255
0.0256523
0.0433477
0.0610148
0.0785523
0.0958074
0.112565
0.128548
0.143454
0.157051
0.169367
-0.141501
-0.126946
-0.111454
-0.0952885
-0.0786491
-0.0616781
-0.0444697
-0.0270841
-0.00956073
0.00807076
0.0257785
0.0435157
0.0612049
0.0787213
0.0958774
0.112416
0.128025
0.142394
0.155339
0.167023
-0.139918
-0.125592
-0.110359
-0.0944325
-0.0779942
-0.0611822
-0.0440941
-0.0267967
-0.00933672
0.0082478
0.025916
0.0436105
0.0612419
0.0786733
0.0957076
0.112088
0.127521
0.141751
0.154694
0.16665
-0.135472
-0.122182
-0.107816
-0.0925746
-0.0766569
-0.060229
-0.0434189
-0.0263211
-0.00900559
0.00847134
0.0260544
0.043674
0.0612327
0.078592
0.095561
0.111901
0.127354
0.141721
0.154984
0.167511
-0.127916
-0.116795
-0.104049
-0.0899827
-0.0748957
-0.0590444
-0.0426298
-0.025802
-0.00867083
0.00868019
0.0261793
0.0437528
0.0613049
0.0787026
0.0957667
0.112271
0.127967
0.142644
0.156244
0.169036
-0.147982
-0.127194
-0.1098
-0.0935457
-0.0771482
-0.0605022
-0.0436279
-0.0265769
-0.00942035
0.00776374
0.0248941
0.0418911
0.0586711
0.0751853
0.0914379
0.107594
0.124119
0.141972
0.16413
0.201063
-0.134959
-0.121371
-0.107047
-0.0919189
-0.0760868
-0.0597816
-0.0431353
-0.0262467
-0.00920301
0.00791778
0.0250458
0.0421181
0.0590963
0.0759692
0.0928049
0.109807
0.127387
0.146147
0.16746
0.195288
-0.132477
-0.120239
-0.106479
-0.0916127
-0.0759445
-0.0597248
-0.0431148
-0.0262321
-0.00916886
0.00799975
0.0252111
0.0424134
0.059571
0.0766734
0.0937584
0.110948
0.128475
0.146654
0.166056
0.187909