/*--------------------------------*- C++ -*----------------------------------*\
| =========                 |                                                 |
| \\      /  F ield         | OpenFOAM: The Open Source CFD Toolbox           |
|  \\    /   O peration     | Version:  2.4.0                                 |
|   \\  /    A nd           | Web:      www.OpenFOAM.org                      |
|    \\/     M anipulation  |                                                 |
\*---------------------------------------------------------------------------*/
FoamFile
{
    version     2.0;
    format      ascii;
    class       surfaceScalarField;
    location    "1";
    object      phi;
}
// * * * * * * * * * * * * * * * * * * * * * * * * * * * * * * * * * * * * * //

dimensions      [0 3 -1 0 0 0 0];

internalField   nonuniform List<scalar> 
12720
(
6.36681e-08
-6.31841e-08
1.56688e-10
-6.21609e-07
6.83734e-07
1.54218e-09
-2.0162e-06
1.3923e-06
2.29301e-09
-3.89098e-06
1.87186e-06
2.93063e-09
-6.04283e-06
2.14857e-06
3.28258e-09
-8.30915e-06
2.2629e-06
3.4122e-09
-1.05566e-05
2.24403e-06
3.39897e-09
-1.26687e-05
2.10887e-06
3.24242e-09
-1.4543e-05
1.87136e-06
2.92068e-09
1.55565e-06
2.41523e-09
-1.6101e-05
-7.07402e-07
6.45447e-07
-1.2284e-09
-3.03411e-06
3.01013e-06
3.05099e-10
-6.71975e-06
5.07939e-06
-1.45138e-09
-1.1389e-05
6.54333e-06
-2.16706e-09
-1.66635e-05
7.42556e-06
-2.50428e-09
-2.21973e-05
7.79938e-06
-2.71822e-09
-2.76781e-05
7.72758e-06
-2.71112e-09
-3.28225e-05
7.25578e-06
-2.5179e-09
-3.73833e-05
6.43438e-06
-2.21126e-09
5.35208e-06
-1.91015e-09
-4.11779e-05
-1.50635e-06
2.154e-06
-2.19968e-09
-5.34342e-06
6.84522e-06
1.97379e-09
-1.09529e-05
1.06888e-05
7.13006e-11
-1.78223e-05
1.34128e-05
-8.9497e-11
-2.5467e-05
1.50702e-05
1.0803e-10
-3.34335e-05
1.57658e-05
1.07393e-10
-4.1293e-05
1.5587e-05
1.17955e-10
-4.86396e-05
1.46022e-05
1.63007e-10
-5.51087e-05
1.29033e-05
2.11119e-10
1.06695e-05
1.17707e-10
-6.04263e-05
-2.11741e-06
4.27452e-06
-3.12025e-09
-7.16652e-06
1.18916e-05
2.68347e-09
-1.42944e-05
1.78167e-05
8.07986e-12
-2.28509e-05
2.19695e-05
-1.92971e-10
-3.22718e-05
2.44909e-05
1.37193e-10
-4.20347e-05
2.55284e-05
1.8473e-10
-5.16303e-05
2.51824e-05
2.24e-10
-6.05532e-05
2.35247e-05
3.08364e-10
-6.83238e-05
2.06735e-05
4.60878e-10
1.6905e-05
3.90729e-10
-7.45596e-05
-2.52123e-06
6.79946e-06
-3.70487e-09
-8.40839e-06
1.77757e-05
3.07572e-09
-1.65934e-05
2.6002e-05
-3.24078e-10
-2.63193e-05
3.16961e-05
-6.98514e-10
-3.69665e-05
3.51385e-05
-3.70698e-10
-4.79705e-05
3.65328e-05
-3.31667e-10
-5.87658e-05
3.5978e-05
-2.72306e-10
-6.87574e-05
3.35164e-05
-1.08764e-10
-7.73338e-05
2.92495e-05
3.57655e-10
2.35216e-05
5.65962e-10
-8.39511e-05
-2.71978e-06
9.52319e-06
-3.95797e-09
-9.03926e-06
2.40919e-05
3.35287e-09
-1.77807e-05
3.47439e-05
-4.09088e-10
-2.81305e-05
4.20468e-05
-8.71517e-10
-3.94448e-05
4.64533e-05
-5.54229e-10
-5.11439e-05
4.82324e-05
-5.32902e-10
-6.26312e-05
4.74658e-05
-5.03117e-10
-7.32352e-05
4.41208e-05
-3.71984e-10
-8.2188e-05
3.82018e-05
5.62982e-10
3.00153e-05
1.44551e-09
-8.86831e-05
-2.71909e-06
1.22462e-05
-3.92905e-09
-9.05573e-06
3.04251e-05
3.39771e-09
-1.78273e-05
4.35159e-05
-4.3103e-10
-2.82173e-05
5.24377e-05
-9.47073e-10
-3.95892e-05
5.78258e-05
-6.82944e-10
-5.13774e-05
6.00213e-05
-7.01881e-10
-6.29886e-05
5.90778e-05
-7.74066e-10
-7.37082e-05
5.48414e-05
-9.44768e-10
-8.26097e-05
4.71025e-05
7.18561e-10
3.58766e-05
3.53427e-09
-8.84746e-05
-2.53021e-06
1.478e-05
-3.61926e-09
-8.4796e-06
3.63713e-05
3.23146e-09
-1.67491e-05
5.17858e-05
-3.9693e-10
-2.65611e-05
6.22506e-05
-9.29632e-10
-3.73062e-05
6.85717e-05
-7.41412e-10
-4.84518e-05
7.11677e-05
-7.5678e-10
-5.9445e-05
7.00718e-05
-8.4663e-10
-6.95914e-05
6.49893e-05
-1.53198e-09
-7.78767e-05
5.53859e-05
1.98164e-09
4.04886e-05
1.2245e-08
-8.2501e-05
-2.17687e-06
1.696e-05
-3.04294e-09
-7.37738e-06
4.15689e-05
2.91275e-09
-1.46472e-05
5.90559e-05
-2.82649e-10
-2.32648e-05
7.0869e-05
-8.03614e-10
-3.26388e-05
7.79464e-05
-7.62555e-10
-4.22505e-05
8.07804e-05
-8.90015e-10
-5.1586e-05
7.94085e-05
-1.26005e-09
-6.00218e-05
7.34294e-05
-4.18404e-09
-6.66504e-05
6.20155e-05
-1.04383e-09
4.29037e-05
2.80994e-08
-6.90936e-05
-1.70495e-06
-2.25122e-09
1.86672e-05
-5.88658e-06
2.52279e-09
4.5748e-05
-1.17644e-05
-4.40662e-11
6.49337e-05
-1.86638e-05
-4.68152e-10
7.77689e-05
-2.59624e-05
-5.55769e-10
8.52456e-05
-3.30582e-05
-9.43775e-10
8.78771e-05
-3.93323e-05
-2.11643e-09
8.56847e-05
-4.40354e-05
-1.11434e-08
7.81436e-05
-4.61631e-05
-2.52732e-08
6.41685e-05
6.93339e-09
-4.44512e-05
4.11849e-05
6.59303e-08
-6.57923e-08
1.80431e-11
-6.21891e-07
6.89351e-07
1.17704e-11
-2.01681e-06
1.3972e-06
7.17603e-12
-3.89109e-06
1.87721e-06
3.99147e-12
-6.04271e-06
2.1549e-06
2.97731e-12
-8.30902e-06
2.26972e-06
2.14104e-12
-1.05565e-05
2.2509e-06
1.69024e-12
-1.26688e-05
2.11548e-06
1.75971e-12
-1.45432e-05
1.87739e-06
1.22356e-12
1.56065e-06
9.50969e-13
-1.61015e-05
-7.12699e-07
6.45668e-07
1.10272e-11
-3.03884e-06
3.01579e-06
9.00127e-12
-6.72382e-06
5.08073e-06
6.79145e-12
-1.13918e-05
6.54304e-06
4.37315e-12
-1.66648e-05
7.42536e-06
4.02155e-12
-2.21972e-05
7.79943e-06
3.10477e-12
-2.7677e-05
7.72796e-06
2.30646e-12
-3.28207e-05
7.25662e-06
2.2331e-12
-3.73812e-05
6.43569e-06
1.80264e-12
5.35325e-06
1.37083e-12
-4.11757e-05
-1.51139e-06
2.15485e-06
8.12413e-12
-5.34422e-06
6.85058e-06
7.01901e-12
-1.09537e-05
1.06902e-05
5.81677e-12
-1.78232e-05
1.34125e-05
4.11538e-12
-2.54674e-05
1.50697e-05
3.53729e-12
-3.34335e-05
1.57656e-05
2.83425e-12
-4.12926e-05
1.55872e-05
2.32221e-12
-4.86389e-05
1.46031e-05
2.18203e-12
-5.51083e-05
1.29053e-05
1.5387e-12
1.06712e-05
1.04955e-12
-6.04261e-05
-2.12327e-06
4.27499e-06
6.28462e-12
-7.16568e-06
1.18957e-05
5.57485e-12
-1.42935e-05
1.7818e-05
4.90796e-12
-2.28508e-05
2.19696e-05
3.83074e-12
-3.22717e-05
2.44908e-05
3.51342e-12
-4.20345e-05
2.55285e-05
2.97705e-12
-5.163e-05
2.51829e-05
2.40556e-12
-6.05528e-05
2.35262e-05
1.96586e-12
-6.8324e-05
2.06769e-05
1.38335e-12
1.69083e-05
1.13205e-12
-7.45606e-05
-2.52834e-06
6.79963e-06
4.40301e-12
-8.40739e-06
1.77778e-05
3.68221e-12
-1.65922e-05
2.60025e-05
3.82049e-12
-2.6319e-05
3.16957e-05
3.20832e-12
-3.69664e-05
3.51378e-05
3.03113e-12
-4.79704e-05
3.65322e-05
2.53389e-12
-5.87655e-05
3.59777e-05
2.01108e-12
-6.87568e-05
3.35174e-05
1.65914e-12
-7.7334e-05
2.92544e-05
1.34027e-12
2.35279e-05
1.24789e-12
-8.3953e-05
-2.72751e-06
9.52317e-06
3.45618e-12
-9.03827e-06
2.40919e-05
3.00244e-12
-1.77796e-05
3.47434e-05
3.32971e-12
-2.81305e-05
4.20457e-05
2.79617e-12
-3.94451e-05
4.64519e-05
2.60118e-12
-5.11443e-05
4.82309e-05
2.19093e-12
-6.26313e-05
4.74642e-05
1.84318e-12
-7.32344e-05
4.41201e-05
1.60654e-12
-8.21879e-05
3.82085e-05
1.42401e-12
3.00283e-05
1.37696e-12
-8.86869e-05
-2.72683e-06
1.22461e-05
2.97162e-12
-9.05485e-06
3.04233e-05
2.81863e-12
-1.78264e-05
4.35145e-05
2.89719e-12
-2.82178e-05
5.24362e-05
2.39368e-12
-3.95904e-05
5.78238e-05
2.18302e-12
-5.1379e-05
6.00188e-05
1.95357e-12
-6.299e-05
5.90744e-05
1.82512e-12
-7.37077e-05
5.48369e-05
1.58309e-12
-8.26086e-05
4.71101e-05
1.33145e-12
3.59053e-05
1.26721e-12
-8.84821e-05
-2.53739e-06
1.47798e-05
2.42906e-12
-8.47888e-06
3.63681e-05
2.30363e-12
-1.67486e-05
5.17839e-05
2.22805e-12
-2.65623e-05
6.22488e-05
1.90886e-12
-3.73085e-05
6.85692e-05
1.75271e-12
-4.84549e-05
7.11645e-05
1.72732e-12
-5.94481e-05
7.00667e-05
1.7714e-12
-6.95904e-05
6.49776e-05
1.50615e-12
-7.78652e-05
5.5387e-05
1.19622e-12
4.05618e-05
9.93532e-13
-8.25095e-05
-2.18296e-06
1.69598e-05
2.32828e-12
-7.37677e-06
4.15648e-05
2.06516e-12
-1.46471e-05
5.90539e-05
2.00144e-12
-2.32667e-05
7.08677e-05
1.73642e-12
-3.26431e-05
7.79448e-05
1.59476e-12
-4.22579e-05
8.07784e-05
1.5994e-12
-5.15981e-05
7.94057e-05
1.60641e-12
-6.00377e-05
7.3413e-05
1.44908e-12
-6.6628e-05
6.19763e-05
1.2458e-12
4.30091e-05
8.90117e-13
-6.90473e-05
-1.70947e-06
2.04183e-12
1.8667e-05
-5.88569e-06
1.84716e-12
4.57435e-05
-1.17637e-05
1.77669e-12
6.49319e-05
-1.8665e-05
1.53484e-12
7.77685e-05
-2.59669e-05
1.42228e-12
8.52462e-05
-3.30691e-05
1.29663e-12
8.78796e-05
-3.93582e-05
1.24003e-12
8.56926e-05
-4.41128e-05
1.27756e-12
7.81565e-05
-4.6285e-05
1.37038e-12
6.41232e-05
1.07841e-12
-4.42505e-05
4.09815e-05
6.58993e-08
-6.58237e-08
-5.75923e-11
-6.21919e-07
6.89328e-07
-1.49898e-09
-2.01683e-06
1.39719e-06
-2.27346e-09
-3.8911e-06
1.8772e-06
-2.91992e-09
-6.04272e-06
2.1549e-06
-3.27656e-09
-8.30902e-06
2.26971e-06
-3.40809e-09
-1.05565e-05
2.2509e-06
-3.39556e-09
-1.26688e-05
2.11547e-06
-3.23968e-09
-1.45432e-05
1.87739e-06
-2.91826e-09
1.56065e-06
-2.4135e-09
-1.61015e-05
-7.12721e-07
6.45641e-07
1.26842e-09
-3.03886e-06
3.01576e-06
-2.81248e-10
-6.72384e-06
5.08071e-06
1.46577e-09
-1.13918e-05
6.54303e-06
2.17732e-09
-1.66648e-05
7.42535e-06
2.51044e-09
-2.21972e-05
7.79942e-06
2.72242e-09
-2.7677e-05
7.72796e-06
2.71541e-09
-3.28207e-05
7.25661e-06
2.52084e-09
-3.73812e-05
6.43569e-06
2.21354e-09
5.35325e-06
1.91231e-09
-4.11757e-05
-1.5114e-06
2.15483e-06
2.21694e-09
-5.34423e-06
6.85056e-06
-1.95946e-09
-1.09537e-05
1.06902e-05
-6.09866e-11
-1.78232e-05
1.34125e-05
9.72228e-11
-2.54674e-05
1.50697e-05
-1.02277e-10
-3.34335e-05
1.57655e-05
-1.03258e-10
-4.12926e-05
1.55872e-05
-1.14361e-10
-4.86389e-05
1.46031e-05
-1.60066e-10
-5.51082e-05
1.29053e-05
-2.08708e-10
1.06712e-05
-1.15988e-10
-6.04261e-05
-2.12328e-06
4.27498e-06
3.12914e-09
-7.16569e-06
1.18957e-05
-2.67517e-09
-1.42935e-05
1.7818e-05
-6.16449e-13
-2.28508e-05
2.19695e-05
1.99114e-10
-3.22717e-05
2.44908e-05
-1.32608e-10
-4.20345e-05
2.55285e-05
-1.80921e-10
-5.163e-05
2.51829e-05
-2.20396e-10
-6.05528e-05
2.35262e-05
-3.0557e-10
-6.8324e-05
2.06769e-05
-4.58824e-10
1.69083e-05
-3.89119e-10
-7.45606e-05
-2.52834e-06
6.79962e-06
3.71081e-09
-8.40739e-06
1.77778e-05
-3.06948e-09
-1.65922e-05
2.60025e-05
3.29607e-10
-2.6319e-05
3.16957e-05
7.03809e-10
-3.69664e-05
3.51378e-05
3.74973e-10
-4.79704e-05
3.65322e-05
3.35288e-10
-5.87655e-05
3.59777e-05
2.75632e-10
-6.87568e-05
3.35174e-05
1.11438e-10
-7.7334e-05
2.92544e-05
-3.55547e-10
2.35279e-05
-5.64243e-10
-8.3953e-05
-2.72751e-06
9.52316e-06
3.96229e-09
-9.03827e-06
2.40919e-05
-3.34794e-09
-1.77796e-05
3.47434e-05
4.13839e-10
-2.81305e-05
4.20457e-05
8.75963e-10
-3.94451e-05
4.64518e-05
5.57969e-10
-5.11443e-05
4.82309e-05
5.36146e-10
-6.26313e-05
4.74642e-05
5.06176e-10
-7.32344e-05
4.41201e-05
3.74769e-10
-8.21879e-05
3.82085e-05
-5.60619e-10
3.00283e-05
-1.44373e-09
-8.86868e-05
-2.72683e-06
1.22461e-05
3.93237e-09
-9.05485e-06
3.04233e-05
-3.3943e-09
-1.78264e-05
4.35145e-05
4.34946e-10
-2.82178e-05
5.24361e-05
9.50471e-10
-3.95904e-05
5.78237e-05
6.85956e-10
-5.1379e-05
6.00188e-05
7.04655e-10
-6.299e-05
5.90744e-05
7.76792e-10
-7.37077e-05
5.48369e-05
9.4743e-10
-8.26086e-05
4.71101e-05
-7.16234e-10
3.59053e-05
-3.53248e-09
-8.84821e-05
-2.53739e-06
1.47798e-05
3.62213e-09
-8.47888e-06
3.6368e-05
-3.22811e-09
-1.67486e-05
5.17839e-05
4.0026e-10
-2.65622e-05
6.22488e-05
9.3254e-10
-3.73085e-05
6.85692e-05
7.44234e-10
-4.84549e-05
7.11645e-05
7.59473e-10
-5.9448e-05
7.00667e-05
8.49091e-10
-6.95903e-05
6.49776e-05
1.53424e-09
-7.78652e-05
5.5387e-05
-1.97949e-09
4.05618e-05
-1.2243e-08
-8.25094e-05
-2.18296e-06
1.69597e-05
3.04552e-09
-7.37677e-06
4.15648e-05
-2.90971e-09
-1.46471e-05
5.90539e-05
2.85444e-10
-2.32667e-05
7.08677e-05
8.06228e-10
-3.26431e-05
7.79448e-05
7.65285e-10
-4.22579e-05
8.07784e-05
8.92668e-10
-5.15981e-05
7.94057e-05
1.26227e-09
-6.00377e-05
7.3413e-05
4.18589e-09
-6.6628e-05
6.19763e-05
1.04551e-09
4.30091e-05
-2.80978e-08
-6.90473e-05
-1.70947e-06
2.25381e-09
1.8667e-05
-5.88569e-06
-2.52035e-09
4.57435e-05
-1.17637e-05
4.65785e-11
6.49319e-05
-1.8665e-05
4.70431e-10
7.77685e-05
-2.59669e-05
5.58162e-10
8.52462e-05
-3.30691e-05
9.46221e-10
8.78796e-05
-3.93582e-05
2.11864e-09
8.56926e-05
-4.41128e-05
1.11451e-08
7.81565e-05
-4.6285e-05
2.52745e-08
6.41232e-05
-6.93209e-09
-4.42505e-05
4.09815e-05
6.33984e-08
-6.34562e-08
-6.21735e-07
6.83629e-07
-2.01626e-06
1.39225e-06
-3.89101e-06
1.87184e-06
-6.04285e-06
2.14856e-06
-8.30915e-06
2.2629e-06
-1.05566e-05
2.24403e-06
-1.26687e-05
2.10886e-06
-1.4543e-05
1.87136e-06
1.55565e-06
-1.6101e-05
-7.07503e-07
6.45321e-07
-3.0342e-06
3.01004e-06
-6.71981e-06
5.07933e-06
-1.13891e-05
6.54329e-06
-1.66636e-05
7.42554e-06
-2.21973e-05
7.79937e-06
-2.76781e-05
7.72757e-06
-3.28225e-05
7.25578e-06
-3.73833e-05
6.43438e-06
5.35208e-06
-4.11778e-05
-1.5064e-06
2.15394e-06
-5.34347e-06
6.84515e-06
-1.0953e-05
1.06888e-05
-1.78224e-05
1.34128e-05
-2.5467e-05
1.50701e-05
-3.34335e-05
1.57657e-05
-4.1293e-05
1.55869e-05
-4.86396e-05
1.46022e-05
-5.51087e-05
1.29033e-05
1.06695e-05
-6.04263e-05
-2.11742e-06
4.27449e-06
-7.16654e-06
1.18916e-05
-1.42944e-05
1.78167e-05
-2.28509e-05
2.19695e-05
-3.22718e-05
2.44909e-05
-4.20346e-05
2.55284e-05
-5.16303e-05
2.51824e-05
-6.05531e-05
2.35247e-05
-6.83237e-05
2.06735e-05
1.6905e-05
-7.45596e-05
-2.52123e-06
6.79943e-06
-8.4084e-06
1.77757e-05
-1.65934e-05
2.6002e-05
-2.63193e-05
3.16961e-05
-3.69665e-05
3.51384e-05
-4.79705e-05
3.65328e-05
-5.87658e-05
3.59779e-05
-6.87574e-05
3.35164e-05
-7.73338e-05
2.92495e-05
2.35216e-05
-8.3951e-05
-2.71978e-06
9.52317e-06
-9.03926e-06
2.40918e-05
-1.77807e-05
3.47438e-05
-2.81305e-05
4.20467e-05
-3.94447e-05
4.64532e-05
-5.11438e-05
4.82324e-05
-6.26312e-05
4.74658e-05
-7.32351e-05
4.41208e-05
-8.21879e-05
3.82018e-05
3.00153e-05
-8.86831e-05
-2.71909e-06
1.22462e-05
-9.05573e-06
3.04251e-05
-1.78273e-05
4.35158e-05
-2.82172e-05
5.24376e-05
-3.95891e-05
5.78258e-05
-5.13773e-05
6.00213e-05
-6.29886e-05
5.90778e-05
-7.37082e-05
5.48414e-05
-8.26097e-05
4.71025e-05
3.58766e-05
-8.84745e-05
-2.53021e-06
1.478e-05
-8.47959e-06
3.63712e-05
-1.67491e-05
5.17857e-05
-2.6561e-05
6.22505e-05
-3.73062e-05
6.85717e-05
-4.84518e-05
7.11677e-05
-5.94449e-05
7.00718e-05
-6.95913e-05
6.49893e-05
-7.78767e-05
5.53859e-05
4.04886e-05
-8.2501e-05
-2.17687e-06
1.69599e-05
-7.37738e-06
4.15688e-05
-1.46472e-05
5.90558e-05
-2.32648e-05
7.08689e-05
-3.26388e-05
7.79464e-05
-4.22505e-05
8.07803e-05
-5.15859e-05
7.94085e-05
-6.00218e-05
7.34293e-05
-6.66504e-05
6.20155e-05
4.29037e-05
-6.90936e-05
-1.70495e-06
1.86671e-05
-5.88657e-06
4.57479e-05
-1.17644e-05
6.49337e-05
-1.86638e-05
7.77688e-05
-2.59624e-05
8.52456e-05
-3.30582e-05
8.78771e-05
-3.93323e-05
8.56846e-05
-4.40354e-05
7.81436e-05
-4.61631e-05
6.41685e-05
-4.44512e-05
4.11849e-05
-1.73083e-05
1.20545e-06
1.78895e-09
-1.81848e-05
8.75284e-07
1.22678e-09
-1.87868e-05
6.01182e-07
7.91168e-10
-1.91824e-05
3.95149e-07
4.81963e-10
-1.94356e-05
2.52945e-07
2.8142e-10
-1.95987e-05
1.62903e-07
1.62311e-10
-1.9711e-05
1.12263e-07
9.98439e-11
-1.98015e-05
9.03496e-08
7.64797e-11
-1.98909e-05
8.93296e-08
8.0005e-11
-1.99946e-05
1.0359e-07
1.02525e-10
-2.01231e-05
1.28439e-07
1.3939e-10
-2.02818e-05
1.5848e-07
1.86546e-10
-2.04679e-05
1.85818e-07
2.37236e-10
-2.06664e-05
1.98268e-07
2.79901e-10
-2.08447e-05
1.78012e-07
2.95322e-10
-2.09467e-05
1.01767e-07
2.56604e-10
-2.08882e-05
-5.86316e-08
1.25164e-10
-2.05635e-05
-3.24562e-07
-1.60501e-10
-1.9856e-05
-7.06898e-07
-6.47709e-10
-1.1862e-06
-1.36897e-09
-1.86684e-05
-4.41305e-05
4.15975e-06
-1.6893e-09
-4.62934e-05
3.0396e-06
-1.4026e-09
-4.78002e-05
2.10906e-06
-1.09567e-09
-4.88101e-05
1.40588e-06
-8.20723e-10
-4.94718e-05
9.15282e-07
-5.95838e-10
-4.99072e-05
5.98754e-07
-4.2883e-10
-5.02088e-05
4.14175e-07
-3.18085e-10
-5.04439e-05
3.25678e-07
-2.54782e-10
-5.06603e-05
3.05994e-07
-2.28426e-10
-5.08911e-05
3.34539e-07
-2.28872e-10
-5.11558e-05
3.93431e-07
-2.44573e-10
-5.14596e-05
4.62523e-07
-2.597e-10
-5.17876e-05
5.14029e-07
-2.54155e-10
-5.20965e-05
5.07426e-07
-2.02461e-10
-5.23044e-05
3.8596e-07
-7.35485e-11
-5.228e-05
7.71879e-08
1.61656e-10
-5.18402e-05
-4.98899e-07
5.23248e-10
-5.07569e-05
-1.40893e-06
1.0164e-09
-4.87911e-05
-2.67425e-06
1.5997e-09
-4.22831e-06
2.13728e-09
-4.57511e-05
-6.44865e-05
8.22018e-06
-2.29341e-10
-6.73983e-05
5.9518e-06
-3.74948e-10
-6.93875e-05
4.09858e-06
-3.96891e-10
-7.06994e-05
2.71818e-06
-3.6836e-10
-7.15486e-05
1.76477e-06
-3.08488e-10
-7.21016e-05
1.15207e-06
-2.41153e-10
-7.24797e-05
7.92449e-07
-1.81846e-10
-7.27677e-05
6.13815e-07
-1.35751e-10
-7.30239e-05
5.62236e-07
-1.02802e-10
-7.32865e-05
5.97208e-07
-7.99422e-11
-7.35767e-05
6.8375e-07
-6.27767e-11
-7.38973e-05
7.83099e-07
-4.57046e-11
-7.42261e-05
8.42866e-07
-2.31792e-11
-7.45063e-05
7.87632e-07
1.13394e-11
-7.46325e-05
5.12126e-07
6.59733e-11
-7.44367e-05
-1.18778e-07
1.44412e-10
-7.36795e-05
-1.25633e-06
2.41951e-10
-7.20569e-05
-3.03194e-06
3.57303e-10
-6.92366e-05
-5.49501e-06
4.66413e-10
-8.52727e-06
3.8733e-10
-6.4938e-05
-7.91194e-05
1.27803e-05
-3.20881e-10
-8.22217e-05
9.05457e-06
-5.13387e-10
-8.42301e-05
6.10754e-06
-4.97188e-10
-8.54897e-05
3.97818e-06
-4.36396e-10
-8.62691e-05
2.5445e-06
-3.43922e-10
-8.67571e-05
1.64037e-06
-2.52162e-10
-8.70793e-05
1.11486e-06
-1.77914e-10
-8.73173e-05
8.51899e-07
-1.22645e-10
-8.75236e-05
7.68587e-07
-8.35092e-11
-8.77312e-05
8.04918e-07
-5.65232e-11
-8.79581e-05
9.10618e-07
-3.80417e-11
-8.8206e-05
1.03104e-06
-2.41016e-11
-8.84556e-05
1.09252e-06
-1.08769e-11
-8.86558e-05
9.87766e-07
6.85145e-12
-8.87072e-05
5.63521e-07
3.8424e-11
-8.8442e-05
-3.84094e-07
9.31256e-11
-8.76023e-05
-2.09612e-06
1.70292e-10
-8.58311e-05
-4.80347e-06
2.87796e-10
-8.26944e-05
-8.63214e-06
4.84697e-10
-1.34488e-05
4.1377e-10
-7.77733e-05
-8.83948e-05
1.72249e-05
-8.77837e-10
-9.10995e-05
1.17603e-05
-9.62391e-10
-9.26487e-05
7.65749e-06
-7.53564e-10
-9.35042e-05
4.83421e-06
-5.82155e-10
-9.39702e-05
3.01098e-06
-4.05821e-10
-9.42284e-05
1.89884e-06
-2.63671e-10
-9.43811e-05
1.26771e-06
-1.66887e-10
-9.4485e-05
9.55889e-07
-1.04791e-10
-9.45721e-05
8.5574e-07
-6.71772e-11
-9.46611e-05
8.93955e-07
-4.65429e-11
-9.47627e-05
1.01223e-06
-3.73513e-11
-9.48803e-05
1.14874e-06
-3.52093e-11
-9.50071e-05
1.21929e-06
-3.64934e-11
-9.51165e-05
1.09729e-06
-3.55046e-11
-9.51463e-05
5.93282e-07
-1.69976e-11
-9.49693e-05
-5.61102e-07
3.99004e-11
-9.43532e-05
-2.71234e-06
1.319e-10
-9.29152e-05
-6.2418e-06
3.11842e-10
-9.00996e-05
-1.14486e-05
8.28322e-10
-1.83002e-05
1.09762e-09
-8.52493e-05
-9.23193e-05
2.0863e-05
-1.95324e-09
-9.39793e-05
1.34219e-05
-1.59063e-09
-9.45933e-05
8.27243e-06
-9.46158e-10
-9.47376e-05
4.97912e-06
-6.27856e-10
-9.4706e-05
2.97974e-06
-3.66723e-10
-9.46267e-05
1.81973e-06
-1.90987e-10
-9.45455e-05
1.18662e-06
-9.40931e-11
-9.44732e-05
8.83666e-07
-4.33502e-11
-9.44087e-05
7.91249e-07
-1.83895e-11
-9.43492e-05
8.34423e-07
-8.73567e-12
-9.42948e-05
9.57876e-07
-8.5358e-12
-9.4251e-05
1.10492e-06
-1.51603e-11
-9.42284e-05
1.19671e-06
-2.80771e-11
-9.42394e-05
1.10839e-06
-4.53832e-11
-9.42858e-05
6.39708e-07
-4.91431e-11
-9.43275e-05
-5.19449e-07
-5.38029e-12
-9.42213e-05
-2.81861e-06
5.20019e-11
-9.36215e-05
-6.84176e-06
2.27828e-10
-9.18562e-05
-1.32153e-05
1.37939e-09
-2.22799e-05
2.70308e-09
-8.78792e-05
-9.04237e-05
2.28174e-05
-5.29774e-09
-9.03174e-05
1.33189e-05
-3.33189e-09
-8.95827e-05
7.53926e-06
-1.45789e-09
-8.8829e-05
4.22609e-06
-7.57112e-10
-8.8236e-05
2.3871e-06
-3.20022e-10
-8.78109e-05
1.3947e-06
-9.61323e-11
-8.75079e-05
8.83655e-07
-1.03512e-11
-8.72766e-05
6.52343e-07
1.74701e-11
-8.70766e-05
5.91254e-07
2.1881e-11
-8.6881e-05
6.3877e-07
1.56312e-11
-8.6677e-05
7.53902e-07
3.34288e-12
-8.64688e-05
8.96701e-07
-1.4645e-11
-8.62817e-05
1.0097e-06
-3.9782e-11
-8.6168e-05
9.94768e-07
-7.2906e-11
-8.62072e-05
6.79011e-07
-8.73008e-11
-8.64879e-05
-2.38779e-07
3.80617e-12
-8.70439e-05
-2.26279e-06
1.53338e-10
-8.77013e-05
-6.18484e-06
4.97135e-10
-8.77819e-05
-1.3138e-05
3.20667e-09
-2.43849e-05
7.38449e-09
-8.56842e-05
-8.14784e-05
2.18039e-05
-9.10136e-09
-7.8894e-05
1.0738e-05
-3.48135e-09
-7.6644e-05
5.28988e-06
-6.24997e-10
-7.50711e-05
2.65343e-06
-2.6007e-10
-7.40579e-05
1.37391e-06
2.34518e-11
-7.3418e-05
7.54664e-07
1.27045e-10
-7.29976e-05
4.63103e-07
1.17889e-10
-7.26888e-05
3.43484e-07
9.48159e-11
-7.24204e-05
3.22796e-07
7.75436e-11
-7.21473e-05
3.65522e-07
6.58677e-11
-7.18449e-05
4.51454e-07
5.66998e-11
-7.15107e-05
5.62526e-07
4.46584e-11
-7.11722e-05
6.71187e-07
2.13087e-11
-7.0902e-05
7.24567e-07
-3.28143e-11
-7.08392e-05
6.16314e-07
-1.07409e-10
-7.1207e-05
1.29079e-07
-3.46952e-11
-7.22894e-05
-1.18051e-06
7.43712e-11
-7.43092e-05
-4.16471e-06
-3.471e-10
-7.69552e-05
-1.04949e-05
2.91789e-09
-2.32119e-05
1.19668e-08
-7.81401e-05
-6.27952e-05
1.5517e-05
-1.14996e-08
-5.75244e-05
5.46233e-06
4.96242e-09
-5.43212e-05
2.08135e-06
5.37815e-09
-5.25179e-05
8.47891e-07
2.17717e-09
-5.15163e-05
3.7127e-07
1.08161e-09
-5.09449e-05
1.82633e-07
6.30369e-10
-5.05912e-05
1.09019e-07
3.6628e-10
-5.03342e-05
8.6227e-08
2.53651e-10
-5.01023e-05
9.0628e-08
2.30497e-10
-4.98505e-05
1.13538e-07
2.55054e-10
-4.95511e-05
1.51692e-07
3.07116e-10
-4.9192e-05
2.03031e-07
3.70134e-10
-4.87847e-05
2.6351e-07
4.15249e-10
-4.83826e-05
3.22106e-07
3.67229e-10
-4.8116e-05
3.49609e-07
1.2388e-10
-4.82582e-05
2.71561e-07
-2.78413e-10
-4.92779e-05
-1.59311e-07
-1.48764e-09
-5.19849e-05
-1.4513e-06
-6.45395e-09
-5.72571e-05
-5.21438e-06
-8.2541e-09
-1.63209e-05
1.36525e-08
-6.41618e-05
-2.88728e-05
-6.14841e-08
-2.3401e-05
-9.45085e-09
-2.13192e-05
-4.22525e-10
-2.04698e-05
-1.54409e-09
-2.00975e-05
-9.80813e-10
-1.99145e-05
-4.28509e-10
-1.98052e-05
-2.25267e-10
-1.97188e-05
-1.47138e-10
-1.96281e-05
-1.19445e-10
-1.95144e-05
-1.24378e-10
-1.93626e-05
-1.51156e-10
-1.91594e-05
-1.89606e-10
-1.88956e-05
-2.24924e-10
-1.85733e-05
-2.30575e-10
-1.82236e-05
-1.06033e-10
-1.79524e-05
4.20786e-10
-1.81126e-05
8.30079e-10
-1.9562e-05
-1.91331e-09
-2.47812e-05
4.87806e-09
7.43026e-08
-4.11764e-05
-1.73087e-05
1.209e-06
1.13386e-12
-1.81851e-05
8.77644e-07
8.63754e-13
-1.8787e-05
6.02677e-07
4.37437e-13
-1.91825e-05
3.9604e-07
4.74383e-13
-1.94357e-05
2.53453e-07
6.34808e-13
-1.95988e-05
1.63194e-07
4.32255e-13
-1.97111e-05
1.1245e-07
3.85346e-13
-1.98015e-05
9.0508e-08
6.42768e-13
-1.9891e-05
8.951e-08
5.63482e-13
-1.99947e-05
1.03826e-07
1.00532e-13
-2.01233e-05
1.28753e-07
-6.01501e-14
-2.0282e-05
1.58884e-07
1.00997e-13
-2.04681e-05
1.86306e-07
1.26378e-13
-2.06666e-05
1.98809e-07
-4.42288e-15
-2.08448e-05
1.78535e-07
-1.05275e-13
-2.09467e-05
1.02099e-07
-5.7406e-14
-2.08881e-05
-5.84824e-08
1.51193e-13
-2.05632e-05
-3.25007e-07
5.42723e-13
-1.98557e-05
-7.08179e-07
9.93663e-13
-1.18884e-06
1.30837e-12
-1.86682e-05
-4.41281e-05
4.15977e-06
1.16612e-12
-4.62911e-05
3.03916e-06
8.69196e-13
-4.77981e-05
2.10861e-06
6.43558e-13
-4.88084e-05
1.40552e-06
7.32329e-13
-4.94706e-05
9.15033e-07
9.29482e-13
-4.99064e-05
5.98603e-07
7.03116e-13
-5.02084e-05
4.14088e-07
2.59998e-13
-5.04437e-05
3.25623e-07
7.61391e-14
-5.06604e-05
3.05942e-07
3.39713e-15
-5.08913e-05
3.34464e-07
-2.47779e-13
-5.11561e-05
3.9331e-07
-1.83778e-13
-5.14598e-05
4.62331e-07
6.44627e-14
-5.17875e-05
5.1375e-07
1.37018e-13
-5.20959e-05
5.07069e-07
2.70028e-15
-5.23031e-05
3.85578e-07
-1.12313e-13
-5.22777e-05
7.69091e-08
-1.22689e-13
-5.18368e-05
-4.98822e-07
-8.44013e-15
-5.07526e-05
-1.40823e-06
1.74373e-13
-4.87865e-05
-2.6727e-06
3.22814e-13
-4.22649e-06
3.8326e-13
-4.57467e-05
-6.44857e-05
8.21916e-06
1.04272e-12
-6.7397e-05
5.95007e-06
9.61595e-13
-6.9386e-05
4.09716e-06
6.54056e-13
-7.0698e-05
2.71718e-06
5.01693e-13
-7.15474e-05
1.76414e-06
5.17996e-13
-7.21008e-05
1.15174e-06
3.02465e-13
-7.24792e-05
7.92285e-07
5.55857e-14
-7.27674e-05
6.13735e-07
9.16988e-14
-7.30238e-05
5.62173e-07
1.43004e-13
-7.32865e-05
5.9711e-07
-1.20628e-13
-7.35768e-05
6.83569e-07
-2.32199e-13
-7.38973e-05
7.82791e-07
-5.85609e-14
-7.4226e-05
8.42398e-07
8.66926e-14
-7.45059e-05
7.87009e-07
4.73659e-14
-7.46317e-05
5.11429e-07
6.31115e-14
-7.44353e-05
-1.19351e-07
1.3315e-13
-7.36774e-05
-1.25643e-06
1.78023e-13
-7.20543e-05
-3.03097e-06
1.89164e-13
-6.92342e-05
-5.49238e-06
2.61972e-13
-8.52413e-06
4.81414e-13
-6.49362e-05
-7.91191e-05
1.27773e-05
1.16764e-12
-8.22203e-05
9.05073e-06
1.03612e-12
-8.42284e-05
6.10481e-06
5.80131e-13
-8.54881e-05
3.97641e-06
3.10048e-13
-8.62678e-05
2.54348e-06
3.80819e-13
-8.67562e-05
1.63987e-06
4.22494e-13
-8.70787e-05
1.11465e-06
2.81786e-13
-8.73169e-05
8.51821e-07
4.09111e-13
-8.75234e-05
7.68546e-07
5.94267e-13
-8.77312e-05
8.04842e-07
3.99597e-13
-8.79581e-05
9.10445e-07
1.52155e-13
-8.8206e-05
1.03071e-06
9.3323e-14
-8.84556e-05
1.09198e-06
1.26708e-13
-8.86556e-05
9.87005e-07
1.68483e-13
-8.87067e-05
5.62611e-07
1.31541e-13
-8.84411e-05
-3.84934e-07
4.78721e-14
-8.76009e-05
-2.09647e-06
-1.25219e-13
-8.58292e-05
-4.80237e-06
-2.54986e-13
-8.2693e-05
-8.6281e-06
-1.84729e-13
-1.34437e-05
9.54835e-14
-7.77729e-05
-8.8394e-05
1.72173e-05
1.17184e-12
-9.1097e-05
1.17529e-05
9.90936e-13
-9.26462e-05
7.65316e-06
6.80035e-13
-9.35021e-05
4.83175e-06
4.92674e-13
-9.39687e-05
3.00973e-06
3.9078e-13
-9.42274e-05
1.89831e-06
3.82464e-13
-9.43805e-05
1.26754e-06
1.98066e-13
-9.44846e-05
9.5586e-07
2.63766e-13
-9.45719e-05
8.55738e-07
2.23479e-13
-9.4661e-05
8.93907e-07
-3.76363e-14
-9.47627e-05
1.01207e-06
-1.31662e-13
-9.48804e-05
1.1484e-06
1.00119e-13
-9.50071e-05
1.2187e-06
3.76691e-13
-9.51166e-05
1.09639e-06
4.78698e-13
-9.51461e-05
5.92128e-07
3.94073e-13
-9.49687e-05
-5.62303e-07
2.11213e-13
-9.43518e-05
-2.71319e-06
5.49616e-14
-9.2913e-05
-6.24086e-06
-3.4035e-14
-9.0098e-05
-1.14423e-05
-7.35672e-14
-1.82907e-05
-3.04378e-14
-8.52499e-05
-9.23169e-05
2.08454e-05
1.22859e-12
-9.39747e-05
1.3409e-05
1.03604e-12
-9.45895e-05
8.267e-06
8.16011e-13
-9.4735e-05
4.97667e-06
7.95795e-13
-9.47044e-05
2.97879e-06
7.3184e-13
-9.46258e-05
1.81949e-06
7.32881e-13
-9.4545e-05
1.18665e-06
4.02125e-13
-9.4473e-05
8.83762e-07
2.47751e-13
-9.44086e-05
7.91325e-07
2.00201e-14
-9.43491e-05
8.3443e-07
-2.72641e-13
-9.42948e-05
9.57766e-07
-1.57649e-13
-9.4251e-05
1.10463e-06
2.20207e-13
-9.42285e-05
1.19614e-06
4.01406e-13
-9.42396e-05
1.10744e-06
2.64215e-13
-9.42859e-05
6.3834e-07
4.50059e-14
-9.43271e-05
-5.21071e-07
-5.95523e-14
-9.42198e-05
-2.82041e-06
-1.33116e-13
-9.36186e-05
-6.84189e-06
-3.77383e-13
-9.18538e-05
-1.32058e-05
-6.22871e-13
-2.22601e-05
-5.48805e-13
-8.78817e-05
-9.04176e-05
2.27756e-05
9.89012e-13
-9.0309e-05
1.32972e-05
8.37648e-13
-8.95774e-05
7.53394e-06
7.64412e-13
-8.88263e-05
4.22477e-06
7.56549e-13
-8.82348e-05
2.38701e-06
5.11482e-13
-8.78104e-05
1.395e-06
4.65853e-13
-8.75078e-05
8.83954e-07
4.18075e-13
-8.72765e-05
6.52553e-07
2.62739e-13
-8.70766e-05
5.91373e-07
5.50859e-14
-8.68809e-05
6.38797e-07
-2.27836e-14
-8.6677e-05
7.53815e-07
2.15074e-13
-8.64688e-05
8.96442e-07
4.08507e-13
-8.62818e-05
1.00916e-06
1.85237e-13
-8.61683e-05
9.93777e-07
-1.8013e-13
-8.62074e-05
6.77416e-07
-3.02721e-13
-8.64877e-05
-2.40808e-07
-2.40242e-13
-8.70423e-05
-2.26568e-06
-4.14936e-13
-8.76971e-05
-6.18653e-06
-8.24078e-13
-8.77777e-05
-1.3122e-05
-8.31317e-13
-2.43382e-05
-2.96015e-13
-8.56922e-05
-8.14667e-05
2.17237e-05
7.62059e-13
-7.88859e-05
1.07129e-05
6.91223e-13
-7.66416e-05
5.28897e-06
4.3626e-13
-7.50712e-05
2.65411e-06
4.66635e-13
-7.40586e-05
1.37447e-06
3.41028e-13
-7.34186e-05
7.55135e-07
1.15679e-13
-7.29979e-05
4.63397e-07
4.6191e-14
-7.26889e-05
3.43643e-07
5.12527e-14
-7.24204e-05
3.22876e-07
4.26455e-14
-7.2147e-05
3.65549e-07
2.0684e-13
-7.18446e-05
4.51428e-07
4.44804e-13
-7.15105e-05
5.6242e-07
3.81758e-13
-7.11723e-05
6.70935e-07
4.80002e-14
-7.09026e-05
7.24012e-07
-1.17533e-13
-7.08404e-05
6.15179e-07
-3.25997e-15
-7.12087e-05
1.27471e-07
4.77812e-14
-7.22918e-05
-1.18254e-06
-1.72779e-13
-7.43101e-05
-4.16854e-06
-4.58838e-13
-7.69519e-05
-1.04773e-05
-3.35352e-13
-2.31251e-05
-7.83342e-14
-7.8153e-05
-6.27812e-05
1.54462e-05
5.64291e-13
-5.7532e-05
5.4687e-06
3.1187e-13
-5.43291e-05
2.0914e-06
3.68435e-13
-5.25235e-05
8.50702e-07
5.81055e-13
-5.15196e-05
3.71669e-07
4.2298e-13
-5.09465e-05
1.82689e-07
4.27331e-13
-5.05918e-05
1.09066e-07
3.99355e-13
-5.03343e-05
8.63244e-08
2.9022e-13
-5.0102e-05
9.08045e-08
2.38804e-13
-4.985e-05
1.13823e-07
3.35698e-13
-4.95504e-05
1.52126e-07
3.04056e-13
-4.91913e-05
2.0367e-07
4.8052e-15
-4.87843e-05
2.64425e-07
-3.0924e-13
-4.83833e-05
3.2338e-07
-2.83988e-13
-4.81192e-05
3.5115e-07
-2.85944e-13
-4.82636e-05
2.7166e-07
-4.03386e-13
-4.92898e-05
-1.57847e-07
-3.52368e-13
-5.20055e-05
-1.45932e-06
-2.73552e-13
-5.72668e-05
-5.22426e-06
-5.63697e-13
-1.62617e-05
-4.27203e-13
-6.41166e-05
-2.88658e-05
9.17875e-13
-2.34066e-05
8.0579e-13
-2.13156e-05
3.11431e-13
-2.04664e-05
2.80206e-13
-2.00957e-05
3.59544e-13
-1.99135e-05
4.05568e-13
-1.98046e-05
3.82453e-13
-1.97185e-05
3.20439e-13
-1.96278e-05
3.09486e-13
-1.95141e-05
2.84655e-13
-1.93621e-05
7.94962e-14
-1.91586e-05
-2.44566e-13
-1.88944e-05
-4.32004e-13
-1.85713e-05
-4.72782e-13
-1.82202e-05
-6.08732e-13
-1.79482e-05
-6.51009e-13
-1.81052e-05
-3.5332e-13
-1.95664e-05
-5.8005e-13
-2.47858e-05
-1.10179e-12
-1.07286e-12
-4.09732e-05
-1.73087e-05
1.209e-06
-1.78744e-09
-1.81851e-05
8.77644e-07
-1.22552e-09
-1.8787e-05
6.02678e-07
-7.90536e-10
-1.91825e-05
3.9604e-07
-4.81419e-10
-1.94357e-05
2.53453e-07
-2.80495e-10
-1.95987e-05
1.63194e-07
-1.61376e-10
-1.97111e-05
1.1245e-07
-9.93851e-11
-1.98015e-05
9.05073e-08
-7.63292e-11
-1.9891e-05
8.95094e-08
-7.98858e-11
-1.99947e-05
1.03826e-07
-1.02132e-10
-2.01233e-05
1.28753e-07
-1.38628e-10
-2.0282e-05
1.58884e-07
-1.85712e-10
-2.04681e-05
1.86306e-07
-2.36886e-10
-2.06666e-05
1.98809e-07
-2.80044e-10
-2.08448e-05
1.78535e-07
-2.95475e-10
-2.09467e-05
1.02098e-07
-2.56561e-10
-2.08881e-05
-5.84823e-08
-1.25097e-10
-2.05632e-05
-3.25007e-07
1.60559e-10
-1.98557e-05
-7.08179e-07
6.47957e-10
-1.18884e-06
1.36948e-09
-1.86682e-05
-4.41281e-05
4.15977e-06
1.69093e-09
-4.62911e-05
3.03916e-06
1.40359e-09
-4.77981e-05
2.10861e-06
1.09642e-09
-4.88084e-05
1.40552e-06
8.21549e-10
-4.94706e-05
9.15033e-07
5.9661e-10
-4.99064e-05
5.98603e-07
4.2933e-10
-5.02084e-05
4.14087e-07
3.1827e-10
-5.04437e-05
3.25623e-07
2.55192e-10
-5.06604e-05
3.05942e-07
2.29376e-10
-5.08913e-05
3.34464e-07
2.29911e-10