/*--------------------------------*- C++ -*----------------------------------*\
| =========                 |                                                 |
| \\      /  F ield         | OpenFOAM: The Open Source CFD Toolbox           |
|  \\    /   O peration     | Version:  2.4.0                                 |
|   \\  /    A nd           | Web:      www.OpenFOAM.org                      |
|    \\/     M anipulation  |                                                 |
\*---------------------------------------------------------------------------*/
FoamFile
{
    version     2.0;
    format      ascii;
    class       volVectorField;
    location    "1";
    object      U;
}
// * * * * * * * * * * * * * * * * * * * * * * * * * * * * * * * * * * * * * //

dimensions      [0 1 -1 0 0 0 0];

internalField   nonuniform List<vector> 
4800
(
(0.000226186 -0.000228656 4.82409e-07)
(-0.000150517 0.0002014 0.000189013)
(-0.00191003 0.000640605 0.00036019)
(-0.00459796 0.000924833 0.000464353)
(-0.00787855 0.00107991 0.000464173)
(-0.011465 0.00114165 0.00034312)
(-0.0151213 0.00113338 9.70219e-05)
(-0.0186487 0.0010662 -0.000272187)
(-0.0218703 0.000946105 -0.000757369)
(-0.024636 0.00078367 -0.00134508)
(-0.000221578 0.000152921 -0.000187647)
(-0.00237016 0.0023064 3.66187e-06)
(-0.0073395 0.00429949 0.000126409)
(-0.0141884 0.00568987 0.000173026)
(-0.0222797 0.00651248 0.000128743)
(-0.0310522 0.00686034 -1.99527e-05)
(-0.0399797 0.00680772 -0.000277917)
(-0.048584 0.00640244 -0.000645533)
(-0.0564331 0.00568872 -0.0011193)
(-0.0631677 0.00474151 -0.00169078)
(-0.000720627 0.00200474 -0.000361197)
(-0.00461254 0.00735626 -0.000114298)
(-0.01241 0.0119201 8.45944e-06)
(-0.022626 0.0151717 3.72216e-05)
(-0.0344191 0.017149 -2.14367e-05)
(-0.0470812 0.0179896 -0.000175767)
(-0.0599087 0.0178161 -0.000428945)
(-0.0722286 0.0167233 -0.000782512)
(-0.0834112 0.014825 -0.00123635)
(-0.0929166 0.0123256 -0.00178675)
(-0.00109027 0.00497459 -0.00045469)
(-0.00636536 0.0146084 -0.000139607)
(-0.0164311 0.0223123 1.46528e-06)
(-0.0292674 0.027757 3.11562e-05)
(-0.0438611 0.0310731 -2.7068e-05)
(-0.0594125 0.0324563 -0.000177025)
(-0.0751044 0.032061 -0.000420675)
(-0.0901203 0.0300088 -0.0007615)
(-0.103654 0.0264771 -0.00120403)
(-0.114966 0.0218281 -0.001751)
(-0.00132499 0.00875668 -0.000410044)
(-0.00754056 0.0234964 -3.69658e-05)
(-0.0191881 0.0347447 0.000122796)
(-0.0338467 0.0425844 0.000160871)
(-0.050376 0.0473356 0.000112259)
(-0.0679219 0.0492747 -2.44318e-05)
(-0.085597 0.0485672 -0.000251908)
(-0.102475 0.0453203 -0.000577793)
(-0.117573 0.0397316 -0.00101416)
(-0.129884 0.0323107 -0.00157559)
(-0.00143476 0.0130232 -0.000192517)
(-0.00812501 0.0334087 0.000223603)
(-0.0205994 0.048481 0.000398032)
(-0.0362239 0.0588602 0.000449434)
(-0.0537942 0.0651251 0.000419051)
(-0.0724398 0.0676519 0.000305811)
(-0.0912464 0.0665919 0.000103757)
(-0.109216 0.061974 -0.000201948)
(-0.125202 0.053923 -0.000635399)
(-0.13781 0.043007 -0.00123515)
(-0.00142843 0.0174466 0.000212078)
(-0.00812766 0.0436816 0.000655149)
(-0.0206436 0.062695 0.000838173)
(-0.0363257 0.0756842 0.000906522)
(-0.053972 0.0835212 0.000903181)
(-0.0727336 0.0866929 0.000825879)
(-0.0917178 0.0853111 0.000663094)
(-0.10992 0.0792454 0.000389556)
(-0.126099 0.0683894 -3.58665e-05)
(-0.138342 0.0531135 -0.000701469)
(-0.00131501 0.0217126 0.000800935)
(-0.00757781 0.0536503 0.00125562)
(-0.0193591 0.0765282 0.0014407)
(-0.0341631 0.0920873 0.00152911)
(-0.0508376 0.101491 0.00156223)
(-0.068574 0.105347 0.00153637)
(-0.0865364 0.103718 0.00143336)
(-0.103798 0.096245 0.00121559)
(-0.119222 0.0823807 0.000823525)
(-0.130338 0.0617316 7.10154e-05)
(-0.00110951 0.0255329 0.00155534)
(-0.00654461 0.0626876 0.00200872)
(-0.0168866 0.0891374 0.00218974)
(-0.029916 0.107062 0.00230046)
(-0.044537 0.117881 0.00237872)
(-0.0599488 0.122332 0.00242074)
(-0.0753381 0.120473 0.00240249)
(-0.0898714 0.111744 0.00227299)
(-0.102857 0.0950782 0.001962)
(-0.111634 0.0685236 0.00110464)
(-0.000839517 0.0286723 0.00244224)
(-0.00516186 0.0702668 0.00288563)
(-0.0135283 0.0997755 0.00305714)
(-0.024056 0.119644 0.00319038)
(-0.0356656 0.131457 0.00331955)
(-0.0474501 0.136058 0.00344569)
(-0.0584186 0.133544 0.00354772)
(-0.0674943 0.123271 0.00357245)
(-0.0744282 0.103913 0.00349362)
(-0.0781269 0.072431 0.00276478)
(0.000230252 -0.000232829 1.51782e-07)
(-0.000144628 0.000196049 1.21224e-06)
(-0.0019068 0.000628001 1.79204e-06)
(-0.00459573 0.000907366 2.28561e-06)
(-0.00787739 0.00105994 2.55908e-06)
(-0.0114647 0.00112054 2.65944e-06)
(-0.0151216 0.00111237 2.64875e-06)
(-0.0186498 0.0010464 2.527e-06)
(-0.0218725 0.000928453 2.27592e-06)
(-0.0246391 0.000768698 1.88197e-06)
(-0.000215453 0.000146222 -9.46369e-07)
(-0.00236807 0.00230455 2.45163e-07)
(-0.00734619 0.00428962 -1.12332e-06)
(-0.0141922 0.00567566 -1.68243e-06)
(-0.0222816 0.00649688 -1.94476e-06)
(-0.0310527 0.00684418 -2.11171e-06)
(-0.039979 0.00679179 -2.10701e-06)
(-0.0485824 0.00638759 -1.95668e-06)
(-0.0564315 0.00567565 -1.71847e-06)
(-0.0631668 0.00473028 -1.48468e-06)
(-0.000706827 0.00199999 -1.70635e-06)
(-0.00460292 0.00736193 1.54072e-06)
(-0.012416 0.0119234 5.99648e-08)
(-0.0226278 0.0151752 -6.66589e-08)
(-0.0344191 0.0171541 8.65969e-08)
(-0.0470811 0.0179957 8.56151e-08)
(-0.0599081 0.0178225 9.33816e-08)
(-0.0722279 0.0167297 1.28417e-07)
(-0.0834113 0.0148314 1.65307e-07)
(-0.0929186 0.0123309 9.22187e-08)
(-0.00107084 0.00497082 -2.42525e-06)
(-0.00635137 0.0146116 2.09164e-06)
(-0.0164385 0.022312 1.01317e-08)
(-0.0292688 0.0277554 -1.47274e-07)
(-0.0438601 0.0310719 1.09372e-07)
(-0.0594118 0.0324555 1.45968e-07)
(-0.0751034 0.0320606 1.75975e-07)
(-0.090119 0.0300093 2.41281e-07)
(-0.103654 0.0264793 3.5942e-07)
(-0.11497 0.0218304 3.04657e-07)
(-0.00130224 0.00875454 -2.88237e-06)
(-0.00752496 0.0234981 2.39492e-06)
(-0.0191981 0.0347433 -2.49159e-07)
(-0.033849 0.0425815 -5.41e-07)
(-0.0503751 0.0473323 -2.86093e-07)
(-0.067921 0.0492713 -2.561e-07)
(-0.0855953 0.048564 -2.10393e-07)
(-0.102471 0.0453181 -8.34445e-08)
(-0.117572 0.0397331 2.79089e-07)
(-0.129891 0.0323138 4.41073e-07)
(-0.00141034 0.0130228 -3.08037e-06)
(-0.00810878 0.0334095 2.60985e-06)
(-0.020611 0.0484803 -3.1571e-07)
(-0.036227 0.0588584 -6.75892e-07)
(-0.0537936 0.0651227 -4.2922e-07)
(-0.0724391 0.0676491 -4.1293e-07)
(-0.0912442 0.0665887 -3.90048e-07)
(-0.10921 0.0619712 -2.88227e-07)
(-0.125197 0.0539271 4.38848e-07)
(-0.137823 0.0430172 1.12528e-06)
(-0.00140402 0.0174476 -3.05818e-06)
(-0.00811177 0.0436816 2.64476e-06)
(-0.020656 0.0626948 -3.33072e-07)
(-0.0363295 0.0756835 -7.3492e-07)
(-0.0539721 0.0835197 -5.29636e-07)
(-0.0727336 0.0866908 -5.4452e-07)
(-0.0917159 0.0853077 -6.00747e-07)
(-0.109909 0.0792411 -7.33723e-07)
(-0.126084 0.0683985 5.59766e-07)
(-0.138369 0.0531464 2.74978e-06)
(-0.0012922 0.0217152 -2.81738e-06)
(-0.00756322 0.0536495 2.51501e-06)
(-0.0193713 0.0765287 -3.07157e-07)
(-0.0341674 0.0920879 -7.21766e-07)
(-0.0508384 0.101491 -5.7548e-07)
(-0.068575 0.105345 -5.87407e-07)
(-0.086536 0.103713 -6.57198e-07)
(-0.103778 0.0962301 -1.19048e-06)
(-0.119177 0.0823756 1.54206e-06)
(-0.13038 0.061783 9.64095e-06)
(-0.00108965 0.0255368 -2.3685e-06)
(-0.00653207 0.0626865 2.26692e-06)
(-0.0168978 0.089139 -2.18434e-07)
(-0.0299207 0.107065 -6.23848e-07)
(-0.0445393 0.117883 -5.92034e-07)
(-0.0599535 0.122333 -6.91149e-07)
(-0.0753484 0.120468 -9.78883e-07)
(-0.0898572 0.111712 -3.25319e-06)
(-0.102767 0.0950092 -8.10966e-07)
(-0.111678 0.0684916 2.18557e-05)
(-0.000823468 0.0286769 -1.75202e-06)
(-0.00515161 0.0702658 1.96349e-06)
(-0.0135371 0.0997786 -3.2999e-08)
(-0.0240596 0.11965 -3.63034e-07)
(-0.0356677 0.131467 -4.31305e-07)
(-0.0474575 0.136077 -7.3323e-07)
(-0.0584491 0.133581 -1.64531e-06)
(-0.0675319 0.123326 -8.66615e-06)
(-0.0743548 0.103966 -1.96558e-05)
(-0.0781986 0.0725299 5.39342e-06)
(0.000230227 -0.000232854 -3.04875e-08)
(-0.000144678 0.000196027 -1.15667e-06)
(-0.00190683 0.000627989 -1.76499e-06)
(-0.00459575 0.00090736 -2.27166e-06)
(-0.0078774 0.00105994 -2.55015e-06)
(-0.0114647 0.00112054 -2.6532e-06)
(-0.0151216 0.00111237 -2.64382e-06)
(-0.0186498 0.0010464 -2.52222e-06)
(-0.0218725 0.000928453 -2.2723e-06)
(-0.024639 0.000768698 -1.87936e-06)
(-0.000215474 0.000146172 9.98525e-07)
(-0.00236812 0.0023045 -2.10884e-07)
(-0.00734623 0.00428959 1.14558e-06)
(-0.0141923 0.00567564 1.69653e-06)
(-0.0222816 0.00649687 1.95558e-06)
(-0.0310527 0.00684418 2.11989e-06)
(-0.039979 0.00679179 2.11362e-06)
(-0.0485824 0.00638759 1.96234e-06)
(-0.0564315 0.00567565 1.72304e-06)
(-0.0631668 0.00473028 1.48835e-06)
(-0.000706839 0.00199996 1.73397e-06)
(-0.00460295 0.00736189 -1.51848e-06)
(-0.0124161 0.0119234 -4.29252e-08)
(-0.0226278 0.0151752 7.85676e-08)
(-0.0344191 0.0171541 -7.69752e-08)
(-0.0470811 0.0179957 -7.82246e-08)
(-0.0599081 0.0178225 -8.73086e-08)
(-0.0722278 0.0167297 -1.22862e-07)
(-0.0834113 0.0148314 -1.61226e-07)
(-0.0929186 0.0123309 -8.95442e-08)
(-0.00107085 0.0049708 2.44269e-06)
(-0.00635139 0.0146116 -2.07618e-06)
(-0.0164386 0.0223119 3.36788e-09)
(-0.0292689 0.0277554 1.57681e-07)
(-0.0438601 0.0310719 -1.00472e-07)
(-0.0594118 0.0324555 -1.38428e-07)
(-0.0751034 0.0320606 -1.69666e-07)
(-0.090119 0.0300092 -2.36223e-07)
(-0.103654 0.0264792 -3.55904e-07)
(-0.11497 0.0218303 -3.01892e-07)
(-0.00130225 0.00875452 2.89406e-06)
(-0.00752496 0.0234981 -2.38468e-06)
(-0.0191981 0.0347433 2.59263e-07)
(-0.033849 0.0425814 5.49695e-07)
(-0.0503751 0.0473323 2.93873e-07)
(-0.067921 0.0492712 2.62643e-07)
(-0.0855953 0.048564 2.15781e-07)
(-0.102471 0.0453181 8.78233e-08)
(-0.117572 0.0397331 -2.75624e-07)
(-0.129891 0.0323138 -4.37976e-07)
(-0.00141034 0.0130228 3.08909e-06)
(-0.00810878 0.0334095 -2.60189e-06)
(-0.020611 0.0484803 3.24345e-07)
(-0.036227 0.0588584 6.83259e-07)
(-0.0537936 0.0651227 4.35823e-07)
(-0.072439 0.0676491 4.18551e-07)
(-0.0912442 0.0665887 3.94957e-07)
(-0.10921 0.0619712 2.92581e-07)
(-0.125197 0.0539271 -4.35064e-07)
(-0.137823 0.0430172 -1.1219e-06)
(-0.00140402 0.0174476 3.06546e-06)
(-0.00811177 0.0436815 -2.63792e-06)
(-0.020656 0.0626948 3.40465e-07)
(-0.0363295 0.0756835 7.40947e-07)
(-0.0539721 0.0835197 5.35064e-07)
(-0.0727336 0.0866908 5.49453e-07)
(-0.0917159 0.0853077 6.05476e-07)
(-0.109909 0.0792411 7.37986e-07)
(-0.126084 0.0683985 -5.56187e-07)
(-0.138369 0.0531464 -2.74658e-06)
(-0.0012922 0.0217152 2.82329e-06)
(-0.00756322 0.0536495 -2.50911e-06)
(-0.0193713 0.0765287 3.1288e-07)
(-0.0341674 0.0920879 7.2659e-07)
(-0.0508384 0.101491 5.80022e-07)
(-0.068575 0.105345 5.91901e-07)
(-0.086536 0.103713 6.61695e-07)
(-0.103778 0.0962301 1.19436e-06)
(-0.119177 0.0823756 -1.53881e-06)
(-0.13038 0.061783 -9.63825e-06)
(-0.00108965 0.0255368 2.3741e-06)
(-0.00653207 0.0626865 -2.26166e-06)
(-0.0168978 0.089139 2.23416e-07)
(-0.0299207 0.107065 6.28251e-07)
(-0.0445393 0.117883 5.96286e-07)
(-0.0599535 0.122333 6.95383e-07)
(-0.0753484 0.120468 9.82923e-07)
(-0.0898572 0.111712 3.25677e-06)
(-0.102767 0.0950092 8.14075e-07)
(-0.111678 0.0684916 -2.18532e-05)
(-0.000823467 0.0286769 1.75716e-06)
(-0.00515161 0.0702658 -1.95895e-06)
(-0.0135371 0.0997786 3.75024e-08)
(-0.0240596 0.11965 3.66975e-07)
(-0.0356677 0.131467 4.35086e-07)
(-0.0474575 0.136077 7.36767e-07)
(-0.0584491 0.133581 1.64863e-06)
(-0.0675319 0.123326 8.66933e-06)
(-0.0743548 0.103966 1.9659e-05)
(-0.0781986 0.0725299 -5.39084e-06)
(0.000225964 -0.00022888 -6.09923e-07)
(-0.000150865 0.0002013 -0.000189072)
(-0.00191018 0.000640562 -0.000360218)
(-0.00459803 0.000924816 -0.000464367)
(-0.00787859 0.0010799 -0.000464183)
(-0.011465 0.00114164 -0.000343126)
(-0.0151213 0.00113338 -9.70271e-05)
(-0.0186487 0.0010662 0.000272182)
(-0.0218703 0.000946105 0.000757365)
(-0.024636 0.00078367 0.00134508)
(-0.000221675 0.000152573 0.000187592)
(-0.00237034 0.00230622 -3.69811e-06)
(-0.00733963 0.00429939 -0.000126432)
(-0.0141885 0.00568982 -0.000173041)
(-0.0222798 0.00651246 -0.000128754)
(-0.0310522 0.00686033 1.99441e-05)
(-0.0399797 0.00680771 0.00027791)
(-0.048584 0.00640244 0.000645527)
(-0.0564331 0.00568871 0.0011193)
(-0.0631677 0.00474151 0.00169077)
(-0.000720668 0.00200459 0.000361168)
(-0.00461263 0.00735612 0.000114275)
(-0.0124101 0.01192 -8.47745e-06)
(-0.022626 0.0151716 -3.72342e-05)
(-0.0344191 0.0171489 2.14265e-05)
(-0.0470812 0.0179896 0.000175759)
(-0.0599087 0.0178161 0.000428939)
(-0.0722286 0.0167233 0.000782506)
(-0.0834111 0.0148249 0.00123635)
(-0.0929166 0.0123256 0.00178675)
(-0.00109028 0.00497451 0.000454672)
(-0.00636539 0.0146083 0.000139591)
(-0.0164311 0.0223122 -1.47955e-06)
(-0.0292675 0.0277569 -3.11672e-05)
(-0.0438611 0.031073 2.70586e-05)
(-0.0594125 0.0324563 0.000177017)
(-0.0751044 0.032061 0.000420669)
(-0.0901203 0.0300088 0.000761495)
(-0.103654 0.0264771 0.00120402)
(-0.114966 0.0218281 0.001751)
(-0.00132499 0.00875663 0.000410032)
(-0.00754057 0.0234963 3.6955e-05)
(-0.0191882 0.0347447 -0.000122807)
(-0.0338467 0.0425844 -0.000160881)
(-0.050376 0.0473355 -0.000112267)
(-0.0679219 0.0492746 2.44249e-05)
(-0.085597 0.0485672 0.000251902)
(-0.102475 0.0453203 0.000577789)
(-0.117573 0.0397316 0.00101416)
(-0.129884 0.0323106 0.00157558)
(-0.00143476 0.0130232 0.000192508)
(-0.00812501 0.0334086 -0.000223612)
(-0.0205994 0.048481 -0.000398042)
(-0.0362239 0.0588601 -0.000449442)
(-0.0537942 0.065125 -0.000419058)
(-0.0724398 0.0676518 -0.000305817)
(-0.0912464 0.0665919 -0.000103762)
(-0.109216 0.0619739 0.000201943)
(-0.125202 0.053923 0.000635395)
(-0.13781 0.043007 0.00123515)
(-0.00142842 0.0174465 -0.000212086)
(-0.00812765 0.0436816 -0.000655156)
(-0.0206436 0.0626949 -0.000838181)
(-0.0363257 0.0756841 -0.000906528)
(-0.053972 0.0835211 -0.000903186)
(-0.0727336 0.0866929 -0.000825884)
(-0.0917177 0.085311 -0.000663099)
(-0.10992 0.0792453 -0.00038956)
(-0.126099 0.0683894 3.58628e-05)
(-0.138342 0.0531135 0.000701465)
(-0.001315 0.0217126 -0.000800941)
(-0.0075778 0.0536502 -0.00125562)
(-0.0193591 0.0765281 -0.00144071)
(-0.0341631 0.0920872 -0.00152911)
(-0.0508375 0.101491 -0.00156224)
(-0.068574 0.105347 -0.00153637)
(-0.0865364 0.103718 -0.00143336)
(-0.103798 0.096245 -0.00121559)
(-0.119222 0.0823806 -0.000823528)
(-0.130338 0.0617316 -7.10182e-05)
(-0.00110951 0.0255329 -0.00155535)
(-0.0065446 0.0626875 -0.00200873)
(-0.0168866 0.0891373 -0.00218974)
(-0.029916 0.107062 -0.00230047)
(-0.044537 0.11788 -0.00237872)
(-0.0599488 0.122332 -0.00242074)
(-0.0753381 0.120473 -0.00240249)
(-0.0898713 0.111744 -0.002273)
(-0.102857 0.0950782 -0.001962)
(-0.111634 0.0685236 -0.00110464)
(-0.000839516 0.0286722 -0.00244224)
(-0.00516185 0.0702667 -0.00288563)
(-0.0135283 0.0997754 -0.00305715)
(-0.024056 0.119644 -0.00319038)
(-0.0356656 0.131457 -0.00331955)
(-0.04745 0.136058 -0.00344569)
(-0.0584186 0.133544 -0.00354772)
(-0.0674943 0.123271 -0.00357245)
(-0.0744282 0.103913 -0.00349363)
(-0.0781269 0.072431 -0.00276478)
(-0.0268503 0.000601363 -0.00201504)
(-0.0285032 0.000429355 -0.00274302)
(-0.0296635 0.000287728 -0.00350746)
(-0.030438 0.000182969 -0.00429235)
(-0.0309365 0.000112458 -0.00508725)
(-0.0312532 6.95268e-05 -0.00588624)
(-0.0314615 4.71145e-05 -0.00668659)
(-0.031615 3.95619e-05 -0.00748766)
(-0.0317526 4.30026e-05 -0.00829021)
(-0.0319028 5.49771e-05 -0.00909615)
(-0.0320862 7.36656e-05 -0.00990846)
(-0.0323161 9.69101e-05 -0.0107313)
(-0.0325955 0.000121105 -0.0115699)
(-0.0329121 0.000140025 -0.0124308)
(-0.0332296 0.000143827 -0.0133208)
(-0.0334783 0.000118813 -0.014246)
(-0.0335459 4.87463e-05 -0.0152095)
(-0.0332772 -8.32858e-05 -0.0162079)
(-0.032487 -0.000284918 -0.0172286)
(-0.0309928 -0.000547706 -0.0182463)
(-0.0685672 0.00369115 -0.00234523)
(-0.0726189 0.00269808 -0.00306294)
(-0.0754946 0.00186896 -0.00382598)
(-0.0774471 0.00124084 -0.00461988)
(-0.0787323 0.000803032 -0.00543383)
(-0.0795696 0.00052224 -0.00626048)
(-0.0801295 0.000361108 -0.00709531)
(-0.0805377 0.000287695 -0.00793598)
(-0.0808841 0.000277946 -0.00878185)
(-0.0812323 0.000314088 -0.00963365)
(-0.0816243 0.000380947 -0.0104933)
(-0.0820811 0.000461233 -0.0113638)
(-0.0825975 0.000530356 -0.0122491)
(-0.0831306 0.000551392 -0.0131538)
(-0.0835842 0.000471495 -0.0140823)
(-0.0837906 0.000222233 -0.015038)
(-0.0834978 -0.000272629 -0.0160216)
(-0.0823693 -0.00107943 -0.0170286)
(-0.080014 -0.0022206 -0.0180467)
(-0.0760594 -0.00363737 -0.0190538)
(-0.100412 0.00957393 -0.00242232)
(-0.105914 0.00699523 -0.00312257)
(-0.109736 0.00485756 -0.00387035)
(-0.112285 0.0032437 -0.00465195)
(-0.11394 0.00211705 -0.00545662)
(-0.115007 0.00138806 -0.00627665)
(-0.115713 0.000959772 -0.00710701)
(-0.11622 0.000749809 -0.00794474)
(-0.116637 0.000695294 -0.00878853)
(-0.117041 0.000748413 -0.0096384)
(-0.117479 0.000867442 -0.0104955)
(-0.117971 0.00100568 -0.0113619)
(-0.118506 0.0010996 -0.0122406)
(-0.119024 0.00105767 -0.013135)
(-0.119401 0.000752832 -0.0140485)
(-0.119424 2.38011e-05 -0.0149842)
(-0.118768 -0.00130645 -0.0159429)
(-0.116991 -0.00338557 -0.016922)
(-0.11356 -0.00625956 -0.0179126)
(-0.107943 -0.00977927 -0.0188972)
(-0.123575 0.0167312 -0.00239346)
(-0.129572 0.0120448 -0.00310189)
(-0.133512 0.00825025 -0.00385676)
(-0.136005 0.00544712 -0.00464398)
(-0.137549 0.0035241 -0.00545263)
(-0.138504 0.00229379 -0.00627522)
(-0.139114 0.00157215 -0.00710695)
(-0.139538 0.00121072 -0.00794497)
(-0.139877 0.00109975 -0.00878789)
(-0.140199 0.00115751 -0.00963541)
(-0.140543 0.00131391 -0.0104881)
(-0.140926 0.00149185 -0.0113473)
(-0.141338 0.00158769 -0.0122152)
(-0.141726 0.00145237 -0.0130942)
(-0.141978 0.000877246 -0.0139878)
(-0.14189 -0.000407444 -0.0148992)
(-0.141127 -0.00270744 -0.0158318)
(-0.139196 -0.00629466 -0.0167868)
(-0.135445 -0.0112831 -0.0177616)
(-0.129126 -0.0174507 -0.0187462)
(-0.138666 0.0241714 -0.00225735)
(-0.144153 0.016916 -0.00300346)
(-0.14734 0.0112744 -0.00378904)
(-0.149117 0.00726422 -0.0045998)
(-0.150085 0.0046029 -0.00542512)
(-0.150614 0.00294392 -0.00625876)
(-0.150914 0.00198718 -0.00709726)
(-0.151104 0.00150931 -0.00793873)
(-0.151248 0.00135477 -0.00878226)
(-0.151383 0.00141337 -0.00962758)
(-0.151533 0.00159443 -0.0104749)
(-0.151709 0.00180037 -0.0113248)
(-0.151911 0.00189937 -0.0121784)
(-0.152117 0.00169771 -0.0130375)
(-0.152264 0.000914563 -0.013905)
(-0.152215 -0.00083147 -0.0147853)
(-0.1517 -0.00400442 -0.0156846)
(-0.150243 -0.00906968 -0.0166106)
(-0.147092 -0.0163182 -0.0175705)
(-0.141184 -0.0255592 -0.0185687)
(-0.145766 0.0309226 -0.00201074)
(-0.149598 0.0206646 -0.00283507)
(-0.151117 0.013178 -0.00367823)
(-0.151568 0.00816329 -0.00453011)
(-0.151587 0.00500179 -0.00538287)
(-0.151471 0.00311172 -0.00623385)
(-0.151335 0.00205584 -0.00708266)
(-0.151211 0.00154029 -0.00792946)
(-0.151103 0.00137663 -0.00877444)
(-0.151005 0.00144092 -0.00961768)
(-0.150912 0.00163754 -0.010459)
(-0.150831 0.00186647 -0.0112983)
(-0.150773 0.00199035 -0.0121355)
(-0.150761 0.00179831 -0.0129711)
(-0.150814 0.000966066 -0.013807)
(-0.150918 -0.000982376 -0.0146481)
(-0.150956 -0.0046896 -0.0155041)
(-0.15059 -0.0109075 -0.01639)
(-0.149058 -0.0203023 -0.017327)
(-0.144873 -0.0329828 -0.0183493)
(-0.144264 0.0357608 -0.00166979)
(-0.145041 0.0221856 -0.00262756)
(-0.143989 0.0132136 -0.00355442)
(-0.142679 0.00771318 -0.00445935)
(-0.141583 0.00449688 -0.00534359)
(-0.140781 0.00268925 -0.00621251)
(-0.140219 0.00172807 -0.00707111)
(-0.139809 0.00127913 -0.00792257)
(-0.139477 0.00114933 -0.00876853)
(-0.139168 0.00122359 -0.00960944)
(-0.138849 0.00142093 -0.0104448)
(-0.138514 0.00166012 -0.0112733)
(-0.138183 0.00182628 -0.0120935)
(-0.137918 0.00173088 -0.0129038)
(-0.137826 0.00105826 -0.0137043)
(-0.138057 -0.000707043 -0.0144986)
(-0.138744 -0.00436121 -0.0152985)
(-0.139868 -0.0110128 -0.0161265)
(-0.140934 -0.0219882 -0.0170217)
(-0.140059 -0.0382879 -0.0180759)
(-0.132391 0.0368313 -0.00127816)
(-0.1284 0.020098 -0.00243642)
(-0.124171 0.0107285 -0.00346268)
(-0.121129 0.00571859 -0.00441983)
(-0.119133 0.00309785 -0.00532824)
(-0.117875 0.00175323 -0.00620751)
(-0.117074 0.00108962 -0.00707029)
(-0.116523 0.000802392 -0.00792286)
(-0.116082 0.000737401 -0.00876797)
(-0.115661 0.000813951 -0.00960608)
(-0.115206 0.000982358 -0.0104359)
(-0.114692 0.00119613 -0.011255)
(-0.114135 0.00138635 -0.0120597)
(-0.11361 0.00142807 -0.012846)
(-0.113278 0.00108551 -0.0136104)
(-0.113429 -8.53207e-05 -0.0143532)
(-0.11448 -0.0028986 -0.0150865)
(-0.116945 -0.00874241 -0.0158371)
(-0.121169 -0.0198636 -0.0166586)
(-0.125479 -0.0393451 -0.0177368)
(-0.10604 0.0319094 -0.00108093)
(-0.0956605 0.0135544 -0.00245301)
(-0.0888182 0.00587221 -0.00350723)
(-0.0850854 0.00264008 -0.00446404)
(-0.0830206 0.00124851 -0.00536213)
(-0.0818591 0.000643306 -0.00623071)
(-0.081175 0.000384936 -0.00708593)
(-0.0807196 0.000291785 -0.00793376)
(-0.0803486 0.000289208 -0.00877579)
(-0.0799743 0.000346038 -0.00961129)
(-0.0795401 0.00044781 -0.0104377)
(-0.079013 0.000583311 -0.0112509)
(-0.0783878 0.00073363 -0.0120448)
(-0.0777072 0.000855821 -0.0128117)
(-0.0771046 0.000849043 -0.0135425)
(-0.0768775 0.000476904 -0.0142297)
(-0.0775631 -0.000818404 -0.0148802)
(-0.080193 -0.00435927 -0.0155045)
(-0.0867594 -0.0131394 -0.0161351)
(-0.0980486 -0.0339014 -0.017103)
(-0.0548311 0.0198147 -0.00164075)
(-0.0407305 0.00562796 -0.00296202)
(-0.0351018 0.00167076 -0.00368781)
(-0.0331486 0.000508175 -0.00442471)
(-0.0323443 0.000156102 -0.00518196)
(-0.0319624 5.32342e-05 -0.00595417)
(-0.031756 2.79539e-05 -0.00673812)
(-0.0316137 2.82073e-05 -0.00752851)
(-0.0314804 3.97188e-05 -0.00832074)
(-0.0313226 5.98275e-05 -0.00911078)
(-0.0311144 8.94327e-05 -0.00989414)
(-0.0308327 0.000130498 -0.0106648)
(-0.030458 0.000184735 -0.0114142)
(-0.0299798 0.000250821 -0.0121298)
(-0.0294145 0.00031552 -0.0127929)
(-0.0288478 0.000326056 -0.013377)
(-0.0285437 9.28106e-05 -0.0138479)
(-0.0292994 -0.0010786 -0.0141713)
(-0.0341938 -0.00549551 -0.0142601)
(-0.0498654 -0.0216973 -0.0146698)
(-0.0268535 0.000589177 1.39435e-06)
(-0.0285058 0.000420005 9.56251e-07)
(-0.0296654 0.00028093 6.16567e-07)
(-0.0304392 0.000178224 3.75758e-07)
(-0.0309372 0.000109235 2.19691e-07)
(-0.0312536 6.73447e-05 1.26731e-07)
(-0.0314616 4.55767e-05 7.80444e-08)
(-0.0316149 3.8361e-05 6.01022e-08)
(-0.0317525 4.191e-05 6.28259e-08)
(-0.0319025 5.38302e-05 7.99536e-08)
(-0.0320859 7.23619e-05 1.0853e-07)
(-0.0323157 9.54156e-05 1.4539e-07)
(-0.0325951 0.000119477 1.84885e-07)
(-0.0329117 0.00013845 2.18015e-07)
(-0.0332294 0.000142664 2.29977e-07)
(-0.0334784 0.000118614 1.9985e-07)
(-0.0335465 5.0269e-05 9.76174e-08)
(-0.0332788 -7.90822e-05 -1.24587e-07)
(-0.03249 -0.000277098 -5.03728e-07)
(-0.0309972 -0.000535745 -1.06528e-06)
(-0.0685664 0.00368124 -1.31306e-06)
(-0.0726176 0.00269004 -1.09028e-06)
(-0.0754928 0.00186292 -8.51728e-07)
(-0.0774453 0.00123653 -6.37796e-07)
(-0.0787308 0.000800054 -4.62685e-07)
(-0.0795684 0.000520222 -3.32972e-07)
(-0.0801287 0.000359718 -2.4716e-07)
(-0.0805371 0.000286666 -1.98083e-07)
(-0.0808839 0.000277079 -1.77679e-07)
(-0.0812322 0.000313236 -1.7825e-07)
(-0.0816242 0.000380008 -1.90462e-07)
(-0.0820809 0.000460153 -2.01975e-07)
(-0.0825969 0.000529143 -1.97549e-07)
(-0.0831295 0.000550148 -1.57452e-07)
(-0.0835824 0.000470458 -5.73273e-08)
(-0.083788 0.000221803 1.25581e-07)
(-0.0834944 -0.000271862 4.06912e-07)
(-0.0823655 -0.00107665 7.90619e-07)
(-0.0800108 -0.00221503 1.24441e-06)
(-0.0760576 -0.00362905 1.66256e-06)
(-0.100414 0.00957598 -1.77665e-07)
(-0.105915 0.00699584 -2.9092e-07)
(-0.109736 0.00485777 -3.08244e-07)
(-0.112284 0.00324378 -2.86173e-07)
(-0.113939 0.00211714 -2.3951e-07)
(-0.115006 0.0013882 -1.87312e-07)
(-0.115712 0.000959993 -1.4146e-07)
(-0.116219 0.00075011 -1.05579e-07)
(-0.116637 0.000695684 -7.9884e-08)
(-0.117041 0.000748896 -6.23317e-08)
(-0.117479 0.000868 -4.90529e-08)
(-0.117971 0.00100626 -3.55773e-08)
(-0.118505 0.00110011 -1.79589e-08)
(-0.119023 0.00105799 8.86465e-09)
(-0.1194 0.000752776 5.13668e-08)
(-0.119423 2.32075e-05 1.12443e-07)
(-0.118766 -0.00130771 1.88347e-07)
(-0.116989 -0.00338748 2.78072e-07)
(-0.11356 -0.00626204 3.62987e-07)
(-0.107945 -0.00978362 3.01656e-07)
(-0.12358 0.0167284 -2.48738e-07)
(-0.129573 0.0120416 -3.98523e-07)
(-0.133511 0.0082483 -3.86312e-07)
(-0.136004 0.0054461 -3.39287e-07)
(-0.137547 0.00352374 -2.67293e-07)
(-0.138503 0.00229383 -1.9586e-07)
(-0.139113 0.00157238 -1.38232e-07)
(-0.139537 0.00121103 -9.51037e-08)
(-0.139877 0.00110008 -6.44762e-08)
(-0.140199 0.00115782 -4.36428e-08)
(-0.140543 0.00131417 -2.94663e-08)
(-0.140926 0.00149202 -1.86344e-08)
(-0.141337 0.0015877 -8.32414e-09)
(-0.141725 0.00145216 5.46047e-09)
(-0.141978 0.000876799 2.99874e-08)
(-0.141889 -0.000408053 7.24065e-08)
(-0.141125 -0.00270798 1.32248e-07)
(-0.139194 -0.00629447 2.23531e-07)
(-0.135445 -0.011281 3.76755e-07)
(-0.129131 -0.0174484 3.21857e-07)
(-0.138673 0.0241636 -6.81908e-07)
(-0.144153 0.0169095 -7.478e-07)
(-0.147338 0.0112713 -5.85617e-07)
(-0.149115 0.00726311 -4.52471e-07)
(-0.150083 0.00460286 -3.1542e-07)
(-0.150612 0.00294436 -2.04826e-07)
(-0.150913 0.00198775 -1.29705e-07)
(-0.151103 0.00150984 -8.13385e-08)
(-0.151247 0.00135521 -5.2084e-08)
(-0.151383 0.00141371 -3.62553e-08)
(-0.151533 0.00159467 -2.91657e-08)
(-0.151709 0.00180046 -2.72708e-08)
(-0.151911 0.00189929 -2.80192e-08)
(-0.152116 0.0016974 -2.71836e-08)
(-0.152263 0.000914059 -1.28989e-08)
(-0.152214 -0.000831961 3.11828e-08)
(-0.151697 -0.0040045 1.02605e-07)
(-0.150239 -0.00906796 2.4248e-07)
(-0.14709 -0.0163112 6.44142e-07)
(-0.141192 -0.025549 8.53621e-07)
(-0.14578 0.0309063 -1.51827e-06)
(-0.149594 0.0206538 -1.23639e-06)
(-0.151111 0.0131748 -7.35267e-07)
(-0.151564 0.00816297 -4.8768e-07)
(-0.151584 0.00500262 -2.84627e-07)
(-0.151469 0.00311283 -1.47959e-07)
(-0.151334 0.00205683 -7.28593e-08)
(-0.151211 0.00154107 -3.35097e-08)
(-0.151103 0.00137723 -1.43125e-08)
(-0.151004 0.00144137 -7.06273e-09)
(-0.150912 0.00163787 -6.79106e-09)
(-0.150831 0.00186667 -1.15835e-08)
(-0.150773 0.00199038 -2.14648e-08)
(-0.150761 0.00179812 -3.50598e-08)
(-0.150813 0.000965655 -3.81797e-08)
(-0.150916 -0.000982712 -4.22469e-09)
(-0.150953 -0.00468935 4.03394e-08)
(-0.150581 -0.0109046 1.76861e-07)
(-0.149049 -0.0202891 1.07227e-06)
(-0.144887 -0.0329607 2.10189e-06)
(-0.144292 0.0357379 -4.11976e-06)
(-0.145028 0.0221781 -2.59084e-06)
(-0.143976 0.0132165 -1.13329e-06)
(-0.142673 0.00771662 -5.88255e-07)
(-0.141579 0.00449965 -2.48514e-07)
(-0.14078 0.00269127 -7.44142e-08)
(-0.140218 0.00172943 -7.73132e-09)
(-0.139809 0.00128005 1.382e-08)
(-0.139477 0.00115002 1.70675e-08)
(-0.139168 0.00122418 1.21238e-08)
(-0.13885 0.0014215 2.76764e-09)
(-0.138514 0.00166067 -1.10696e-08)
(-0.138184 0.00182674 -3.07953e-08)
(-0.137918 0.00173107 -5.68488e-08)
(-0.137826 0.00105794 -6.81428e-08)
(-0.138055 -0.000707891 2.75521e-09)
(-0.138738 -0.00436299 1.18931e-07)
(-0.139851 -0.0110152 3.85986e-07)
(-0.140913 -0.0219787 2.49337e-06)
(-0.140087 -0.0382584 5.74327e-06)
(-0.132444 0.0367933 -7.07833e-06)
(-0.128371 0.0201066 -2.70723e-06)
(-0.124155 0.0107471 -4.85866e-07)
(-0.121125 0.00572881 -2.01973e-07)
(-0.119131 0.00310291 1.847e-08)
(-0.117874 0.00175587 9.88156e-08)
(-0.117074 0.00109103 9.16265e-08)
(-0.116523 0.00080327 7.37082e-08)
(-0.116082 0.000738147 6.02936e-08)
(-0.115661 0.000814778 5.13694e-08)
(-0.115206 0.000983378 4.44514e-08)
(-0.114692 0.00119738 3.50346e-08)
(-0.114136 0.00138775 1.66099e-08)
(-0.11361 0.00142929 -2.55898e-08)
(-0.113278 0.00108581 -8.34726e-08)
(-0.113429 -8.72018e-05 -2.68743e-08)
(-0.114479 -0.00290609 5.77466e-08)
(-0.116928 -0.00876128 -2.70289e-07)
(-0.121131 -0.0198736 2.26928e-06)
(-0.125532 -0.0392967 9.30753e-06)
(-0.106103 0.0317346 -8.94386e-06)
(-0.095599 0.0135037 3.85978e-06)
(-0.0888084 0.00586341 4.1832e-06)
(-0.085094 0.0026343 1.69378e-06)
(-0.0830254 0.0012443 8.41577e-07)
(-0.0818614 0.000640812 4.90629e-07)
(-0.0811762 0.000383391 2.85213e-07)
(-0.08072 0.000290704 1.97524e-07)
(-0.0803486 0.000288332 1.79469e-07)
(-0.079974 0.000345202 1.98644e-07)
(-0.0795398 0.000446919 2.39112e-07)
(-0.0790128 0.000582342 2.87863e-07)
(-0.0783881 0.000732675 3.22734e-07)
(-0.0777086 0.000855176 2.85395e-07)
(-0.0771075 0.000849339 9.61552e-08)
(-0.0768844 0.000478963 -2.16841e-07)
(-0.0775782 -0.000814711 -1.15723e-06)
(-0.0801884 -0.00435237 -5.01982e-06)
(-0.086683 -0.0130843 -6.42028e-06)
(-0.098097 -0.0336849 1.06183e-05)
(-0.0548631 0.0196862 -4.78922e-05)
(-0.0405881 0.00556938 -7.3611e-06)
(-0.0350636 0.00164771 -3.28973e-07)
(-0.0331455 0.000495339 -1.20263e-06)
(-0.0323419 0.000148842 -7.6378e-07)
(-0.0319606 4.93472e-05 -3.33502e-07)
(-0.0317553 2.57522e-05 -1.75172e-07)
(-0.0316135 2.67365e-05 -1.14356e-07)
(-0.0314803 3.84776e-05 -9.27904e-08)
(-0.0313227 5.85322e-05 -9.66561e-08)
(-0.0311145 8.79198e-05 -1.17707e-07)
(-0.0308329 0.000128713 -1.4793e-07)
(-0.0304581 0.000182796 -1.75572e-07)
(-0.0299796 0.000249204 -1.80013e-07)
(-0.0294134 0.000315332 -8.31293e-08)
(-0.0288469 0.000329127 3.27224e-07)
(-0.0285455 0.000101644 6.46328e-07)
(-0.0292632 -0.00105808 -1.49087e-06)
(-0.0340121 -0.0054331 3.79883e-06)
(-0.0498587 -0.0215342 5.78771e-05)
(-0.0268535 0.000589177 -1.39147e-06)
(-0.0285058 0.000420005 -9.5396e-07)
(-0.0296654 0.00028093 -6.15498e-07)
(-0.0304392 0.000178225 -3.74666e-07)
(-0.0309371 0.000109235 -2.18011e-07)
(-0.0312536 6.73448e-05 -1.25404e-07)
(-0.0314616 4.55765e-05 -7.71446e-08)
(-0.0316149 3.83605e-05 -5.89279e-08)
(-0.0317524 4.19096e-05 -6.17206e-08)
(-0.0319025 5.38301e-05 -7.94635e-08)
(-0.0320859 7.23619e-05 -1.08032e-07)
(-0.0323157 9.54156e-05 -1.44579e-07)
(-0.0325951 0.000119477 -1.84432e-07)
(-0.0329117 0.00013845 -2.18153e-07)
(-0.0332293 0.000142664 -2.30222e-07)
(-0.0334784 0.000118614 -1.99879e-07)
(-0.0335465 5.02691e-05 -9.73233e-08)
(-0.0332788 -7.90821e-05 1.25501e-07)
(-0.03249 -0.000277098 5.05527e-07)
(-0.0309972 -0.000535745 1.06783e-06)
(-0.0685664 0.00368124 1.31601e-06)
(-0.0726176 0.00269004 1.09232e-06)