/*--------------------------------*- C++ -*----------------------------------*\
| =========                 |                                                 |
| \\      /  F ield         | OpenFOAM: The Open Source CFD Toolbox           |
|  \\    /   O peration     | Version:  2.4.0                                 |
|   \\  /    A nd           | Web:      www.OpenFOAM.org                      |
|    \\/     M anipulation  |                                                 |
\*---------------------------------------------------------------------------*/
FoamFile
{
    version     2.0;
    format      ascii;
    class       volScalarField;
    location    "0.0028";
    object      T;
}
// * * * * * * * * * * * * * * * * * * * * * * * * * * * * * * * * * * * * * //

dimensions      [0 0 0 1 0 0 0];

internalField   nonuniform List<scalar> 
4800
(
100.191
100.573
100.955
101.337
101.717
102.093
102.462
102.818
103.155
103.466
100.573
101.719
102.866
104.014
105.157
106.29
107.401
108.475
109.492
110.432
100.955
102.866
104.781
106.698
108.613
110.514
112.384
114.195
115.913
117.501
101.337
104.013
106.698
109.392
112.091
114.78
117.436
120.018
122.475
124.746
101.717
105.157
108.613
112.09
115.588
119.093
122.574
125.981
129.238
132.25
102.093
106.29
110.514
114.78
119.092
123.444
127.803
132.11
136.263
140.114
102.462
107.4
112.383
117.434
122.573
127.803
133.103
138.413
143.605
148.463
102.817
108.474
114.193
120.016
125.979
132.109
138.412
144.852
151.301
157.461
103.154
109.49
115.91
122.472
129.235
136.259
143.603
151.299
159.302
167.312
103.465
110.43
117.497
124.741
132.246
140.109
148.459
157.458
167.31
178.119
100.191
100.573
100.955
101.337
101.717
102.093
102.462
102.818
103.155
103.466
100.573
101.719
102.866
104.014
105.157
106.29
107.401
108.475
109.492
110.432
100.955
102.866
104.781
106.698
108.613
110.514
112.384
114.195
115.913
117.501
101.337
104.013
106.698
109.392
112.091
114.78
117.436
120.018
122.475
124.746
101.717
105.157
108.613
112.09
115.588
119.093
122.574
125.981
129.238
132.25
102.093
106.29
110.514
114.78
119.092
123.444
127.803
132.111
136.263
140.114
102.462
107.4
112.383
117.435
122.573
127.803
133.103
138.413
143.605
148.463
102.817
108.474
114.193
120.016
125.979
132.109
138.412
144.852
151.301
157.461
103.154
109.49
115.911
122.472
129.235
136.26
143.603
151.3
159.302
167.312
103.466
110.43
117.498
124.742
132.246
140.11
148.459
157.459
167.311
178.119
100.191
100.573
100.955
101.337
101.717
102.093
102.462
102.818
103.155
103.466
100.573
101.719
102.866
104.014
105.157
106.29
107.401
108.475
109.492
110.432
100.955
102.866
104.781
106.698
108.613
110.514
112.384
114.195
115.913
117.501
101.337
104.013
106.698
109.392
112.091
114.78
117.436
120.018
122.475
124.746
101.717
105.157
108.613
112.09
115.588
119.093
122.574
125.981
129.238
132.25
102.093
106.29
110.514
114.78
119.092
123.444
127.803
132.111
136.263
140.114
102.462
107.4
112.383
117.435
122.573
127.803
133.103
138.413
143.605
148.463
102.817
108.474
114.193
120.016
125.979
132.109
138.412
144.852
151.301
157.461
103.154
109.49
115.911
122.472
129.235
136.26
143.603
151.3
159.302
167.312
103.466
110.43
117.498
124.742
132.246
140.11
148.459
157.459
167.311
178.119
100.191
100.573
100.955
101.337
101.717
102.093
102.462
102.818
103.155
103.466
100.573
101.719
102.866
104.014
105.157
106.29
107.401
108.475
109.492
110.432
100.955
102.866
104.781
106.698
108.613
110.514
112.384
114.195
115.913
117.501
101.337
104.013
106.698
109.392
112.091
114.78
117.436
120.018
122.475
124.746
101.717
105.157
108.613
112.09
115.588
119.093
122.574
125.981
129.238
132.25
102.093
106.29
110.514
114.78
119.092
123.444
127.803
132.11
136.263
140.114
102.462
107.4
112.383
117.434
122.573
127.803
133.103
138.413
143.605
148.463
102.817
108.474
114.193
120.016
125.979
132.109
138.412
144.852
151.301
157.461
103.154
109.49
115.91
122.472
129.235
136.259
143.603
151.299
159.302
167.312
103.465
110.43
117.497
124.741
132.246
140.109
148.459
157.458
167.31
178.119
103.746
103.991
104.198
104.368
104.503
104.608
104.686
104.74
104.775
104.792
104.792
104.775
104.74
104.686
104.608
104.503
104.367
104.197
103.991
103.746
111.277
112.012
112.632
113.139
113.542
113.852
114.082
114.243
114.345
114.395
114.395
114.345
114.243
114.081
113.851
113.541
113.138
112.631
112.011
111.276
118.923
120.154
121.185
122.021
122.679
123.182
123.552
123.81
123.973
124.052
124.052
123.973
123.81
123.551
123.181
122.678
122.02
121.184
120.153
118.922
126.771
128.507
129.943
131.09
131.981
132.653
133.143
133.482
133.694
133.796
133.796
133.694
133.481
133.141
132.651
131.979
131.088
129.941
128.505
126.769
134.92
137.175
139.001
140.429
141.514
142.317
142.895
143.29
143.536
143.653
143.653
143.535
143.289
142.893
142.315
141.512
140.426
138.998
137.173
134.918
143.498
146.287
148.471
150.123
151.341
152.221
152.841
153.259
153.517
153.64
153.64
153.516
153.258
152.839
152.219
151.338
150.12
148.469
146.285
143.496
152.687
156.019
158.489
160.264
161.519
162.396
163
163.401
163.645
163.761
163.761
163.645
163.4
162.999
162.395
161.517
160.261
158.487
156.016
152.685
162.785
166.626
169.216
170.937
172.085
172.857
173.373
173.71
173.913
174.008
174.008
173.912
173.709
173.372
172.856
172.084
170.935
169.214
166.624
162.783
174.378
178.495
180.822
182.192
183.039
183.582
183.935
184.161
184.296
184.359
184.359
184.296
184.161
183.934
183.581
183.038
182.191
180.821
178.494
174.378
188.932
192.163
193.392
193.977
194.303
194.503
194.629
194.709
194.756
194.779
194.779
194.756
194.709
194.629
194.502
194.303
193.977
193.392
192.163
188.931
103.746
103.991
104.197
104.367
104.503
104.608
104.685
104.74
104.775
104.792
104.792
104.775
104.74
104.685
104.607
104.502
104.367
104.197
103.99
103.745
111.276
112.012
112.632
113.139
113.542
113.852
114.081
114.243
114.345
114.394
114.394
114.344
114.242
114.081
113.85
113.54
113.137
112.63
112.01
111.275
118.923
120.154
121.185
122.021
122.679
123.181
123.552
123.81
123.973
124.051
124.051
123.972
123.809
123.55
123.18
122.677
122.018
121.182
120.152
118.92
126.77
128.507
129.943
131.09
131.981
132.652
133.142
133.481
133.693
133.796
133.795
133.693
133.48
133.14
132.65
131.978
131.087
129.939
128.504
126.767
134.919
137.175
139.001
140.428
141.513
142.317
142.894
143.289
143.535
143.653
143.652
143.534
143.288
142.892
142.314
141.51
140.425
138.997
137.171
134.916
143.498
146.287
148.471
150.122
151.34
152.22
152.84
153.258
153.516
153.639
153.639
153.515
153.257
152.838
152.217
151.337
150.119
148.467
146.283
143.494
152.687
156.018
158.489
160.263
161.518
162.396
162.999
163.4
163.644
163.76
163.76
163.644
163.399
162.997
162.393
161.515
160.26
158.485
156.015
152.684
162.785
166.625
169.215
170.936
172.085
172.856
173.373
173.709
173.912
174.007
174.007
173.911
173.708
173.371
172.854
172.083
170.934
169.212
166.622
162.782
174.378
178.495
180.822
182.192
183.039
183.581
183.934
184.16
184.295
184.358
184.358
184.295
184.16
183.933
183.58
183.037
182.19
180.82
178.493
174.376
188.932
192.163
193.392
193.977
194.303
194.502
194.629
194.709
194.756
194.778
194.778
194.756
194.708
194.628
194.502
194.302
193.976
193.391
192.162
188.93
103.746
103.991
104.197
104.367
104.503
104.608
104.685
104.74
104.775
104.792
104.792
104.775
104.74
104.685
104.607
104.502
104.367
104.197
103.99
103.745
111.276
112.012
112.632
113.139
113.542
113.852
114.081
114.243
114.345
114.394
114.394
114.344
114.242
114.081
113.85
113.54
113.137
112.63
112.01
111.275
118.923
120.154
121.185
122.021
122.679
123.181
123.552
123.81
123.973
124.051
124.051
123.972
123.809
123.55
123.18
122.677
122.018
121.182
120.152
118.92
126.77
128.507
129.943
131.09
131.981
132.652
133.142
133.481
133.693
133.796
133.795
133.693
133.48
133.14
132.65
131.978
131.087
129.939
128.504
126.767
134.919
137.175
139.001
140.428
141.513
142.317
142.894
143.289
143.535
143.653
143.652
143.534
143.288
142.892
142.314
141.51
140.425
138.997
137.171
134.916
143.498
146.287
148.471
150.122
151.34
152.22
152.84
153.258
153.516
153.639
153.639
153.515
153.257
152.838
152.217
151.337
150.119
148.467
146.283
143.494
152.687
156.018
158.489
160.263
161.518
162.396
162.999
163.4
163.644
163.76
163.76
163.644
163.399
162.997
162.393
161.515
160.26
158.485
156.015
152.684
162.785
166.625
169.215
170.936
172.085
172.856
173.373
173.709
173.912
174.007
174.007
173.911
173.708
173.371
172.854
172.083
170.934
169.212
166.622
162.782
174.378
178.495
180.822
182.192
183.039
183.581
183.934
184.16
184.295
184.358
184.358
184.295
184.16
183.933
183.58
183.037
182.19
180.82
178.493
174.376
188.932
192.163
193.392
193.977
194.303
194.502
194.629
194.709
194.756
194.778
194.778
194.756
194.708
194.628
194.502
194.302
193.976
193.391
192.162
188.93
103.746
103.991
104.198
104.368
104.503
104.608
104.686
104.74
104.775
104.792
104.792
104.775
104.74
104.686
104.608
104.503
104.367
104.197
103.991
103.746
111.277
112.012
112.632
113.139
113.542
113.852
114.082
114.243
114.345
114.395
114.395
114.345
114.243
114.081
113.851
113.541
113.138
112.631
112.011
111.276
118.923
120.154
121.185
122.021
122.679
123.182
123.552
123.81
123.973
124.052
124.052
123.973
123.81
123.551
123.181
122.678
122.02
121.184
120.153
118.922
126.771
128.507
129.943
131.09
131.981
132.653
133.143
133.482
133.694
133.796
133.796
133.694
133.481
133.141
132.651
131.979
131.088
129.941
128.505
126.769
134.92
137.175
139.001
140.429
141.514
142.317
142.895
143.29
143.536
143.653
143.653
143.535
143.289
142.893
142.315
141.512
140.426
138.998
137.173
134.918
143.498
146.287
148.471
150.123
151.341
152.221
152.841
153.259
153.517
153.64
153.64
153.516
153.258
152.839
152.219
151.338
150.12
148.469
146.285
143.496
152.687
156.019
158.489
160.264
161.519
162.396
163
163.401
163.645
163.761
163.761
163.645
163.4
162.999
162.395
161.517
160.261
158.487
156.016
152.685
162.785
166.626
169.216
170.937
172.085
172.857
173.373
173.71
173.913
174.008
174.008
173.912
173.709
173.372
172.856
172.084
170.935
169.214
166.624
162.783
174.378
178.495
180.822
182.192
183.039
183.582
183.935
184.161
184.296
184.359
184.359
184.296
184.161
183.934
183.581
183.038
182.191
180.821
178.494
174.378
188.932
192.163
193.392
193.977
194.303
194.503
194.629
194.709
194.756
194.779
194.779
194.756
194.709
194.629
194.502
194.303
193.977
193.392
192.163
188.931
103.466
103.155
102.818
102.462
102.094
101.718
101.337
100.955
100.573
100.191
110.432
109.492
108.475
107.401
106.29
105.158
104.014
102.867
101.72
100.573
117.5
115.913
114.195
112.384
110.515
108.614
106.699
104.782
102.867
100.955
124.745
122.475
120.018
117.436
114.781
112.091
109.393
106.699
104.014
101.337
132.249
129.237
125.981
122.574
119.093
115.589
112.091
108.614
105.158
101.717
140.113
136.262
132.11
127.804
123.444
119.093
114.781
110.515
106.29
102.094
148.462
143.605
138.413
133.104
127.804
122.574
117.436
112.384
107.401
102.462
157.461
151.301
144.853
138.413
132.11
125.981
120.018
114.195
108.475
102.818
167.312
159.303
151.301
143.605
136.262
129.237
122.474
115.912
109.492
103.155
178.12
167.312
157.461
148.462
140.113
132.249
124.744
117.5
110.432
103.466
103.465
103.154
102.817
102.462
102.093
101.717
101.336
100.955
100.572
100.191
110.431
109.491
108.474
107.4
106.289
105.156
104.013
102.866
101.719
100.572
117.499
115.911
114.193
112.383
110.513
108.612
106.697
104.78
102.866
100.955
124.743
122.473
120.016
117.434
114.779
112.09
109.391
106.697
104.013
101.336
132.247
129.236
125.979
122.573
119.092
115.587
112.09
108.612
105.156
101.717
140.111
136.26
132.109
127.802
123.443
119.092
114.779
110.513
106.289
102.093
148.46
143.603
138.411
133.102
127.802
122.573
117.434
112.383
107.4
102.461
157.459
151.299
144.851
138.411
132.109
125.979
120.016
114.193
108.473
102.817
167.311
159.301
151.299
143.603
136.26
129.236
122.473
115.911
109.49
103.154
178.118
167.31
157.459
148.46
140.111
132.247
124.742
117.498
110.43
103.465
103.465
103.154
102.817
102.462
102.093
101.717
101.336
100.955
100.572
100.191
110.431
109.491
108.474
107.4
106.289
105.156
104.013
102.866
101.719
100.572
117.499
115.911
114.193
112.383
110.513
108.612
106.697
104.78
102.866
100.955
124.743
122.473
120.016
117.434
114.779
112.09
109.391
106.697
104.013
101.336
132.247
129.236
125.979
122.573
119.092
115.587
112.09
108.612
105.156
101.717
140.111
136.26
132.109
127.802
123.443
119.092
114.779
110.513
106.289
102.093
148.46
143.603
138.411
133.102
127.802
122.573
117.434
112.383
107.4
102.461
157.459
151.299
144.851
138.411
132.109
125.979
120.016
114.193
108.473
102.817
167.311
159.301
151.299
143.603
136.26
129.235
122.473
115.911
109.49
103.154
178.118
167.31
157.459
148.46
140.111
132.247
124.742
117.498
110.43
103.465
103.466
103.155
102.818
102.462
102.094
101.718
101.337
100.955
100.573
100.191
110.432
109.492
108.475
107.401
106.29
105.158
104.014
102.867
101.72
100.573
117.5
115.913
114.195
112.384
110.515
108.614
106.699
104.782
102.867
100.955
124.745
122.475
120.018
117.436
114.781
112.091
109.393
106.699
104.014
101.337
132.249
129.237
125.981
122.574
119.093
115.589
112.091
108.614
105.158
101.717
140.113
136.262
132.11
127.804
123.444
119.093
114.781
110.515
106.29
102.094
148.462
143.605
138.413
133.104
127.804
122.574
117.436
112.384
107.401
102.462
157.461
151.301
144.853
138.413
132.11
125.981
120.018
114.195
108.475
102.818
167.312
159.303
151.301
143.605
136.262
129.237
122.474
115.912
109.492
103.155
178.12
167.312
157.461
148.462
140.113
132.249
124.744
117.5
110.432
103.466
188.932
174.378
162.784
152.685
143.496
134.917
126.768
118.921
111.276
103.746
192.163
178.494
166.624
156.016
146.284
137.172
128.505
120.152
112.011
103.99
193.392
180.821
169.213
158.486
148.468
138.997
129.939
121.182
112.63
104.197
193.977
182.191
170.934
160.26
150.118
140.424
131.086
122.018
113.137
104.367
194.303
183.038
172.083
161.515
151.336
141.509
131.977
122.676
113.54
104.503
194.502
183.581
172.854
162.393
152.216
142.313
132.649
123.179
113.85
104.607
194.629
183.935
173.372
162.998
152.838
142.892
133.14
123.55
114.081
104.685
194.71
184.162
173.711
163.402
153.26
143.29
133.482
123.811
114.243
104.741
194.758
184.3
173.919
163.652
153.524
143.542
133.7
123.978
114.348
104.776
194.782
184.369
174.022
163.778
153.658
143.671
133.812
124.064
114.402
104.795
194.785
184.378
174.036
163.795
153.676
143.688
133.827
124.076
114.41
104.797
194.768
184.329
173.963
163.706
153.582
143.598
133.749
124.016
114.372
104.785
194.729
184.218
173.795
163.504
153.369
143.395
133.574
123.881
114.288
104.756
194.663
184.029
173.514
163.17
153.02
143.066
133.291
123.666
114.154
104.71
194.557
183.735
173.085
162.668
152.505
142.586
132.884
123.359
113.963
104.646
194.393
183.287
172.449
161.945
151.781
141.926
132.333
122.947
113.709
104.56
194.125
182.594
171.512
160.925
150.793
141.048
131.613
122.415
113.384
104.451
193.647
181.482
170.123
159.501
149.474
139.912
130.703
121.754
112.983
104.317
192.64
179.602
168.055
157.547
147.761
138.49
129.591
120.958
112.506
104.157
189.973
176.287
165.022
154.958
145.621
136.776
128.281
120.034
111.956
103.975
188.93
174.376
162.781
152.683
143.494
134.915
126.766
118.92
111.274
103.745
192.162
178.492
166.621
156.014
146.282
137.17
128.503
120.15
112.009
103.989
193.39
180.818
169.211
158.483
148.465
138.995
129.937
121.18
112.629
104.196
193.975
182.188
170.931
160.257
150.116
140.422
131.084
122.016
113.136
104.366
194.301
183.035
172.08
161.512
151.333
141.507
131.975
122.674
113.538
104.502
194.501
183.578
172.852
162.39
152.214
142.311
132.647
123.177
113.848
104.606
194.627
183.932
173.369
162.995
152.835
142.889
133.138
123.548
114.079
104.684
194.708
184.159
173.708
163.399
153.257
143.288
133.479
123.808
114.242
104.74
194.756
184.297
173.915
163.649
153.521
143.54
133.697
123.976
114.346
104.775
194.78
184.366
174.019
163.775
153.655
143.668
133.809
124.061
114.4
104.794
194.783
184.375
174.033
163.791
153.673
143.685
133.824
124.073
114.408
104.796
194.766
184.326
173.959
163.703
153.579
143.595
133.746
124.013
114.37
104.783
194.727
184.214
173.792
163.501
153.366
143.392
133.571
123.879
114.286
104.755
194.66
184.026
173.511
163.166
153.016
143.063
133.288
123.663
114.151
104.709
194.555
183.732
173.081
162.664
152.501
142.583
132.881
123.356
113.961
104.644
194.39
183.284
172.445
161.942
151.778
141.923
132.33
122.944
113.706
104.559
194.123
182.591
171.508
160.921
150.79
141.045
131.61
122.413
113.382
104.449
193.644
181.478
170.119
159.497
149.471
139.909
130.7
121.751
112.981
104.315
192.638
179.598
168.051
157.543
147.758
138.486
129.587
120.955
112.503
104.156
189.97
176.283
165.018
154.955
145.618
136.773
128.278
120.031
111.954
103.974
188.93
174.376
162.781
152.683
143.494
134.915
126.766
118.92
111.274
103.745
192.162
178.492
166.621
156.014
146.282
137.17
128.503
120.15
112.009
103.989
193.39
180.818
169.211
158.483
148.465
138.995
129.937
121.18
112.629
104.196
193.975
182.188
170.931
160.257
150.116
140.422
131.084
122.016
113.136
104.366
194.301
183.035
172.08
161.512
151.333
141.507
131.975
122.674
113.538
104.502
194.501
183.578
172.852
162.39
152.214
142.311
132.647
123.177
113.848
104.606
194.627
183.932
173.369
162.995
152.835
142.889
133.138
123.548
114.079
104.684
194.708
184.159
173.708
163.399
153.257
143.288
133.479
123.808
114.242
104.74
194.756
184.297
173.915
163.649
153.521
143.54
133.697
123.976
114.346
104.775
194.78
184.366
174.019
163.775
153.655
143.668
133.809
124.061
114.4
104.794
194.783
184.375
174.033
163.791
153.673
143.685
133.824
124.073
114.408
104.796
194.766
184.326
173.959
163.703
153.579
143.595
133.746
124.013
114.37
104.783
194.727
184.214
173.792
163.501
153.366
143.392
133.571
123.879
114.286
104.755
194.66
184.026
173.511
163.166
153.016
143.063
133.288
123.663
114.151
104.709
194.555
183.732
173.081
162.664
152.501
142.583
132.881
123.356
113.961
104.644
194.39
183.284
172.445
161.942
151.778
141.923
132.33
122.944
113.706
104.559
194.123
182.591
171.508
160.921
150.79
141.045
131.61
122.413
113.382
104.449
193.644
181.478
170.119
159.497
149.471
139.909
130.7
121.751
112.981
104.315
192.638
179.598
168.051
157.543
147.758
138.486
129.587
120.955
112.503
104.156
189.97
176.283
165.018
154.955
145.618
136.773
128.278
120.031
111.954
103.974
188.932
174.378
162.784
152.685
143.496
134.917
126.768
118.921
111.276
103.746
192.163
178.494
166.624
156.016
146.284
137.172
128.505
120.152
112.01
103.99
193.392
180.821
169.213
158.486
148.468
138.997
129.939
121.182
112.63
104.197
193.977
182.191
170.934
160.26
150.118
140.424
131.086
122.018
113.137
104.367
194.303
183.038
172.083
161.515
151.336
141.509
131.977
122.676
113.54
104.503
194.502
183.581
172.854
162.393
152.216
142.313
132.649
123.179
113.85
104.607
194.629
183.935
173.372
162.998
152.838
142.892
133.14
123.55
114.081
104.685
194.71
184.162
173.711
163.402
153.26
143.29
133.482
123.811
114.243
104.741
194.758
184.3
173.919
163.652
153.524
143.542
133.7
123.978
114.348
104.776
194.782
184.369
174.022
163.778
153.658
143.671
133.812
124.064
114.402
104.795
194.785
184.378
174.036
163.795
153.676
143.688
133.827
124.076
114.41
104.797
194.768
184.329
173.963
163.706
153.582
143.598
133.749
124.016
114.372
104.785
194.729
184.218
173.795
163.504
153.369
143.395
133.574
123.881
114.288
104.756
194.663
184.029
173.514
163.17
153.02
143.066
133.291
123.666
114.154
104.71
194.557
183.735
173.085
162.668
152.505
142.586
132.884
123.359
113.963
104.646
194.393
183.287
172.449
161.945
151.781
141.926
132.333
122.947
113.709
104.56
194.125
182.594
171.512
160.925
150.793
141.048
131.613
122.415
113.384
104.451
193.647
181.482
170.123
159.501
149.474
139.912
130.703
121.754
112.983
104.317
192.64
179.602
168.055
157.547
147.761
138.49
129.591
120.958
112.506
104.157
189.973
176.287
165.022
154.958
145.621
136.776
128.281
120.034
111.956
103.975
180.974
170.633
160.891
151.754
143.099
134.812
126.806
119.006
111.348
103.774
172.53
164.506
156.293
148.21
140.342
132.69
125.225
117.91
110.703
103.561
165.334
158.749
151.748
144.628
137.533
130.523
123.613
116.794
110.047
103.344
159.29
153.639
147.548
141.234
134.834
128.425
122.046
115.707
109.408
103.133
154.257
149.252
143.841
138.175
132.366
126.49
120.592
114.696
108.811
102.936
150.14
145.601
140.7
135.543
130.217
124.789
119.307
113.799
108.282
102.761
146.883
142.684
138.162
133.392
128.445
123.378
118.235
113.048
107.837
102.614
144.457
140.499
136.246
131.757
127.089
122.292
117.408
112.467
107.492
102.5
142.846
139.043
134.964
130.658
126.174
121.558
116.847
112.072
107.256
102.422
142.042
138.316
134.322
130.106
125.713
121.187
116.564
111.873
107.138
102.387
180.971
170.629
160.887
151.75
143.095
134.809
126.803
119.003
111.346
103.772
172.526
164.503
156.29
148.207
140.339
132.686
125.222
117.907
110.701
103.559
165.331
158.746
151.745
144.625
137.53
130.52
123.61
116.791
110.045
103.343
159.288
153.636
147.545
141.231
134.831
128.422
122.042
115.704
109.405
103.131
154.255
149.249
143.839
138.172
132.363
126.486
120.588
114.692
108.808
102.934
150.137
145.598
140.698
135.54
130.214
124.786
119.303
113.795
108.278
102.759
146.881
142.682
138.159
133.389
128.442
123.374
118.231
113.044
107.833
102.611
144.454
140.497
136.243
131.754
127.086
122.289
117.404
112.462
107.487
102.497
142.844
139.041
134.961
130.655
126.171
121.554
116.843
112.067
107.251
102.418
142.04
138.313
134.319
130.103
125.71
121.183
116.559
111.868
107.132
102.381
180.971
170.629
160.887
151.75
143.095
134.809
126.803
119.003
111.346
103.772
172.526
164.503
156.29
148.207
140.339
132.686
125.222
117.907
110.701
103.559
165.331
158.746
151.745
144.625
137.53
130.52
123.61
116.791
110.045
103.343
159.288
153.636
147.545
141.231
134.831
128.422
122.042
115.704
109.405
103.131
154.255
149.249
143.839
138.172
132.363
126.486
120.588
114.692
108.808
102.934
150.137
145.598
140.698
135.54
130.214
124.786
119.303
113.795
108.278
102.759
146.881
142.682
138.159
133.389
128.442
123.375
118.231
113.044
107.833
102.611
144.455
140.497
136.243
131.754
127.086
122.289
117.404
112.462
107.487
102.497
142.844
139.041
134.962
130.655
126.171
121.554
116.842
112.067
107.251
102.418
142.04
138.314
134.319
130.103
125.71
121.183
116.559
111.868
107.132
102.381
180.974
170.633
160.891
151.754
143.099
134.812
126.806
119.006
111.348
103.774
172.53
164.507
156.293
148.21
140.342
132.69
125.225
117.91
110.703
103.561
165.334
158.749
151.748
144.628
137.533
130.523
123.613
116.794
110.047
103.344
159.291
153.639
147.548
141.234
134.834
128.425
122.046
115.707
109.408
103.133
154.257
149.252
143.841
138.175
132.366
126.49
120.592
114.696
108.811
102.936
150.14
145.601
140.7
135.543
130.217
124.789
119.307
113.799
108.282
102.761
146.883
142.684
138.162
133.392
128.445
123.378
118.235
113.048
107.837
102.614
144.457
140.499
136.246
131.757
127.089
122.292
117.408
112.467
107.492
102.5
142.846
139.043
134.964
130.658
126.174
121.558
116.847
112.072
107.256
102.422
142.042
138.316
134.322
130.106
125.713
121.187
116.563
111.873
107.138
102.387
190.863
193.923
195.159
195.796
196.181
196.434
196.607
196.723
196.794
196.829
196.829
196.795
196.723
196.608
196.435
196.181
195.796
195.16
193.923
190.861
179.476
183.646
186.128
187.688
188.723
189.435
189.929
190.263
190.472
190.572
190.572
190.472
190.264
189.93
189.436
188.724
187.689
186.128
183.643
179.47
171.005
175.201
178.164
180.251
181.736
182.801
183.56
184.081
184.409
184.567
184.567
184.41
184.082
183.561
182.803
181.738
180.251
178.163
175.199
170.999
164.23
168.221
171.308
173.649
175.408
176.717
177.672
178.34
178.764
178.97
178.97
178.765
178.342
177.675
176.72
175.411
173.652
171.309
168.22
164.226
158.695
162.449
165.512
167.95
169.855
171.316
172.406
173.18
173.676
173.918
173.919
173.678
173.183
172.41
171.321
169.86
167.955
165.517
162.453
158.697
154.206
157.744
160.725
163.176
165.148
166.696
167.871
168.716
169.263
169.532
169.533
169.266
168.721
167.878
166.704
165.157
163.186
160.735
157.753
154.215
150.669
154.026
156.915
159.342
161.335
162.926
164.151
165.042
165.622
165.908
165.91
165.626
165.048
164.161
162.938
161.349
159.358
156.932
154.043
150.686
148.039
151.257
154.064
156.457
158.448
160.057
161.309
162.226
162.827
163.124
163.126
162.832
162.235
161.322
160.073
158.467
156.478
154.088
151.282
148.065
146.293
149.418
152.165
154.527
156.51
158.125
159.39
160.321
160.933
161.237
161.24
160.94
160.332
159.405
158.145
156.533
154.554
152.195
149.45
146.326
145.421
148.499
151.215
153.561
155.537
157.154
158.423
159.36
159.977
160.285
160.287
159.985
159.372
158.44
157.175
155.563
153.591
151.249
148.535
145.459
190.866
193.925
195.161
195.797
196.182
196.435
196.608
196.723
196.795
196.829
196.829
196.794
196.723
196.607
196.434
196.18
195.795
195.158
193.921
190.859
179.479
183.649
186.131
187.69
188.725
189.436
189.93
190.264
190.472
190.572
190.572
190.472
190.263
189.929
189.435
188.723
187.687
186.126
183.641
179.467
171.008
175.204
178.167
180.253
181.738
182.803
183.561
184.082
184.409
184.567
184.567
184.409
184.082
183.56
182.802
181.736
180.249
178.161
175.196
170.997
164.233
168.223
171.311
173.652
175.41
176.719
177.673
178.341
178.764
178.97
178.97
178.764
178.341
177.674
176.718
175.409
173.65
171.307
168.217
164.224
158.698
162.452
165.514
167.952
169.857
171.318
172.407
173.181
173.676
173.918
173.919
173.677
173.182
172.409
171.32
169.859
167.953
165.514
162.451
158.695
154.209
157.746
160.727
163.179
165.15
166.697
167.872
168.717
169.263
169.532
169.533
169.266
168.72
167.877
166.703
165.156
163.185
160.733
157.751
154.213
150.672
154.029
156.917
159.345
161.336
162.927
164.152
165.042
165.622
165.908
165.909
165.625
165.048
164.16
162.936
161.347
159.356
156.93
154.041
150.684
148.042
151.26
154.066
156.459
158.449
160.059
161.31
162.227
162.827
163.124
163.126
162.832
162.234
161.32
160.072
158.465
156.477
154.086
151.28
148.063
146.295
149.42
152.167
154.529
156.512
158.127
159.391
160.321
160.933
161.237
161.239
160.939
160.331
159.404
158.143
156.532
154.553
152.193
149.448
146.324
145.424
148.501
151.217
153.563
155.539
157.155
158.424
159.36
159.977
160.284
160.287
159.984
159.371
158.439
157.174
155.562
153.589
151.247
148.533
145.457
190.866
193.925
195.161
195.797
196.182
196.435
196.608
196.723
196.795
196.829
196.829
196.794
196.723
196.607
196.434
196.18
195.795
195.158
193.921
190.859
179.479
183.649
186.131
187.69
188.725
189.436
189.93
190.264
190.472
190.572
190.572
190.472
190.263
189.929
189.435
188.723
187.687
186.126
183.641
179.467
171.008
175.204
178.167
180.253
181.738
182.803
183.561
184.082
184.409
184.567
184.567
184.409
184.082
183.56
182.802
181.736
180.249
178.161
175.196
170.997
164.233
168.223
171.311
173.652
175.41
176.718
177.673
178.341
178.764
178.97
178.97
178.764
178.341
177.674
176.718
175.409
173.65
171.307
168.217
164.224
158.698
162.452
165.514
167.952
169.857
171.318
172.407
173.181
173.676
173.918
173.919
173.677
173.182
172.409
171.32
169.859
167.953
165.514
162.45
158.695
154.209
157.746
160.727
163.179
165.15
166.697
167.872
168.717
169.263
169.532
169.533
169.266
168.721
167.877
166.703
165.156
163.185
160.733
157.751
154.213
150.672
154.029
156.917
159.345
161.336
162.927
164.152
165.042
165.622
165.908
165.909
165.625
165.048
164.16
162.936
161.347
159.356
156.93
154.041
150.684
148.042
151.26
154.066
156.459
158.449
160.059
161.31
162.227
162.827
163.124
163.126
162.831
162.234
161.32
160.072
158.465
156.477
154.086
151.28
148.063
146.295
149.42
152.167
154.529
156.512
158.127
159.391
160.321
160.933
161.237
161.239
160.939
160.331
159.404
158.143
156.532
154.553
152.193
149.447
146.324
145.424
148.501
151.217
153.563
155.539
157.155
158.424
159.36
159.977
160.284
160.287
159.984
159.371
158.439
157.174
155.562
153.589
151.247
148.533
145.457
190.863
193.923
195.159
195.796
196.181
196.434
196.607
196.723
196.794
196.829
196.829
196.795
196.723
196.608
196.435
196.181
195.796
195.16
193.923
190.861
179.476
183.646
186.128
187.688
188.723
189.435
189.929
190.263
190.472
190.572
190.572
190.472
190.264
189.93
189.436
188.724
187.689
186.128
183.643
179.47
171.005
175.201
178.164
180.251
181.736
182.801
183.56
184.081
184.409
184.567
184.567
184.41
184.082
183.561
182.803
181.738
180.251
178.163
175.199
170.999
164.23
168.221
171.308
173.649
175.408
176.717
177.672
178.34
178.764
178.97
178.97
178.765
178.342
177.675
176.72
175.411
173.652
171.309
168.22
164.226
158.695
162.449
165.512
167.95
169.855
171.316
172.406
173.18
173.676
173.918
173.919
173.678
173.183
172.41
171.321
169.86
167.955
165.517
162.453
158.697
154.206
157.744
160.725
163.177
165.148
166.696
167.871
168.717
169.263
169.532
169.533
169.266
168.722
167.878
166.704
165.157
163.187
160.735
157.753
154.215
150.67
154.026
156.915
159.343
161.335
162.926
164.151
165.042
165.622
165.908
165.91
165.626
165.049
164.161
162.938
161.349
159.358
156.932
154.043
150.687
148.039
151.257
154.064
156.457
158.448
160.057
161.309
162.226
162.827
163.124
163.126
162.832
162.235
161.322
160.073
158.467
156.478
154.088
151.282
148.065
146.293
149.418
152.165
154.528
156.51
158.125
159.39
160.321
160.933
161.237
161.24
160.94
160.332
159.405
158.145
156.533
154.554
152.194
149.45
146.326
145.421
148.499
151.215
153.561
155.537
157.153
158.423
159.36
159.977
160.284
160.287
159.984
159.372
158.44
157.175
155.563
153.591
151.249
148.535
145.459
103.775
111.354
119.017
126.821
134.831
143.118
151.773
160.908
170.646
180.981
103.562
110.709
117.922
125.241
132.709
140.362
148.23
156.311
164.521
172.539
103.346
110.053
116.805
123.628
130.541
137.552
144.647
151.765
158.762
165.343
103.134
109.412
115.717
122.058
128.44
134.849
141.249
147.561
153.648
159.297
102.937
108.814
114.702
120.6
126.5
132.376
138.184
143.848
149.255
154.258
102.76
108.282
113.802
119.311
124.793
130.219
135.543
140.698
145.596
150.133
102.612
107.835
113.046
118.232
123.373
128.437
133.382
138.149
142.669
146.867
102.497
107.487
112.459
117.397
122.277
127.071
131.736
136.223
140.474
144.431
102.418
107.25
112.057
116.827
121.533
126.146
130.627
134.931
139.009
142.811
102.374
107.129
111.854
116.538
121.157