/*--------------------------------*- C++ -*----------------------------------*\
| =========                 |                                                 |
| \\      /  F ield         | OpenFOAM: The Open Source CFD Toolbox           |
|  \\    /   O peration     | Version:  2.4.0                                 |
|   \\  /    A nd           | Web:      www.OpenFOAM.org                      |
|    \\/     M anipulation  |                                                 |
\*---------------------------------------------------------------------------*/
FoamFile
{
    version     2.0;
    format      ascii;
    class       volScalarField;
    location    "0.0062";
    object      T;
}
// * * * * * * * * * * * * * * * * * * * * * * * * * * * * * * * * * * * * * //

dimensions      [0 0 0 1 0 0 0];

internalField   nonuniform List<scalar> 
4800
(
100.194
100.581
100.968
101.354
101.737
102.117
102.487
102.844
103.182
103.493
100.581
101.742
102.903
104.063
105.217
106.358
107.475
108.552
109.571
110.511
100.968
102.903
104.841
106.778
108.71
110.625
112.503
114.319
116.039
117.626
101.354
104.063
106.778
109.499
112.22
114.927
117.593
120.182
122.64
124.908
101.738
105.218
108.71
112.22
115.744
119.268
122.762
126.174
129.431
132.438
102.117
106.359
110.625
114.927
119.269
123.64
128.012
132.322
136.471
140.314
102.488
107.476
112.504
117.595
122.763
128.013
133.323
138.632
143.816
148.66
102.845
108.554
114.321
120.184
126.176
132.324
138.633
145.068
151.502
157.641
103.182
109.573
116.042
122.644
129.435
136.474
143.819
151.503
159.482
167.46
103.494
110.514
117.63
124.914
132.445
140.32
148.665
157.645
167.462
178.222
100.194
100.581
100.968
101.354
101.738
102.117
102.487
102.844
103.182
103.493
100.581
101.742
102.903
104.063
105.217
106.358
107.475
108.552
109.571
110.511
100.968
102.903
104.841
106.778
108.71
110.625
112.503
114.319
116.039
117.626
101.354
104.063
106.778
109.499
112.22
114.927
117.593
120.182
122.64
124.908
101.738
105.218
108.71
112.22
115.744
119.268
122.762
126.174
129.431
132.438
102.117
106.359
110.625
114.927
119.269
123.64
128.012
132.322
136.471
140.314
102.488
107.476
112.504
117.595
122.763
128.013
133.323
138.632
143.816
148.66
102.845
108.554
114.321
120.184
126.177
132.324
138.634
145.068
151.502
157.641
103.182
109.573
116.042
122.644
129.435
136.475
143.819
151.504
159.482
167.46
103.494
110.514
117.631
124.914
132.445
140.321
148.666
157.645
167.462
178.223
100.194
100.581
100.968
101.354
101.738
102.117
102.487
102.844
103.182
103.493
100.581
101.742
102.903
104.063
105.217
106.358
107.475
108.552
109.571
110.511
100.968
102.903
104.841
106.778
108.71
110.625
112.503
114.319
116.039
117.626
101.354
104.063
106.778
109.499
112.22
114.927
117.593
120.182
122.64
124.908
101.738
105.218
108.71
112.22
115.744
119.268
122.762
126.174
129.431
132.438
102.117
106.359
110.625
114.927
119.269
123.64
128.012
132.322
136.471
140.314
102.488
107.476
112.504
117.595
122.763
128.013
133.323
138.632
143.816
148.66
102.845
108.554
114.321
120.184
126.177
132.324
138.634
145.068
151.502
157.641
103.182
109.573
116.042
122.644
129.435
136.475
143.819
151.504
159.482
167.46
103.494
110.514
117.631
124.914
132.445
140.321
148.666
157.645
167.462
178.223
100.194
100.581
100.968
101.354
101.737
102.117
102.487
102.844
103.182
103.493
100.581
101.742
102.903
104.063
105.217
106.358
107.475
108.552
109.571
110.511
100.968
102.903
104.841
106.778
108.71
110.625
112.503
114.319
116.039
117.626
101.354
104.063
106.778
109.499
112.22
114.927
117.593
120.182
122.64
124.908
101.738
105.218
108.71
112.22
115.744
119.268
122.762
126.174
129.431
132.438
102.117
106.359
110.625
114.927
119.269
123.64
128.012
132.322
136.471
140.314
102.488
107.476
112.504
117.595
122.763
128.013
133.323
138.632
143.816
148.66
102.845
108.554
114.321
120.184
126.176
132.324
138.633
145.068
151.502
157.641
103.182
109.573
116.042
122.644
129.435
136.474
143.819
151.503
159.482
167.46
103.494
110.514
117.63
124.914
132.445
140.32
148.665
157.645
167.462
178.222
103.773
104.016
104.222
104.391
104.526
104.63
104.707
104.762
104.796
104.813
104.813
104.796
104.761
104.707
104.63
104.526
104.391
104.222
104.016
103.773
111.354
112.087
112.704
113.208
113.609
113.916
114.144
114.304
114.405
114.454
114.454
114.405
114.304
114.144
113.916
113.608
113.208
112.703
112.086
111.353
119.045
120.272
121.298
122.13
122.784
123.282
123.65
123.906
124.067
124.145
124.145
124.067
123.905
123.649
123.281
122.782
122.128
121.297
120.271
119.044
126.928
128.659
130.087
131.229
132.114
132.78
133.266
133.602
133.812
133.913
133.913
133.812
133.601
133.265
132.779
132.112
131.227
130.085
128.657
126.926
135.1
137.347
139.164
140.584
141.662
142.459
143.032
143.423
143.667
143.783
143.783
143.666
143.422
143.03
142.457
141.659
140.581
139.162
137.345
135.098
143.687
146.464
148.638
150.28
151.49
152.363
152.978
153.393
153.648
153.77
153.77
153.648
153.392
152.977
152.361
151.488
150.277
148.636
146.462
143.685
152.869
156.186
158.643
160.408
161.654
162.526
163.125
163.522
163.764
163.878
163.878
163.763
163.521
163.123
162.524
161.653
160.406
158.641
156.183
152.867
162.943
166.765
169.342
171.053
172.194
172.96
173.472
173.806
174.007
174.102
174.101
174.007
173.805
173.472
172.959
172.193
171.052
169.34
166.764
162.941
174.494
178.591
180.906
182.268
183.11
183.649
183.999
184.223
184.357
184.419
184.419
184.356
184.223
183.998
183.648
183.109
182.267
180.905
178.591
174.494
188.984
192.199
193.422
194.004
194.328
194.526
194.651
194.73
194.777
194.799
194.799
194.777
194.73
194.651
194.525
194.328
194.003
193.422
192.199
188.983
103.773
104.016
104.222
104.391
104.526
104.63
104.707
104.761
104.796
104.812
104.812
104.795
104.761
104.707
104.629
104.525
104.391
104.222
104.016
103.772
111.354
112.086
112.704
113.208
113.608
113.916
114.144
114.304
114.405
114.454
114.454
114.405
114.303
114.143
113.915
113.607
113.207
112.702
112.085
111.352
119.045
120.272
121.298
122.129
122.783
123.282
123.649
123.905
124.066
124.144
124.144
124.066
123.904
123.648
123.28
122.781
122.127
121.296
120.27
119.042
126.928
128.658
130.087
131.228
132.113
132.78
133.265
133.601
133.812
133.913
133.912
133.811
133.6
133.264
132.778
132.111
131.225
130.084
128.655
126.925
135.1
137.347
139.164
140.583
141.661
142.459
143.031
143.423
143.666
143.783
143.782
143.665
143.421
143.029
142.456
141.658
140.58
139.16
137.343
135.097
143.687
146.464
148.638
150.279
151.489
152.363
152.978
153.392
153.648
153.769
153.769
153.647
153.391
152.975
152.36
151.486
150.276
148.634
146.461
143.683
152.869
156.185
158.643
160.407
161.654
162.525
163.124
163.521
163.763
163.878
163.877
163.762
163.52
163.122
162.523
161.651
160.404
158.64
156.182
152.865
162.942
166.765
169.342
171.053
172.194
172.96
173.472
173.805
174.006
174.101
174.1
174.006
173.804
173.47
172.958
172.192
171.05
169.339
166.762
162.94
174.494
178.591
180.905
182.268
183.109
183.648
183.998
184.222
184.356
184.418
184.418
184.355
184.222
183.997
183.647
183.108
182.266
180.904
178.589
174.492
188.984
192.199
193.422
194.003
194.328
194.525
194.651
194.73
194.777
194.799
194.799
194.777
194.73
194.65
194.525
194.327
194.003
193.421
192.198
188.982
103.773
104.016
104.222
104.391
104.526
104.63
104.707
104.761
104.796
104.812
104.812
104.795
104.761
104.707
104.629
104.525
104.391
104.222
104.016
103.772
111.354
112.086
112.704
113.208
113.608
113.916
114.144
114.304
114.405
114.454
114.454
114.405
114.303
114.143
113.915
113.607
113.207
112.702
112.085
111.352
119.045
120.272
121.298
122.129
122.783
123.282
123.649
123.905
124.066
124.144
124.144
124.066
123.904
123.648
123.28
122.781
122.127
121.296
120.27
119.042
126.928
128.658
130.087
131.228
132.113
132.78
133.265
133.601
133.812
133.913
133.912
133.811
133.6
133.264
132.778
132.111
131.225
130.084
128.655
126.925
135.1
137.347
139.164
140.583
141.661
142.459
143.031
143.423
143.666
143.783
143.782
143.665
143.421
143.029
142.456
141.658
140.58
139.16
137.343
135.097
143.687
146.464
148.638
150.279
151.489
152.363
152.978
153.392
153.648
153.769
153.769
153.647
153.391
152.975
152.36
151.486
150.276
148.634
146.461
143.683
152.869
156.185
158.643
160.407
161.654
162.525
163.124
163.521
163.763
163.878
163.877
163.762
163.52
163.122
162.523
161.651
160.404
158.64
156.182
152.865
162.942
166.765
169.342
171.053
172.194
172.96
173.472
173.805
174.006
174.101
174.1
174.006
173.804
173.47
172.958
172.192
171.05
169.339
166.762
162.94
174.494
178.591
180.905
182.268
183.109
183.648
183.998
184.222
184.356
184.418
184.418
184.355
184.222
183.997
183.647
183.108
182.266
180.904
178.589
174.492
188.984
192.199
193.422
194.003
194.328
194.525
194.651
194.73
194.777
194.799
194.799
194.777
194.73
194.65
194.525
194.327
194.003
193.421
192.198
188.982
103.773
104.016
104.222
104.391
104.526
104.63
104.707
104.762
104.796
104.813
104.813
104.796
104.761
104.707
104.63
104.526
104.391
104.222
104.016
103.773
111.354
112.087
112.704
113.208
113.609
113.916
114.144
114.304
114.405
114.454
114.454
114.405
114.304
114.144
113.916
113.608
113.208
112.703
112.086
111.353
119.045
120.272
121.298
122.13
122.784
123.282
123.65
123.906
124.067
124.145
124.145
124.067
123.905
123.649
123.281
122.782
122.128
121.297
120.271
119.044
126.928
128.659
130.087
131.229
132.114
132.78
133.266
133.602
133.812
133.913
133.913
133.812
133.601
133.265
132.779
132.112
131.227
130.085
128.657
126.926
135.1
137.347
139.164
140.584
141.662
142.459
143.032
143.423
143.667
143.783
143.783
143.666
143.422
143.03
142.457
141.659
140.581
139.162
137.345
135.098
143.687
146.464
148.638
150.28
151.49
152.363
152.978
153.393
153.648
153.77
153.77
153.648
153.392
152.977
152.361
151.488
150.277
148.636
146.462
143.685
152.869
156.186
158.643
160.408
161.654
162.526
163.125
163.522
163.764
163.878
163.878
163.763
163.521
163.123
162.524
161.653
160.406
158.641
156.183
152.867
162.943
166.765
169.342
171.053
172.194
172.96
173.472
173.806
174.007
174.102
174.101
174.007
173.805
173.472
172.959
172.193
171.052
169.34
166.764
162.941
174.494
178.591
180.906
182.268
183.11
183.649
183.999
184.223
184.357
184.419
184.419
184.356
184.223
183.998
183.648
183.109
182.267
180.905
178.591
174.494
188.984
192.199
193.422
194.004
194.328
194.526
194.651
194.73
194.777
194.799
194.799
194.777
194.73
194.651
194.525
194.328
194.003
193.422
192.199
188.983
103.493
103.182
102.844
102.488
102.117
101.738
101.354
100.968
100.581
100.194
110.511
109.571
108.552
107.476
106.359
105.218
104.064
102.904
101.743
100.581
117.625
116.038
114.319
112.503
110.625
108.711
106.779
104.842
102.904
100.968
124.907
122.639
120.181
117.593
114.927
112.221
109.5
106.779
104.064
101.354
132.437
129.43
126.174
122.762
119.269
115.745
112.221
108.711
105.218
101.738
140.313
136.47
132.322
128.012
123.641
119.27
114.928
110.626
106.36
102.117
148.659
143.816
138.633
133.323
128.014
122.765
117.596
112.506
107.477
102.488
157.641
151.502
145.069
138.635
132.326
126.179
120.186
114.323
108.555
102.845
167.46
159.483
151.505
143.821
136.477
129.437
122.646
116.044
109.574
103.183
178.223
167.463
157.647
148.668
140.324
132.448
124.917
117.633
110.516
103.495
103.492
103.181
102.844
102.487
102.116
101.737
101.353
100.967
100.58
100.193
110.509
109.57
108.551
107.474
106.358
105.216
104.062
102.903
101.741
100.58
117.623
116.037
114.317
112.502
110.623
108.709
106.778
104.84
102.903
100.967
124.905
122.638
120.18
117.592
114.925
112.219
109.499
106.778
104.063
101.353
132.435
129.428
126.172
122.76
119.267
115.744
112.22
108.71
105.217
101.737
140.311
136.469
132.321
128.011
123.64
119.268
114.927
110.625
106.358
102.116
148.657
143.814
138.631
133.322
128.012
122.763
117.594
112.504
107.476
102.487
157.639
151.5
145.067
138.633
132.324
126.177
120.184
114.321
108.554
102.844
167.459
159.481
151.503
143.819
136.475
129.436
122.644
116.042
109.573
103.182
178.221
167.461
157.645
148.666
140.321
132.446
124.915
117.631
110.514
103.494
103.492
103.181
102.844
102.487
102.116
101.737
101.353
100.967
100.58
100.193
110.509
109.57
108.551
107.474
106.358
105.216
104.062
102.903
101.741
100.58
117.623
116.037
114.317
112.502
110.623
108.709
106.778
104.84
102.903
100.967
124.905
122.638
120.18
117.592
114.925
112.219
109.499
106.778
104.063
101.353
132.435
129.428
126.172
122.76
119.267
115.744
112.22
108.71
105.217
101.737
140.311
136.469
132.321
128.011
123.64
119.268
114.927
110.625
106.358
102.116
148.657
143.814
138.631
133.322
128.012
122.763
117.594
112.504
107.476
102.487
157.639
151.5
145.067
138.633
132.324
126.177
120.184
114.321
108.554
102.844
167.459
159.481
151.503
143.819
136.475
129.436
122.644
116.042
109.573
103.182
178.221
167.461
157.645
148.666
140.321
132.446
124.915
117.631
110.514
103.494
103.493
103.182
102.844
102.488
102.117
101.738
101.354
100.968
100.581
100.194
110.511
109.571
108.552
107.476
106.359
105.218
104.064
102.904
101.743
100.581
117.625
116.038
114.319
112.503
110.625
108.711
106.779
104.842
102.904
100.968
124.907
122.639
120.181
117.593
114.927
112.221
109.5
106.779
104.064
101.354
132.437
129.43
126.174
122.762
119.269
115.745
112.221
108.711
105.218
101.738
140.313
136.47
132.322
128.012
123.641
119.27
114.928
110.626
106.36
102.117
148.659
143.816
138.633
133.323
128.014
122.765
117.596
112.506
107.477
102.488
157.641
151.502
145.069
138.635
132.326
126.179
120.186
114.323
108.555
102.845
167.46
159.483
151.505
143.821
136.477
129.437
122.646
116.044
109.574
103.183
178.223
167.463
157.647
148.668
140.324
132.448
124.917
117.633
110.516
103.495
188.986
174.501
162.952
152.881
143.7
135.114
126.94
119.055
111.36
103.775
192.203
178.6
166.779
156.203
146.483
137.366
128.676
120.286
112.096
104.02
193.426
180.918
169.361
158.667
148.664
139.19
130.111
121.317
112.716
104.227
194.01
182.285
171.079
160.44
150.316
140.619
131.261
122.156
113.225
104.397
194.336
183.133
172.23
161.699
151.539
141.711
132.158
122.819
113.631
104.534
194.537
183.68
173.009
162.586
152.43
142.526
132.841
123.33
113.947
104.641
194.666
184.042
173.539
163.208
153.07
143.123
133.348
123.715
114.186
104.722
194.751
184.282
173.897
163.636
153.518
143.548
133.714
123.994
114.361
104.781
194.805
184.437
174.131
163.92
153.82
143.837
133.965
124.188
114.483
104.823
194.838
184.53
174.272
164.092
154.004
144.016
134.122
124.309
114.56
104.849
194.852
184.571
174.336
164.17
154.09
144.1
134.197
124.368
114.597
104.862
194.85
184.566
174.329
164.165
154.087
144.099
134.197
124.37
114.598
104.862
194.831
184.513
174.251
164.073
153.993
144.012
134.124
124.315
114.565
104.851
194.792
184.404
174.091
163.885
153.8
143.833
133.974
124.202
114.495
104.827
194.725
184.218
173.823
163.577
153.489
143.549
133.736
124.024
114.386
104.791
194.615
183.921
173.407
163.112
153.031
143.138
133.398
123.775
114.233
104.739
194.428
183.443
172.773
162.435
152.389
142.577
132.945
123.444
114.033
104.672
194.081
182.653
171.808
161.469
151.514
141.838
132.363
123.027
113.782
104.589
193.322
181.28
170.342
160.122
150.362
140.903
131.645
122.52
113.481
104.489
191.246
178.806
168.161
158.321
148.915
139.771
130.796
121.93
113.133
104.374
188.984
174.498
162.95
152.879
143.698
135.112
126.938
119.053
111.359
103.774
192.201
178.598
166.777
156.2
146.481
137.364
128.674
120.284
112.094
104.019
193.425
180.916
169.358
158.665
148.662
139.188
130.109
121.315
112.715
104.226
194.008
182.283
171.076
160.438
150.313
140.617
131.259
122.153
113.223
104.396
194.334
183.13
172.227
161.696
151.536
141.708
132.155
122.817
113.63
104.533
194.535
183.677
173.006
162.584
152.428
142.524
132.838
123.328
113.945
104.64
194.664
184.039
173.536
163.205
153.067
143.12
133.346
123.713
114.184
104.721
194.749
184.279
173.894
163.633
153.515
143.545
133.711
123.992
114.359
104.78
194.803
184.434
174.128
163.916
153.817
143.834
133.963
124.186
114.481
104.822
194.836
184.526
174.269
164.088
154.001
144.013
134.119
124.307
114.558
104.848
194.85
184.568
174.332
164.167
154.087
144.097
134.194
124.366
114.595
104.861
194.848
184.563
174.326
164.161
154.083
144.096
134.195
124.367
114.596
104.861
194.829
184.51
174.248
164.07
153.989
144.009
134.121
124.312
114.563
104.85
194.79
184.4
174.087
163.881
153.796
143.83
133.971
124.199
114.493
104.826
194.723
184.214
173.819
163.573
153.485
143.545
133.733
124.022
114.383
104.789
194.613
183.917
173.403
163.108
153.028
143.135
133.395
123.772
114.231
104.738
194.426
183.44
172.769
162.431
152.385
142.574
132.942
123.442
114.03
104.671
194.078
182.649
171.804
161.465
151.51
141.835
132.36
123.024
113.78
104.587
193.319
181.276
170.338
160.118
150.359
140.9
131.641
122.517
113.478
104.487
191.244
178.802
168.157
158.317
148.911
139.768
130.793
121.927
113.131
104.373
188.984
174.498
162.95
152.879
143.698
135.112
126.938
119.053
111.359
103.774
192.201
178.598
166.777
156.2
146.481
137.364
128.674
120.284
112.094
104.019
193.425
180.916
169.358
158.665
148.662
139.188
130.109
121.315
112.715
104.226
194.008
182.283
171.076
160.438
150.313
140.617
131.259
122.153
113.223
104.396
194.334
183.13
172.227
161.696
151.536
141.708
132.155
122.817
113.63
104.533
194.535
183.677
173.006
162.584
152.428
142.524
132.838
123.328
113.945
104.64
194.664
184.039
173.536
163.205
153.067
143.12
133.346
123.713
114.184
104.721
194.749
184.279
173.894
163.633
153.515
143.545
133.711
123.992
114.359
104.78
194.803
184.434
174.128
163.916
153.817
143.834
133.963
124.186
114.481
104.822
194.836
184.526
174.269
164.088
154.001
144.013
134.119
124.307
114.558
104.848
194.85
184.568
174.332
164.167
154.087
144.097
134.194
124.366
114.595
104.861
194.848
184.563
174.326
164.161
154.083
144.096
134.195
124.367
114.596
104.861
194.829
184.51
174.248
164.07
153.989
144.009
134.121
124.312
114.563
104.85
194.79
184.4
174.087
163.881
153.796
143.83
133.971
124.199
114.493
104.826
194.723
184.214
173.819
163.573
153.485
143.545
133.733
124.022
114.383
104.789
194.613
183.917
173.403
163.108
153.028
143.135
133.395
123.772
114.231
104.738
194.426
183.44
172.769
162.431
152.385
142.574
132.942
123.442
114.03
104.671
194.078
182.649
171.804
161.465
151.51
141.835
132.36
123.024
113.78
104.587
193.319
181.276
170.338
160.118
150.359
140.9
131.641
122.517
113.478
104.487
191.244
178.802
168.157
158.317
148.911
139.768
130.793
121.927
113.131
104.373
188.986
174.501
162.952
152.881
143.7
135.114
126.94
119.055
111.36
103.775
192.203
178.6
166.779
156.203
146.483
137.366
128.676
120.286
112.096
104.02
193.426
180.918
169.361
158.667
148.664
139.19
130.111
121.317
112.716
104.227
194.01
182.285
171.079
160.44
150.316
140.619
131.261
122.156
113.225
104.397
194.336
183.133
172.23
161.699
151.539
141.711
132.158
122.819
113.631
104.534
194.537
183.68
173.009
162.586
152.43
142.526
132.841
123.33
113.947
104.641
194.666
184.042
173.539
163.208
153.07
143.123
133.348
123.715
114.186
104.722
194.751
184.282
173.897
163.636
153.518
143.548
133.714
123.994
114.361
104.781
194.805
184.437
174.131
163.92
153.82
143.837
133.965
124.188
114.483
104.823
194.838
184.53
174.272
164.092
154.004
144.016
134.122
124.309
114.56
104.849
194.852
184.571
174.336
164.17
154.09
144.1
134.197
124.368
114.597
104.862
194.85
184.566
174.329
164.165
154.087
144.099
134.197
124.37
114.598
104.862
194.831
184.513
174.251
164.073
153.993
144.012
134.124
124.315
114.565
104.851
194.792
184.404
174.091
163.885
153.8
143.833
133.974
124.202
114.495
104.827
194.725
184.218
173.823
163.577
153.489
143.549
133.736
124.024
114.386
104.791
194.615
183.921
173.407
163.112
153.031
143.138
133.398
123.775
114.233
104.739
194.428
183.443
172.773
162.435
152.389
142.577
132.945
123.444
114.033
104.672
194.081
182.653
171.808
161.469
151.514
141.838
132.363
123.027
113.782
104.589
193.322
181.28
170.342
160.122
150.362
140.903
131.644
122.52
113.481
104.489
191.246
178.806
168.161
158.321
148.915
139.771
130.796
121.93
113.133
104.374
184.101
174.542
165.18
156.091
147.211
138.477
129.842
121.275
112.75
104.248
177.816
170.089
161.936
153.661
145.369
137.089
128.827
120.581
112.345
104.115
172.74
166.071
158.823
151.259
143.524
135.692
127.804
119.881
111.937
103.98
168.677
162.645
156.037
149.04
141.786
134.362
126.823
119.207
111.543
103.851
165.433
159.811
153.653
147.091
140.231
133.156
125.926
118.589
111.181
103.732
162.872
157.527
151.69
145.454
138.905
132.115
125.146
118.048
110.863
103.627
160.906
155.752
150.142
144.145
137.831
131.265
124.505
117.601
110.599
103.54
159.475
154.451
148.996
143.168
137.023
130.621
124.017
117.26
110.397
103.474
158.541
153.598
148.241
142.519
136.485
130.191
123.69
117.031
110.26
103.429
158.08
153.176
147.867
142.197
136.216
129.975
123.525
116.916
110.193
103.411
184.097
174.538
165.177
156.088
147.208
138.473
129.839
121.272
112.747
104.246
177.812
170.085
161.932
153.658
145.366
137.086
128.824
120.578
112.342
104.113
172.737
166.068
158.819
151.256
143.521
135.689
127.801
119.878
111.934
103.979
168.674
162.642
156.034
149.037
141.783
134.358
126.819
119.204
111.54
103.849
165.43
159.808
153.65
147.088
140.228
133.152
125.923
118.585
111.178
103.73
162.87
157.524
151.687
145.451
138.902
132.112
125.143
118.044
110.859
103.625
160.904
155.749
150.139
144.142
137.828
131.262
124.501
117.597
110.595
103.537
159.473
154.448
148.994
143.164
137.02
130.617
124.012
117.255
110.392
103.47
158.538
153.595
148.239
142.516
136.481
130.187
123.685
117.025
110.254
103.424
158.077
153.174
147.864
142.194
136.212
129.971
123.521
116.91
110.186
103.404
184.097
174.538
165.177
156.088
147.208
138.473
129.839
121.272
112.747
104.246
177.812
170.085
161.932
153.658
145.366
137.086
128.824
120.578
112.342
104.113
172.737
166.068
158.819
151.256
143.521
135.689
127.801
119.878
111.934
103.979
168.674
162.642
156.034
149.037
141.783
134.358
126.819
119.204
111.54
103.849
165.43
159.808
153.65
147.088
140.228
133.152
125.923
118.585
111.178
103.73
162.87
157.524
151.687
145.451
138.901
132.112
125.143
118.044
110.859
103.625
160.904
155.749
150.139
144.142
137.828
131.262
124.501
117.597
110.595
103.537
159.473
154.448
148.993
143.164
137.02
130.617
124.012
117.255
110.392
103.47
158.538
153.595
148.238
142.516
136.481
130.186
123.685
117.025
110.254
103.424
158.077
153.173
147.864
142.193
136.212
129.971
123.521
116.91
110.186
103.404
184.101
174.542
165.181
156.091
147.211
138.477
129.842
121.275
112.75
104.248
177.816
170.089
161.936
153.661
145.369
137.089
128.827
120.581
112.345
104.115
172.74
166.071
158.823
151.259
143.524
135.692
127.804
119.881
111.937
103.98
168.677
162.645
156.037
149.04
141.786
134.362
126.823
119.207
111.543
103.851
165.433
159.811
153.653
147.091
140.231
133.156
125.926
118.589
111.181
103.732
162.872
157.527
151.69
145.454
138.905
132.115
125.146
118.048
110.863
103.627
160.906
155.752
150.142
144.145
137.831
131.265
124.505
117.601
110.599
103.54
159.475
154.451
148.996
143.167
137.023
130.621
124.017
117.26
110.397
103.473
158.541
153.598
148.241
142.519
136.484
130.19
123.689
117.031
110.26
103.429
158.079
153.176
147.866
142.196
136.215
129.975
123.525
116.916
110.193
103.411
192.802
195.578
196.754
197.391
197.795
198.071
198.265
198.398
198.481
198.522
198.522
198.482
198.399
198.267
198.074
197.797
197.394
196.756
195.581
192.804
184.336
188.339
190.802
192.409
193.515
194.3
194.859
195.245
195.489
195.608
195.609
195.491
195.248
194.863
194.305
193.522
192.416
190.809
188.345
184.341
178.398
182.646
185.715
187.936
189.563
190.761
191.632
192.242
192.63
192.82
192.821
192.634
192.247
191.639
190.77
189.574
187.948
185.726
182.657
178.408
173.887
178.142
181.484
184.069
186.053
187.56
188.679
189.473
189.982
190.232
190.234
189.987
189.481
188.689
187.573
186.068
184.086
181.502
178.16
173.904
170.362
174.564
178.026
180.819
183.035
184.761
186.067
187.004
187.611
187.909
187.911
187.617
187.015
186.081
184.78
183.057
180.843
178.051
174.591
170.388
167.604
171.745
175.253
178.163
180.527
182.403
183.843
184.887
185.567
185.904
185.906
185.576
184.901
183.862
182.428
180.556
178.196
175.289
171.782
167.642
165.493
169.579
173.101
176.075
178.53
180.506
182.037
183.158
183.891
184.256
184.259
183.902
183.175
182.062
180.536
178.567
176.116
173.147
169.628
165.545
163.958
168
171.522
174.529
177.039
179.077
180.67
181.841
182.612
182.996
183
182.625
181.863
180.699
179.114
177.084
174.58
171.578
168.061
164.022
162.954
166.966
170.484
173.508
176.048
178.123
179.752
180.955
181.749
182.145
182.15
181.763
180.979
179.786
178.166
176.099
173.567
170.55
167.037
163.03
162.458
166.454
169.969
173
175.554
177.645
179.292
180.509
181.314
181.716
181.721
181.33
180.535
179.328
177.691
175.609
173.063
170.04
166.532
162.54
192.804
195.58
196.755
197.392
197.796
198.072
198.266
198.398
198.481
198.522
198.522
198.482
198.398
198.266
198.073
197.796
197.393
196.755
195.579
192.802
184.339
188.342
190.805
192.412
193.517
194.301
194.86
195.246
195.49
195.608
195.608
195.491
195.248
194.862
194.304
193.52
192.415
190.807
188.343
184.338
178.401
182.649
185.717
187.939
189.565
190.762
191.633
192.243
192.631
192.82
192.82
192.633
192.246
191.638
190.768
189.572
187.946
185.724
182.654
178.405
173.891
178.145
181.487
184.072
186.055
187.561
188.68
189.473
189.983
190.232
190.233
189.986
189.48
188.688
187.571
186.067
184.084
181.5
178.157
173.902
170.365
174.567
178.028
180.821
183.037
184.763
186.068
187.005
187.611
187.909
187.911
187.616
187.014
186.08
184.778
183.055
180.841
178.049
174.588
170.385
167.607
171.748
175.256
178.165
180.529
182.405
183.844
184.888
185.567
185.904
185.906
185.575
184.9
183.861
182.426
180.554
178.194
175.287
171.78
167.64
165.496
169.582
173.104
176.077
178.532
180.507
182.038
183.158
183.892
184.256
184.259
183.901
183.174
182.06
180.535
178.565
176.114
173.145
169.626
165.542
163.961
168.003
171.524
174.531
177.041
179.079
180.671
181.842
182.612
182.996
183
182.624
181.861
180.698
179.113
177.082
174.578
171.576
168.058
164.02
162.957
166.969
170.486
173.51
176.05
178.125
179.753
180.956
181.749
182.145
182.149
181.763
180.978
179.784
178.164
176.098
173.565
170.547
167.035
163.027
162.461
166.457
169.971
173.002
175.556
177.647
179.293
180.51
181.314
181.716
181.721
181.329
180.534
179.326
177.69
175.607
173.061
170.038
166.529
162.538
192.804
195.58
196.755
197.392
197.796
198.072
198.266
198.398
198.481
198.522
198.522
198.482
198.398
198.266
198.073
197.796
197.393
196.755
195.579
192.802
184.339
188.342
190.805
192.412
193.517
194.301
194.86
195.246
195.49
195.608
195.608
195.491
195.248
194.862
194.304
193.52
192.415
190.807
188.343
184.338
178.401
182.649
185.717
187.939
189.565
190.762
191.633
192.243
192.631
192.82
192.82
192.633
192.246
191.638
190.768
189.572
187.946
185.724
182.654
178.405
173.891
178.145
181.487
184.072
186.055
187.561
188.68
189.473
189.983
190.232
190.233
189.986
189.48
188.688
187.571
186.067
184.084
181.5
178.157
173.902
170.365
174.567
178.028
180.821
183.037
184.763
186.068
187.005
187.611
187.909
187.911
187.616
187.014
186.08
184.778
183.055
180.841
178.049
174.588
170.386
167.607
171.748
175.256
178.165
180.529
182.405
183.844
184.888
185.567
185.904
185.906
185.575
184.9
183.861
182.426
180.554
178.193
175.287
171.78
167.64
165.496
169.582
173.104
176.077
178.532
180.507
182.038
183.158
183.892
184.256
184.259
183.901
183.174
182.06
180.535
178.565
176.114
173.145
169.626
165.542
163.961
168.002
171.524
174.531
177.041
179.079
180.671
181.842
182.612
182.996
183
182.624
181.861
180.698
179.113
177.082
174.578
171.576
168.058
164.02
162.957
166.969
170.486
173.51
176.05
178.124
179.753
180.955
181.749
182.144
182.149
181.762
180.978
179.784
178.164
176.097
173.564
170.547
167.035
163.027
162.46
166.457
169.971
173.002
175.555
177.647
179.292
180.51
181.314
181.716
181.721
181.329
180.534
179.326
177.69
175.607
173.061
170.038
166.529
162.538
192.802
195.578
196.754
197.391
197.795
198.071
198.265
198.398
198.481
198.522
198.522
198.482
198.399
198.267
198.074
197.797
197.394
196.757
195.581
192.804
184.336
188.339
190.803
192.41
193.515
194.3
194.859
195.245
195.489
195.608
195.609
195.491
195.248
194.863
194.305
193.522
192.416
190.809
188.345
184.341
178.398
182.646
185.715
187.937
189.564
190.761
191.632
192.242
192.63
192.82
192.821
192.634
192.248
191.64
190.77
189.574
187.948
185.726
182.657
178.408
173.888
178.142
181.484
184.07
186.053
187.56
188.679
189.473
189.982
190.232
190.234
189.987
189.481
188.689
187.573
186.069
184.086
181.502
178.16
173.904
170.362
174.564
178.026
180.819
183.035
184.761
186.067
187.004
187.611
187.909
187.911
187.617
187.015
186.082
184.78
183.057
180.843
178.051
174.591
170.388
167.604
171.745
175.254
178.163
180.528
182.404
183.843
184.887
185.567
185.904
185.907
185.576
184.901
183.862
182.428
180.556
178.196
175.289
171.782
167.642
165.493
169.579
173.101
176.075
178.53
180.506
182.037
183.158
183.891
184.256
184.259
183.902
183.175
182.062
180.536
178.567
176.116
173.147
169.628
165.545
163.958
168
171.522
174.529
177.039
179.077
180.669
181.841
182.612
182.996
183
182.624
181.862
180.699
179.114
177.083
174.579
171.578
168.061
164.022
162.954
166.966
170.484
173.508
176.048
178.123
179.752
180.955
181.748
182.144
182.149
181.763
180.979
179.785
178.165
176.099
173.566
170.549
167.037
163.03
162.458
166.454
169.969
173
175.554
177.645
179.291
180.509
181.314
181.716
181.721
181.329
180.535
179.327
177.691
175.608
173.063
170.04
166.531
162.54
104.248
112.751
121.278
129.848
138.484
147.218
156.098
165.185
174.544
184.1
104.114
112.346
120.584
128.832
137.095
145.375
153.666
161.938
170.089
177.813
103.98
111.936
119.882
127.806
135.694
143.525
151.259
158.82
166.066
172.732
103.85
111.541
119.205
126.82
134.358
141.781
149.033
156.027
162.632
168.662
103.729
111.176
118.582
125.918
133.145
140.217
147.074
153.633
159.787
165.407
103.623
110.855
118.036
125.13
132.094
138.879
145.424
151.656
157.49
162.834
103.535
110.587
117.582
124.479
131.232
137.792
144.1
150.093
155.701
160.854
103.466
110.381
117.233
123.979
130.575
136.969
143.107
148.932
154.385
159.409
103.42
110.24
116.994
123.64
130.131
136.417
142.446
148.164
153.519
158.463
103.392
110.169
116.873
123.469