/*--------------------------------*- C++ -*----------------------------------*\
| =========                 |                                                 |
| \\      /  F ield         | OpenFOAM: The Open Source CFD Toolbox           |
|  \\    /   O peration     | Version:  2.4.0                                 |
|   \\  /    A nd           | Web:      www.OpenFOAM.org                      |
|    \\/     M anipulation  |                                                 |
\*---------------------------------------------------------------------------*/
FoamFile
{
    version     2.0;
    format      ascii;
    class       volScalarField;
    location    "0.95";
    object      T;
}
// * * * * * * * * * * * * * * * * * * * * * * * * * * * * * * * * * * * * * //

dimensions      [0 0 0 1 0 0 0];

internalField   nonuniform List<scalar> 
1600
(
101.413
104.239
107.062
109.881
112.694
115.498
118.293
121.075
123.845
126.599
129.337
132.057
134.756
137.435
140.091
142.724
145.332
147.914
150.471
153.001
155.504
157.979
160.428
162.851
165.247
167.618
169.964
172.288
174.589
176.869
179.131
181.375
183.603
185.818
188.02
190.212
192.396
194.573
196.746
198.916
101.414
104.242
107.067
109.887
112.702
115.508
118.304
121.089
123.86
126.616
129.355
132.076
134.777
137.457
140.114
142.748
145.357
147.94
150.497
153.027
155.53
158.006
160.454
162.876
165.272
167.642
169.987
172.309
174.609
176.888
179.148
181.39
183.617
185.83
188.03
190.221
192.403
194.578
196.749
198.917
101.416
104.247
107.076
109.9
112.718
115.527
118.327
121.115
123.89
126.649
129.391
132.115
134.818
137.501
140.16
142.795
145.406
147.99
150.548
153.079
155.582
158.058
160.506
162.927
165.321
167.69
170.033
172.353
174.65
176.926
179.183
181.422
183.645
185.855
188.052
190.238
192.416
194.588
196.754
198.919
101.419
104.255
107.089
109.918
112.742
115.556
118.361
121.154
123.933
126.697
129.444
132.171
134.879
137.565
140.227
142.865
145.478
148.065
150.624
153.156
155.659
158.135
160.582
163.002
165.395
167.761
170.102
172.418
174.712
176.984
179.236
181.47
183.688
185.892
188.083
190.264
192.437
194.602
196.763
198.921
101.422
104.266
107.107
109.943
112.773
115.595
118.406
121.206
123.991
126.761
129.513
132.246
134.959
137.649
140.315
142.957
145.573
148.162
150.723
153.256
155.761
158.236
160.683
163.102
165.492
167.855
170.192
172.505
174.793
177.06
179.306
181.534
183.745
185.942
188.126
190.299
192.464
194.622
196.775
198.925
101.427
104.279
107.128
109.974
112.812
115.642
118.462
121.269
124.062
126.84
129.599
132.339
135.057
137.753
140.424
143.071
145.69
148.282
150.846
153.381
155.886
158.362
160.808
163.224
165.612
167.972
170.305
172.612
174.895
177.155
179.394
181.614
183.817
186.004
188.179
190.343
192.498
194.646
196.79
198.93
101.432
104.294
107.155
110.01
112.859
115.699
118.528
121.345
124.147
126.933
129.701
132.448
135.174
137.876
140.554
143.205
145.829
148.425
150.992
153.528
156.035
158.51
160.956
163.37
165.756
168.112
170.44
172.741
175.017
177.269
179.499
181.71
183.902
186.08
188.243
190.396
192.539
194.676
196.807
198.936
101.438
104.313
107.185
110.052
112.913
115.765
118.605
121.433
124.246
127.042
129.818
132.575
135.309
138.018
140.703
143.36
145.989
148.589
151.159
153.698
156.206
158.682
161.126
163.539
165.921
168.273
170.595
172.89
175.158
177.401
179.622
181.821
184.002
186.167
188.318
190.458
192.588
194.711
196.828
198.943
101.445
104.333
107.219
110.101
112.975
115.839
118.693
121.533
124.357
127.165
129.952
132.718
135.461
138.18
140.872
143.536
146.171
148.775
151.349
153.89
156.399
158.876
161.319
163.73
166.109
168.456
170.772
173.059
175.319
177.552
179.761
181.949
184.117
186.268
188.404
190.529
192.643
194.75
196.852
198.951
101.453
104.357
107.258
110.155
113.044
115.923
118.791
121.645
124.483
127.302
130.102
132.879
135.632
138.36
141.06
143.731
146.372
148.982
151.56
154.104
156.615
159.091
161.534
163.942
166.317
168.659
170.969
173.249
175.499
177.721
179.918
182.093
184.246
186.381
188.501
190.609
192.706
194.795
196.879
198.96
101.461
104.383
107.302
110.215
113.121
116.017
118.9
121.769
124.622
127.455
130.267
133.056
135.821
138.558
141.267
143.947
146.594
149.21
151.791
154.338
156.851
159.328
161.769
164.175
166.546
168.883
171.186
173.457
175.697
177.908
180.092
182.252
184.389
186.508
188.61
190.698
192.776
194.845
196.909
198.97
101.471
104.412
107.35
110.282
113.206
116.12
119.021
121.906
124.774
127.623
130.449
133.251
136.027
138.776
141.494
144.182
146.837
149.457
152.043
154.594
157.107
159.585
162.025
164.428
166.795
169.126
171.422
173.684
175.914
178.112
180.283
182.427
184.547
186.647
188.729
190.797
192.853
194.901
196.943
198.981
101.482
104.443
107.402
110.355
113.3
116.233
119.153
122.057
124.942
127.806
130.648
133.464
136.253
139.012
141.741
144.437
147.099
149.726
152.316
154.87
157.385
159.862
162.301
164.701
167.063
169.388
171.677
173.929
176.148
178.334
180.489
182.617
184.719
186.799
188.86
190.905
192.938
194.962
196.98
198.993
101.493
104.478
107.46
110.436
113.402
116.357
119.297
122.221
125.124
128.006
130.864
133.695
136.497
139.269
142.008
144.714
147.383
150.016
152.611
155.167
157.683
160.16
162.597
164.994
167.352
169.67
171.95
174.193
176.4
178.572
180.713
182.823
184.906
186.965
189.003
191.023
193.031
195.029
197.02
199.007
101.506
104.516
107.523
110.523
113.514
116.492
119.455
122.399
125.323
128.224
131.099
133.946
136.763
139.547
142.297
145.012
147.689
150.328
152.927
155.486
158.004
160.48
162.915
165.308
167.66
169.972
172.243
174.475
176.67
178.828
180.952
183.044
185.107
187.143
189.157
191.152
193.132
195.101
197.064
199.021
101.52
104.558
107.592
110.619
113.636
116.639
119.626
122.594
125.54
128.46
131.354
134.218
137.05
139.848
142.61
145.334
148.02
150.665
153.269
155.83
158.349
160.824
163.257
165.646
167.992
170.295
172.557
174.778
176.959
179.102
181.209
183.281
185.323
187.336
189.324
191.291
193.241
195.18
197.111
199.037
101.535
104.603
107.668
110.724
113.77
116.8
119.814
122.806
125.775
128.717
131.631
134.513
137.361
140.173
142.948
145.683
148.376
151.028
153.636
156.201
158.721
161.195
163.625
166.009
168.348
170.643
172.894
175.103
177.269
179.396
181.484
183.536
185.555
187.543
189.504
191.441
193.36
195.266
197.163
199.054
101.552
104.653
107.751
110.839
113.915
116.976
120.018
123.037
126.031
128.997
131.932
134.833
137.699
140.526
143.314
146.06
148.763
151.421
154.034
156.602
159.122
161.596
164.022
166.401
168.733
171.018
173.258
175.453
177.603
179.712
181.78
183.81
185.804
187.765
189.697
191.603
193.488
195.358
197.219
199.073
101.57
104.708
107.841
110.965
114.075
117.168
120.241
123.29
126.311
129.302
132.26
135.182
138.066
140.91
143.711
146.469
149.181
151.847
154.466
157.036
159.558
162.03
164.453
166.826
169.15
171.425
173.652
175.831
177.965
180.054
182.1
184.105
186.072
188.004
189.905
191.778
193.627
195.459
197.28
199.093
101.59
104.768
107.941
111.103
114.25
117.379
120.485
123.566
126.617
129.635
132.618
135.562
138.466
141.327
144.144
146.914
149.637
152.311
154.935
157.508
160.031
162.502
164.92
167.287
169.602
171.866
174.079
176.243
178.357
180.424
182.446
184.425
186.363
188.263
190.13
191.967
193.778
195.568
197.346
199.115
101.612
104.834
108.05
111.254
114.442
117.61
120.754
123.869
126.952
130
133.009
135.978
138.903
141.783
144.616
147.4
150.133
152.816
155.446
158.023
160.546
163.015
165.43
167.79
170.095
172.347
174.545
176.69
178.784
180.828
182.823
184.773
186.679
188.545
190.374
192.172
193.941
195.687
197.418
199.139
101.637
104.907
108.171
111.421
114.654
117.865
121.048
124.201
127.319
130.399
133.438
136.432
139.381
142.281
145.131
147.929
150.675
153.366
156.003
158.584
161.108
163.575
165.985
168.338
170.633
172.871
175.053
177.179
179.25
181.268
183.235
185.152
187.023
188.851
190.64
192.395
194.118
195.816
197.497
199.165
101.664
104.988
108.304
111.606
114.888
118.145
121.373
124.567
127.723
130.838
133.908
136.931
139.904
142.826
145.695
148.509
151.267
153.968
156.611
159.196
161.721
164.187
166.592
168.936
171.22
173.444
175.608
177.713
179.76
181.75
183.686
185.568
187.401
189.187
190.931
192.638
194.311
195.957
197.584
199.193
101.694
105.078
108.452
111.81
115.147
118.455
121.732
124.971
128.168
131.321
134.425
137.478
140.479
143.424
146.312
149.143
151.914
154.626
157.276
159.865
162.391
164.854
167.254
169.59
171.862
174.071
176.216
178.298
180.319
182.279
184.18
186.024
187.815
189.556
191.251
192.905
194.524
196.112
197.678
199.225
101.727
105.177
108.616
112.037
115.433
118.799
122.128
125.417
128.659
131.853
134.994
138.08
141.109
144.079
146.989
149.837
152.622
155.345
158.003
160.596
163.123
165.584
167.978
170.305
172.564
174.756
176.88
178.938
180.931
182.858
184.722
186.526
188.271
189.962
191.603
193.2
194.757
196.282
197.783
199.259
101.764
105.288
108.799
112.289
115.752
119.18
122.568
125.91
129.202
132.439
135.62
138.741
141.801
144.798
147.73
150.597
153.397
156.131
158.797
161.394
163.922
166.38
168.768
171.085
173.331
175.505
177.608
179.64
181.602
183.494
185.319
187.078
188.774
190.41
191.992
193.525
195.016
196.47
197.898
199.298
101.805
105.411
109.002
112.57
116.106
119.604
123.055
126.456
129.801
133.087
136.31
139.469
142.561
145.586
148.542
151.428
154.244
156.99
159.664
162.265
164.794
167.25
169.631
171.938
174.169
176.325
178.405
180.409
182.339
184.194
185.976
187.687
189.329
190.906
192.423
193.886
195.302
196.679
198.027
199.34
101.852
105.55
109.231
112.885
116.502
120.076
123.597
127.062
130.464
133.802
137.07
140.269
143.396
146.45
149.431
152.338
155.17
157.927
160.61
163.216
165.745
168.198
170.572
172.868
175.084
177.221
179.277
181.252
183.147
184.963
186.699
188.358
189.942
191.455
192.902
194.288
195.621
196.911
198.169
199.388
101.904
105.705
109.487
113.237
116.945
120.602
124.201
127.734
131.199
134.591
137.908
141.149
144.312
147.397
150.403
153.331
156.18
158.95
161.64
164.251
166.781
169.23
171.598
173.882
176.083
178.199
180.23
182.175
184.034
185.808
187.496
189.1
190.622
192.065
193.434
194.736
195.978
197.172
198.328
199.441
101.963
105.881
109.776
113.634
117.442
121.191
124.873
128.482
132.013
135.463
138.831
142.116
145.317
148.433
151.466
154.415
157.281
160.064
162.762
165.378
167.908
170.354
172.713
174.986
177.171
179.266
181.272
183.185
185.007
186.737
188.374
189.919
191.375
192.743
194.028
195.237
196.379
197.464
198.507
199.501
102.03
106.081
110.104
114.082
118.002
121.852
125.624
129.313
132.914
136.426
139.847
143.178
146.417
149.566
152.626
155.597
158.479
161.274
163.981
166.601
169.132
171.574
173.926
176.187
178.355
180.429
182.408
184.29
186.074
187.758
189.343
190.826
192.211
193.498
194.692
195.8
196.83
197.795
198.709
199.569
102.107
106.31
110.478
114.592
118.634
122.595
126.465
130.239
133.914
137.49
140.965
144.342
147.62
150.802
153.889
156.881
159.781
162.588
165.303
167.926
170.458
172.896
175.24
177.489
179.642
181.695
183.648
185.498
187.243
188.881
190.411
191.831
193.141
194.343
195.439
196.435
197.34
198.171
198.939
199.646
102.197
106.574
110.908
115.173
119.353
123.433
127.407
131.271
135.023
138.663
142.194
145.617
148.934
152.148
155.261
158.275
161.191
164.01
166.733
169.36
171.892
174.326
176.663
178.901
181.037
183.07
184.997
186.815
188.522
190.114
191.589
192.944
194.177
195.289
196.28
197.155
197.923
198.601
199.202
199.736
102.301
106.882
111.407
115.844
120.173
124.382
128.465
132.421
136.251
139.957
143.543
147.011
150.367
153.612
156.75
159.784
162.715
165.545
168.276
170.907
173.439
175.87
178.2
180.426
182.547
184.561
186.463
188.251
189.921
191.468
192.889
194.179
195.334
196.352
197.232
197.977
198.594
199.099
199.509
199.843
102.426
107.249
111.994
116.623
121.115
125.46
129.656
133.706
137.613
141.382
145.021
148.533
151.924
155.198
158.36
161.413
164.359
167.2
169.937
172.572
175.103
177.531
179.855
182.071
184.179
186.174
188.054
189.813
191.448
192.953
194.322
195.549
196.627
197.551
198.317
198.924
199.374
199.685
199.872
199.971
102.58
107.695
112.697
117.539
122.205
126.69
130.999
135.139
139.119
142.949
146.636
150.188
153.612
156.914
160.097
163.167
166.126
168.976
171.72
174.358
176.89
179.316
181.633
183.841
185.937
187.916
189.776
191.511
193.114
194.581
195.903
197.071
198.076
198.908
199.559
200.022
200.293
200.387
200.312
200.128
102.778
108.257
113.557
118.631
123.475
128.098
132.513
136.738
140.785
144.668
148.399
151.986
155.439
158.763
161.966
165.05
168.021
170.88
173.63
176.271
178.803
181.227
183.541
185.742
187.827
189.794
191.637
193.351
194.929
196.363
197.643
198.76
199.701
200.45
200.991
201.311
201.393
201.245
200.856
200.322
103.051
109.001
114.636
119.947
124.962
129.711
134.221
138.518
142.621
146.549
150.316
153.932
157.409
160.753
163.971
167.068
170.048
172.915
175.67
178.314
180.848
183.271
185.582
187.778
189.857
191.814
193.645
195.343
196.901
198.309
199.559
200.635
201.523
202.203
202.652
202.843
202.742
202.332
201.561
200.584
103.511
110.04
116.011
121.543
126.707
131.559
136.143
140.495
144.642
148.604
152.397
156.036
159.53
162.889
166.119
169.226
172.215
175.087
177.847
180.494
183.03
185.454
187.764
189.957
192.032
193.984
195.807
197.495
199.039
200.432
201.659
202.708
203.56
204.193
204.575
204.671
204.421
203.769
202.574
201.023
104.359
111.625
117.87
123.551
128.806
133.717
138.341
142.722
146.891
150.87
154.678
158.329
161.833
165.2
168.436
171.549
174.542
177.419
180.181
182.83
185.367
187.791
190.1
192.293
194.366
196.314
198.133
199.816
201.354
202.737
203.953
204.987
205.818
206.424
206.769
206.813
206.479
205.691
204.204
202.073
)
;

boundaryField
{
    carasuperior
    {
        type            fixedGradient;
        gradient        uniform 100;
    }
    lateralizquierda
    {
        type            fixedValue;
        value           uniform 100;
    }
    lateralderecha
    {
        type            fixedValue;
        value           uniform 200;
    }
    carainferior
    {
        type            zeroGradient;
    }
    frontAndBack
    {
        type            empty;
    }
}


// ************************************************************************* //
