/*--------------------------------*- C++ -*----------------------------------*\
| =========                 |                                                 |
| \\      /  F ield         | OpenFOAM: The Open Source CFD Toolbox           |
|  \\    /   O peration     | Version:  2.4.0                                 |
|   \\  /    A nd           | Web:      www.OpenFOAM.org                      |
|    \\/     M anipulation  |                                                 |
\*---------------------------------------------------------------------------*/
FoamFile
{
    version     2.0;
    format      ascii;
    class       volScalarField;
    location    "0.94";
    object      T;
}
// * * * * * * * * * * * * * * * * * * * * * * * * * * * * * * * * * * * * * //

dimensions      [0 0 0 1 0 0 0];

internalField   nonuniform List<scalar> 
1600
(
101.413
104.239
107.062
109.881
112.693
115.497
118.292
121.075
123.844
126.598
129.336
132.055
134.755
137.433
140.09
142.722
145.33
147.913
150.469
152.999
155.502
157.978
160.427
162.849
165.246
167.616
169.963
172.286
174.587
176.868
179.13
181.374
183.602
185.817
188.019
190.212
192.395
194.573
196.745
198.916
101.414
104.242
107.067
109.887
112.701
115.507
118.303
121.088
123.859
126.615
129.354
132.075
134.776
137.456
140.113
142.746
145.355
147.938
150.495
153.025
155.528
158.004
160.453
162.875
165.27
167.64
169.986
172.308
174.608
176.887
179.147
181.389
183.616
185.829
188.03
190.22
192.402
194.578
196.748
198.917
101.416
104.247
107.075
109.899
112.717
115.527
118.326
121.114
123.889
126.648
129.39
132.113
134.817
137.499
140.158
142.794
145.404
147.989
150.547
153.077
155.581
158.056
160.504
162.925
165.32
167.688
170.032
172.352
174.649
176.925
179.182
181.421
183.645
185.854
188.051
190.238
192.416
194.587
196.754
198.918
101.419
104.255
107.089
109.918
112.741
115.556
118.36
121.153
123.932
126.696
129.442
132.17
134.878
137.563
140.226
142.864
145.476
148.063
150.622
153.154
155.658
158.133
160.581
163.001
165.393
167.76
170.1
172.417
174.71
176.982
179.235
181.469
183.687
185.891
188.083
190.264
192.436
194.602
196.763
198.921
101.422
104.265
107.106
109.943
112.772
115.594
118.405
121.205
123.99
126.76
129.512
132.245
134.957
137.647
140.314
142.956
145.572
148.16
150.722
153.255
155.759
158.235
160.682
163.1
165.49
167.854
170.191
172.503
174.792
177.059
179.305
181.533
183.744
185.941
188.125
190.299
192.463
194.622
196.775
198.925
101.427
104.279
107.128
109.973
112.812
115.642
118.461
121.268
124.061
126.838
129.598
132.337
135.056
137.751
140.423
143.069
145.689
148.281
150.844
153.379
155.884
158.36
160.806
163.223
165.611
167.971
170.304
172.611
174.894
177.154
179.393
181.613
183.816
186.004
188.178
190.343
192.498
194.646
196.789
198.93
101.432
104.294
107.154
110.01
112.858
115.698
118.528
121.344
124.146
126.932
129.699
132.447
135.172
137.875
140.552
143.204
145.828
148.423
150.99
153.527
156.033
158.509
160.954
163.369
165.754
168.11
170.438
172.739
175.015
177.268
179.498
181.709
183.901
186.079
188.243
190.395
192.539
194.676
196.807
198.936
101.438
104.312
107.185
110.052
112.912
115.764
118.605
121.432
124.245
127.04
129.817
132.573
135.307
138.017
140.701
143.359
145.988
148.588
151.158
153.697
156.204
158.68
161.125
163.538
165.92
168.271
170.594
172.889
175.157
177.4
179.621
181.82
184.002
186.167
188.318
190.457
192.587
194.71
196.828
198.943
101.445
104.333
107.219
110.1
112.974
115.839
118.692
121.532
124.356
127.163
129.951
132.717
135.46
138.178
140.87
143.534
146.169
148.774
151.347
153.889
156.398
158.874
161.318
163.728
166.107
168.454
170.771
173.058
175.317
177.551
179.76
181.948
184.116
186.267
188.404
190.528
192.643
194.75
196.852
198.951
101.453
104.357
107.258
110.154
113.043
115.923
118.79
121.644
124.482
127.301
130.1
132.878
135.631
138.358
141.058
143.73
146.371
148.98
151.558
154.102
156.613
159.09
161.532
163.941
166.316
168.658
170.968
173.247
175.497
177.72
179.917
182.092
184.245
186.381
188.501
190.608
192.705
194.795
196.879
198.96
101.461
104.383
107.301
110.215
113.12
116.016
118.9
121.768
124.621
127.454
130.266
133.055
135.819
138.557
141.266
143.945
146.593
149.208
151.79
154.337
156.849
159.326
161.767
164.174
166.545
168.881
171.185
173.456
175.696
177.907
180.091
182.251
184.388
186.507
188.609
190.697
192.775
194.845
196.909
198.97
101.471
104.411
107.349
110.281
113.206
116.119
119.02
121.905
124.773
127.622
130.448
133.25
136.026
138.774
141.493
144.18
146.835
149.456
152.042
154.592
157.106
159.583
162.023
164.427
166.794
169.125
171.421
173.683
175.912
178.111
180.282
182.426
184.546
186.646
188.728
190.796
192.853
194.901
196.943
198.981
101.482
104.443
107.402
110.355
113.299
116.232
119.152
122.056
124.941
127.805
130.646
133.463
136.251
139.011
141.74
144.436
147.098
149.724
152.315
154.868
157.383
159.86
162.299
164.699
167.062
169.387
171.675
173.928
176.147
178.333
180.488
182.616
184.718
186.798
188.859
190.905
192.938
194.962
196.98
198.993
101.493
104.478
107.46
110.435
113.401
116.356
119.296
122.22
125.123
128.005
130.863
133.694
136.496
139.268
142.007
144.712
147.382
150.014
152.609
155.165
157.682
160.158
162.595
164.993
167.35
169.668
171.949
174.192
176.398
178.571
180.711
182.822
184.905
186.964
189.002
191.023
193.03
195.028
197.02
199.007
101.506
104.516
107.523
110.523
113.513
116.491
119.454
122.398
125.322
128.223
131.098
133.945
136.761
139.546
142.296
145.011
147.688
150.327
152.926
155.485
158.002
160.479
162.913
165.307
167.659
169.97
172.242
174.474
176.668
178.827
180.951
183.043
185.106
187.143
189.156
191.151
193.131
195.101
197.064
199.021
101.52
104.558
107.592
110.619
113.636
116.639
119.626
122.593
125.539
128.459
131.353
134.217
137.048
139.846
142.608
145.333
148.018
150.663
153.267
155.828
158.347
160.823
163.255
165.644
167.99
170.294
172.555
174.776
176.958
179.101
181.208
183.28
185.322
187.335
189.323
191.29
193.241
195.18
197.111
199.037
101.535
104.603
107.668
110.724
113.769
116.8
119.813
122.805
125.774
128.716
131.63
134.512
137.36
140.172
142.946
145.681
148.375
151.026
153.635
156.199
158.719
161.194
163.623
166.007
168.347
170.642
172.893
175.101
177.268
179.394
181.483
183.535
185.554
187.542
189.503
191.441
193.36
195.265
197.163
199.054
101.552
104.653
107.75
110.839
113.915
116.975
120.017
123.036
126.03
128.996
131.931
134.832
137.697
140.525
143.312
146.058
148.761
151.419
154.033
156.6
159.121
161.594
164.02
166.399
168.731
171.017
173.257
175.451
177.602
179.711
181.779
183.809
185.803
187.764
189.696
191.603
193.488
195.358
197.219
199.073
101.57
104.708
107.841
110.964
114.074
117.168
120.24
123.289
126.31
129.301
132.259
135.181
138.065
140.908
143.71
146.467
149.18
151.846
154.464
157.035
159.556
162.028
164.451
166.824
169.148
171.423
173.65
175.83
177.964
180.052
182.098
184.104
186.071
188.004
189.905
191.778
193.627
195.458
197.28
199.093
101.59
104.768
107.94
111.102
114.249
117.378
120.485
123.565
126.616
129.634
132.617
135.561
138.465
141.326
144.142
146.913
149.635
152.309
154.933
157.507
160.029
162.5
164.919
167.286
169.601
171.865
174.078
176.241
178.356
180.423
182.445
184.424
186.362
188.263
190.13
191.966
193.777
195.568
197.346
199.115
101.612
104.834
108.05
111.254
114.442
117.609
120.753
123.868
126.951
129.998
133.008
135.976
138.902
141.782
144.614
147.398
150.132
152.814
155.444
158.021
160.544
163.013
165.428
167.788
170.094
172.345
174.544
176.689
178.783
180.827
182.822
184.772
186.678
188.544
190.374
192.171
193.94
195.686
197.418
199.139
101.637
104.907
108.17
111.421
114.654
117.864
121.048
124.2
127.318
130.398
133.437
136.431
139.38
142.28
145.13
147.928
150.673
153.365
156.001
158.582
161.106
163.574
165.984
168.336
170.632
172.87
175.052
177.178
179.249
181.267
183.234
185.151
187.022
188.85
190.64
192.394
194.117
195.815
197.497
199.165
101.664
104.988
108.304
111.605
114.887
118.145
121.372
124.566
127.722
130.837
133.907
136.93
139.903
142.825
145.693
148.507
151.265
153.966
156.61
159.194
161.72
164.185
166.59
168.935
171.219
173.443
175.607
177.712
179.759
181.749
183.685
185.567
187.4
189.186
190.931
192.637
194.311
195.957
197.583
199.193
101.694
105.077
108.451
111.81
115.146
118.455
121.731
124.97
128.167
131.32
134.424
137.477
140.477
143.422
146.311
149.141
151.913
154.624
157.274
159.863
162.389
164.853
167.252
169.588
171.861
174.069
176.214
178.297
180.317
182.277
184.179
186.023
187.814
189.555
191.25
192.905
194.523
196.111
197.678
199.225
101.727
105.177
108.616
112.036
115.433
118.798
122.128
125.416
128.658
131.852
134.993
138.079
141.107
144.077
146.987
149.835
152.621
155.343
158.001
160.594
163.121
165.582
167.976
170.303
172.562
174.754
176.879
178.937
180.929
182.857
184.721
186.525
188.27
189.961
191.602
193.199
194.757
196.282
197.783
199.259
101.764
105.287
108.798
112.289
115.751
119.179
122.567
125.909
129.2
132.438
135.619
138.74
141.8
144.796
147.728
150.595
153.396
156.129
158.795
161.392
163.92
166.379
168.767
171.084
173.329
175.504
177.607
179.639
181.601
183.493
185.318
187.077
188.773
190.409
191.991
193.525
195.015
196.47
197.898
199.298
101.805
105.411
109.002
112.57
116.106
119.603
123.055
126.455
129.8
133.086
136.309
139.467
142.56
145.584
148.54
151.427
154.243
156.988
159.662
162.264
164.793
167.248
169.629
171.936
174.167
176.323
178.403
180.408
182.337
184.193
185.975
187.686
189.328
190.905
192.422
193.886
195.302
196.679
198.026
199.34
101.852
105.549
109.23
112.884
116.502
120.075
123.596
127.061
130.463
133.8
137.069
140.268
143.395
146.449
149.429
152.336
155.168
157.926
160.608
163.214
165.744
168.196
170.571
172.866
175.083
177.219
179.275
181.251
183.146
184.961
186.698
188.357
189.941
191.454
192.901
194.287
195.621
196.911
198.169
199.388
101.904
105.705
109.487
113.237
116.945
120.602
124.2
127.733
131.198
134.59
137.907
141.148
144.311
147.396
150.402
153.33
156.179
158.948
161.639
164.249
166.78
169.229
171.596
173.88
176.081
178.197
180.228
182.174
184.033
185.806
187.495
189.099
190.621
192.064
193.433
194.735
195.978
197.171
198.328
199.441
101.963
105.881
109.776
113.634
117.442
121.191
124.872
128.481
132.012
135.462
138.83
142.115
145.315
148.432
151.465
154.414
157.28
160.062
162.761
165.376
167.907
170.352
172.712
174.985
177.169
179.265
181.27
183.184
185.006
186.736
188.373
189.918
191.374
192.742
194.027
195.236
196.378
197.464
198.507
199.501
102.03
106.081
110.104
114.082
118.001
121.851
125.623
129.312
132.913
136.425
139.846
143.176
146.415
149.565
152.624
155.595
158.478
161.273
163.98
166.599
169.13
171.572
173.924
176.185
178.353
180.428
182.407
184.289
186.073
187.757
189.341
190.825
192.21
193.498
194.692
195.799
196.829
197.795
198.709
199.569
102.107
106.31
110.478
114.591
118.634
122.594
126.464
130.238
133.913
137.489
140.964
144.341
147.619
150.801
153.887
156.88
159.779
162.586
165.301
167.925
170.456
172.894
175.239
177.488
179.64
181.694
183.646
185.496
187.241
188.88
190.41
191.83
193.14
194.342
195.438
196.434
197.34
198.171
198.939
199.646
102.196
106.574
110.907
115.173
119.352
123.432
127.406
131.27
135.022
138.662
142.193
145.616
148.933
152.147
155.26
158.273
161.189
164.008
166.731
169.359
171.89
174.325
176.662
178.899
181.035
183.068
184.996
186.814
188.521
190.113
191.588
192.943
194.176
195.288
196.279
197.154
197.923
198.601
199.202
199.736
102.301
106.882
111.406
115.843
120.172
124.381
128.464
132.42
136.25
139.956
143.542
147.01
150.365
153.61
156.748
159.782
162.713
165.544
168.274
170.905
173.437
175.868
178.198
180.425
182.546
184.559
186.462
188.25
189.919
191.467
192.888
194.178
195.333
196.351
197.232
197.977
198.594
199.099
199.508
199.843
102.426
107.248
111.994
116.622
121.114
125.459
129.655
133.705
137.612
141.381
145.019
148.531
151.922
155.197
158.359
161.411
164.357
167.198
169.935
172.57
175.102
177.53
179.853
182.07
184.177
186.173
188.052
189.812
191.447
192.952
194.321
195.548
196.626
197.55
198.316
198.923
199.374
199.685
199.872
199.971
102.58
107.695
112.697
117.539
122.204
126.689
130.998
135.138
139.118
142.948
146.635
150.187
153.611
156.912
160.096
163.165
166.124
168.975
171.719
174.356
176.888
179.314
181.632
183.84
185.935
187.915
189.774
191.509
193.113
194.58
195.901
197.07
198.075
198.907
199.558
200.021
200.292
200.387
200.312
200.128
102.778
108.257
113.557
118.631
123.474
128.097
132.513
136.737
140.784
144.667
148.397
151.985
155.437
158.762
161.964
165.049
168.019
170.878
173.628
176.269
178.802
181.225
183.539
185.74
187.826
189.792
191.636
193.349
194.927
196.361
197.642
198.759
199.7
200.449
200.991
201.31
201.393
201.245
200.856
200.322
103.051
109
114.635
119.947
124.962
129.71
134.22
138.517
142.62
146.548
150.314
153.931
157.407
160.751
163.969
167.066
170.047
172.913
175.668
178.312
180.846
183.269
185.58
187.777
189.855
191.813
193.643
195.341
196.899
198.308
199.557
200.634
201.522
202.203
202.652
202.843
202.741
202.332
201.561
200.584
103.511
110.04
116.01
121.542
126.706
131.558
136.142
140.495
144.641
148.603
152.396
156.035
159.529
162.888
166.118
169.225
172.213
175.086
177.845
180.493
183.029
185.452
187.762
189.956
192.031
193.982
195.805
197.493
199.038
200.43
201.658
202.707
203.559
204.192
204.574
204.671
204.42
203.769
202.574
201.023
104.358
111.625
117.87
123.551
128.806
133.716
138.34
142.721
146.89
150.869
154.677
158.327
161.831
165.198
168.435
171.548
174.541
177.417
180.179
182.829
185.365
187.789
190.099
192.291
194.364
196.313
198.131
199.814
201.352
202.736
203.952
204.986
205.817
206.423
206.768
206.812
206.479
205.691
204.204
202.073
)
;

boundaryField
{
    carasuperior
    {
        type            fixedGradient;
        gradient        uniform 100;
    }
    lateralizquierda
    {
        type            fixedValue;
        value           uniform 100;
    }
    lateralderecha
    {
        type            fixedValue;
        value           uniform 200;
    }
    carainferior
    {
        type            zeroGradient;
    }
    frontAndBack
    {
        type            empty;
    }
}


// ************************************************************************* //
