/*--------------------------------*- C++ -*----------------------------------*\
| =========                 |                                                 |
| \\      /  F ield         | OpenFOAM: The Open Source CFD Toolbox           |
|  \\    /   O peration     | Version:  2.4.0                                 |
|   \\  /    A nd           | Web:      www.OpenFOAM.org                      |
|    \\/     M anipulation  |                                                 |
\*---------------------------------------------------------------------------*/
FoamFile
{
    version     2.0;
    format      ascii;
    class       volScalarField;
    location    "4";
    object      p;
}
// * * * * * * * * * * * * * * * * * * * * * * * * * * * * * * * * * * * * * //

dimensions      [0 2 -2 0 0 0 0];

internalField   nonuniform List<scalar> 
4800
(
2.81818e-06
-0.00159706
-0.00328015
-0.00452788
-0.00501555
-0.00459173
-0.00320917
-0.000871545
0.00237641
0.00643894
0.00160039
-3.20778e-05
-0.00122802
-0.00194071
-0.00204645
-0.00143509
-5.89529e-05
0.00209853
0.0050278
0.00868236
0.00332314
0.00111417
-8.97322e-05
-0.000646751
-0.00062622
3.03752e-05
0.00135463
0.00337383
0.00611008
0.00956035
0.0044903
0.00162429
0.000245735
-0.000326695
-0.000321641
0.000275282
0.00148422
0.00335102
0.00594229
0.00931514
0.00454864
0.00116119
-0.00040279
-0.00106486
-0.00116962
-0.000728838
0.00028399
0.00195366
0.0044193
0.00784572
0.00313037
-0.00056807
-0.00228446
-0.00308701
-0.0033896
-0.00321046
-0.0024942
-0.00108987
0.001256
0.00492094
5.6949e-05
-0.00371183
-0.00552528
-0.00650441
-0.00708903
-0.0072886
-0.00699833
-0.00597494
-0.00380429
0.000323258
-0.00467525
-0.00827365
-0.0101199
-0.0113003
-0.0122455
-0.012951
-0.0132528
-0.012804
-0.0110139
-0.0062251
-0.0109011
-0.0141162
-0.0159296
-0.0173191
-0.0186813
-0.0200066
-0.0210781
-0.0214496
-0.0204341
-0.0148127
-0.0183058
-0.0209793
-0.0226957
-0.0242722
-0.026062
-0.0280859
-0.0301416
-0.0317877
-0.0327831
-0.0283973
3.20285e-06
-0.00161804
-0.0033116
-0.00456826
-0.00506128
-0.00463966
-0.00325725
-0.000917743
0.00233445
0.00640385
0.00161808
-3.67188e-05
-0.00121069
-0.00191321
-0.00201385
-0.00139928
-2.30336e-05
0.00213193
0.00505709
0.00870763
0.0033536
0.00108806
-9.09735e-05
-0.0006457
-0.000627605
2.90812e-05
0.00135321
0.00337172
0.00610718
0.00955856
0.00453459
0.00158751
0.000245894
-0.000323433
-0.000322621
0.000273813
0.00148228
0.00334785
0.0059368
0.0093103
0.00460282
0.00111793
-0.000397833
-0.00105416
-0.00116314
-0.000722649
0.000289518
0.00195692
0.00441585
0.00783894
0.0031894
-0.000615959
-0.00227797
-0.0030734
-0.00338014
-0.00320106
-0.00248502
-0.00108247
0.00125005
0.00490206
0.000115997
-0.00376098
-0.00551834
-0.00648951
-0.00707766
-0.00727681
-0.00698526
-0.00595927
-0.0038121
0.000275287
-0.00462071
-0.00832082
-0.0101135
-0.0112859
-0.0122337
-0.0129389
-0.0132392
-0.0127798
-0.011037
-0.00639208
-0.0108556
-0.014159
-0.0159252
-0.017307
-0.0186702
-0.0199946
-0.0210619
-0.021393
-0.0204172
-0.0151876
-0.0182728
-0.0210162
-0.0226949
-0.0242652
-0.0260547
-0.0280751
-0.0301188
-0.0316469
-0.0324537
-0.0285104
3.44845e-06
-0.00161789
-0.00331149
-0.00456818
-0.00506123
-0.00463963
-0.00325722
-0.000917724
0.00233446
0.00640386
0.00161823
-3.66013e-05
-0.00121059
-0.00191313
-0.0020138
-0.00139924
-2.30059e-05
0.00213195
0.00505711
0.00870764
0.00335371
0.00108816
-9.08939e-05
-0.000645638
-0.000627558
2.91164e-05
0.00135323
0.00337174
0.0061072
0.00955857
0.00453466
0.00158758
0.000245956
-0.000323383
-0.000322582
0.000273843
0.0014823
0.00334786
0.00593681
0.00931031
0.00460288
0.00111798
-0.000397787
-0.00105413
-0.00116311
-0.000722624
0.000289537
0.00195693
0.00441586
0.00783895
0.00318944
-0.000615922
-0.00227793
-0.00307337
-0.00338012
-0.00320104
-0.002485
-0.00108246
0.00125006
0.00490207
0.00011603
-0.00376095
-0.00551831
-0.00648949
-0.00707764
-0.00727679
-0.00698525
-0.00595926
-0.00381209
0.000275295
-0.00462069
-0.0083208
-0.0101135
-0.0112858
-0.0122336
-0.0129389
-0.0132392
-0.0127798
-0.011037
-0.00639208
-0.0108556
-0.014159
-0.0159252
-0.017307
-0.0186701
-0.0199946
-0.0210619
-0.021393
-0.0204172
-0.0151876
-0.0182728
-0.0210162
-0.0226949
-0.0242652
-0.0260547
-0.0280751
-0.0301188
-0.0316469
-0.0324537
-0.0285104
4.6972e-06
-0.00159643
-0.00327982
-0.00452766
-0.00501541
-0.00459162
-0.0032091
-0.000871493
0.00237644
0.00643897
0.00160102
-3.16891e-05
-0.00122774
-0.00194051
-0.00204631
-0.00143499
-5.88823e-05
0.00209858
0.00502784
0.00868239
0.00332348
0.00111445
-8.95107e-05
-0.000646586
-0.000626096
3.04657e-05
0.0013547
0.00337388
0.00611012
0.00956038
0.00449051
0.00162448
0.000245903
-0.000326563
-0.000321538
0.00027536
0.00148428
0.00335106
0.00594232
0.00931517
0.00454879
0.00116132
-0.000402669
-0.00106476
-0.00116954
-0.000728774
0.000284039
0.0019537
0.00441933
0.00784574
0.00313047
-0.000567974
-0.00228437
-0.00308693
-0.00338953
-0.0032104
-0.00249416
-0.00108983
0.00125603
0.00492097
5.70166e-05
-0.00371176
-0.00552522
-0.00650435
-0.00708898
-0.00728856
-0.00699829
-0.0059749
-0.00380426
0.00032328
-0.00467519
-0.0082736
-0.0101198
-0.0113003
-0.0122455
-0.012951
-0.0132528
-0.012804
-0.0110139
-0.00622508
-0.0109011
-0.0141162
-0.0159296
-0.0173191
-0.0186813
-0.0200066
-0.0210781
-0.0214496
-0.0204341
-0.0148127
-0.0183058
-0.0209792
-0.0226957
-0.0242721
-0.026062
-0.0280858
-0.0301416
-0.0317877
-0.0327831
-0.0283973
0.0111631
0.0163617
0.0218654
0.0275463
0.0333195
0.0391357
0.0449711
0.05082
0.0566905
0.0626029
0.0685896
0.0746966
0.0809833
0.0875209
0.094386
0.101647
0.109344
0.117458
0.125871
0.134343
0.0129656
0.0177396
0.0228746
0.0282629
0.0338218
0.0394934
0.0452415
0.0510476
0.0569081
0.0628323
0.0688417
0.0749687
0.0812561
0.0877531
0.0945102
0.101568
0.108944
0.116606
0.124454
0.132296
0.0136596
0.0182695
0.0232669
0.0285487
0.0340307
0.0396509
0.0453675
0.0511559
0.0570062
0.0629209
0.0689135
0.0750073
0.0812338
0.0876306
0.0942377
0.10109
0.108209
0.115581
0.123141
0.130743
0.0134296
0.0180839
0.0231321
0.0284626
0.0339859
0.0396382
0.0453775
0.0511789
0.0570301
0.0629298
0.0688848
0.07491
0.0810271
0.0872649
0.0936582
0.100247
0.107072
0.114161
0.121513
0.129054
0.0122319
0.0171799
0.0224875
0.0280297
0.0337126
0.0394782
0.0452932
0.051139
0.0570066
0.0628929
0.0687998
0.074733
0.0807034
0.0867289
0.0928385
0.0990795
0.105519
0.112247
0.119357
0.126918
0.0100164
0.0156113
0.0214248
0.0273442
0.0332907
0.0392321
0.0451589
0.0510691
0.0569622
0.062837
0.0686906
0.074519
0.0803196
0.0860952
0.0918633
0.0976709
0.103614
0.109847
0.116601
0.124221
0.00691465
0.013646
0.0202153
0.0266313
0.0328865
0.0390141
0.0450506
0.0510203
0.0569353
0.0627971
0.0685978
0.0743223
0.0799509
0.0854658
0.0908613
0.0961683
0.101497
0.107062
0.113258
0.120939
0.00334268
0.0118121
0.0192914
0.0262008
0.0327019
0.0389484
0.0450431
0.0510391
0.0569588
0.0628035
0.0685584
0.074195
0.0796741
0.0849506
0.0899835
0.0947676
0.0994076
0.10413
0.109458
0.117055
0.00135015
0.0117938
0.0195948
0.0265341
0.0329746
0.0391508
0.0451961
0.0511636
0.0570672
0.0628983
0.0686302
0.0742189
0.079602
0.0846993
0.0894159
0.0936743
0.0975248
0.100986
0.10441
0.110718
0.00590048
0.017125
0.0227704
0.0283027
0.0339663
0.0397251
0.04556
0.0514343
0.0573113
0.0631539
0.0689162
0.0745345
0.0799178
0.0849352
0.0893998
0.0930489
0.0955277
0.0965417
0.0952866
0.0968291
0.0111367
0.0163432
0.0218531
0.0275385
0.0333148
0.0391327
0.044969
0.0508182
0.0566887
0.0626005
0.0685865
0.0746925
0.0809782
0.087515
0.0943796
0.101641
0.10934
0.117458
0.125879
0.134362
0.0129879
0.0177583
0.0228894
0.0282742
0.0338303
0.0394998
0.0452466
0.051052
0.0569123
0.0628368
0.0688466
0.0749742
0.0812618
0.0877583
0.0945136
0.101568
0.108939
0.116592
0.124432
0.132266
0.0136624
0.0182743
0.0232722
0.0285537
0.034035
0.0396543
0.0453701
0.0511579
0.0570078
0.0629222
0.0689146
0.0750082
0.0812344
0.0876309
0.0942373
0.101089
0.108206
0.115576
0.123135
0.130737
0.013434
0.0180909
0.0231391
0.0284689
0.0339909
0.0396419
0.0453802
0.0511807
0.0570314
0.0629306
0.0688854
0.0749104
0.0810274
0.0872651
0.0936581
0.100246
0.10707
0.114158
0.121507
0.129049
0.0122438
0.0171932
0.0224984
0.0280382
0.0337186
0.0394821
0.0452957
0.0511406
0.0570076
0.0628937
0.0688004
0.0747337
0.0807042
0.0867298
0.0928394
0.0990795
0.105518
0.112244
0.119346
0.126903
0.0100418
0.015633
0.0214384
0.0273533
0.033296
0.0392349
0.0451603
0.0510697
0.0569625
0.0628372
0.0686907
0.0745193
0.0803201
0.0860961
0.0918644
0.0976716
0.103614
0.109845
0.116583
0.124184
0.00698225
0.0136907
0.020236
0.0266421
0.032891
0.0390155
0.0450508
0.0510201
0.056935
0.0627969
0.0685978
0.0743226
0.0799517
0.0854671
0.090863
0.0961691
0.101496
0.107057
0.113215
0.120835
0.00345751
0.0118588
0.0193009
0.0262044
0.0327015
0.0389465
0.0450413
0.0510376
0.0569575
0.0628025
0.0685575
0.0741943
0.0796738
0.084951
0.089985
0.0947681
0.0994062
0.104136
0.10942
0.11689
0.00149358
0.0117303
0.0195236
0.0265036
0.0329589
0.0391412
0.0451901
0.051159
0.0570627
0.0628933
0.0686243
0.0742117
0.0795939
0.0846917
0.0894116
0.0936754
0.097544
0.101074
0.104531
0.110539
0.00674102
0.0172683
0.0227808
0.0283257
0.0339813
0.0397321
0.045564
0.0514371
0.0573138
0.0631567
0.0689196
0.0745388
0.079923
0.084941
0.0894042
0.0930463
0.0955183
0.0965728
0.095225
0.0957651
0.0111367
0.0163432
0.0218531
0.0275385
0.0333148
0.0391327
0.044969
0.0508182
0.0566887
0.0626005
0.0685865
0.0746925
0.0809782
0.087515
0.0943796
0.101641
0.10934
0.117458
0.125879
0.134362
0.0129879
0.0177583
0.0228894
0.0282742
0.0338303
0.0394998
0.0452466
0.051052
0.0569123
0.0628368
0.0688466
0.0749742
0.0812618
0.0877583
0.0945136
0.101568
0.108939
0.116592
0.124432
0.132266
0.0136624
0.0182743
0.0232722
0.0285537
0.034035
0.0396543
0.0453701
0.0511579
0.0570078
0.0629222
0.0689146
0.0750082
0.0812344
0.0876309
0.0942373
0.101089
0.108206
0.115576
0.123135
0.130737
0.013434
0.0180909
0.0231391
0.0284689
0.0339909
0.0396419
0.0453802
0.0511807
0.0570314
0.0629306
0.0688854
0.0749104
0.0810274
0.0872651
0.0936581
0.100246
0.10707
0.114158
0.121507
0.129049
0.0122438
0.0171932
0.0224984
0.0280382
0.0337186
0.0394822
0.0452957
0.0511406
0.0570076
0.0628937
0.0688004
0.0747337
0.0807042
0.0867298
0.0928394
0.0990795
0.105518
0.112244
0.119346
0.126903
0.0100418
0.015633
0.0214384
0.0273533
0.033296
0.0392349
0.0451603
0.0510697
0.0569625
0.0628372
0.0686907
0.0745193
0.0803201
0.0860961
0.0918644
0.0976716
0.103614
0.109845
0.116583
0.124184
0.00698226
0.0136907
0.020236
0.0266421
0.032891
0.0390155
0.0450508
0.0510201
0.056935
0.0627969
0.0685978
0.0743226
0.0799517
0.0854671
0.090863
0.0961691
0.101496
0.107057
0.113215
0.120835
0.00345751
0.0118588
0.0193009
0.0262044
0.0327015
0.0389465
0.0450413
0.0510376
0.0569575
0.0628025
0.0685575
0.0741943
0.0796738
0.084951
0.089985
0.0947681
0.0994062
0.104136
0.10942
0.11689
0.00149358
0.0117303
0.0195236
0.0265036
0.0329589
0.0391412
0.0451901
0.051159
0.0570627
0.0628933
0.0686243
0.0742117
0.0795939
0.0846917
0.0894116
0.0936754
0.097544
0.101074
0.104531
0.110539
0.00674102
0.0172683
0.0227808
0.0283257
0.0339813
0.0397321
0.045564
0.0514371
0.0573138
0.0631567
0.0689196
0.0745388
0.079923
0.084941
0.0894042
0.0930463
0.0955183
0.0965728
0.095225
0.0957651
0.0111632
0.0163617
0.0218654
0.0275463
0.0333196
0.0391357
0.0449711
0.05082
0.0566905
0.0626029
0.0685896
0.0746966
0.0809833
0.0875209
0.094386
0.101647
0.109344
0.117458
0.125871
0.134343
0.0129656
0.0177396
0.0228746
0.0282629
0.0338218
0.0394935
0.0452415
0.0510476
0.0569081
0.0628323
0.0688417
0.0749687
0.0812561
0.0877531
0.0945102
0.101568
0.108944
0.116606
0.124454
0.132296
0.0136596
0.0182695
0.0232669
0.0285487
0.0340307
0.0396509
0.0453675
0.0511559
0.0570062
0.0629209
0.0689135
0.0750073
0.0812338
0.0876306
0.0942377
0.10109
0.108209
0.115581
0.123141
0.130743
0.0134296
0.0180839
0.0231321
0.0284626
0.0339859
0.0396382
0.0453775
0.0511789
0.0570301
0.0629298
0.0688848
0.07491
0.0810271
0.0872649
0.0936582
0.100247
0.107072
0.114161
0.121513
0.129054
0.0122319
0.0171799
0.0224876
0.0280297
0.0337126
0.0394782
0.0452932
0.051139
0.0570066
0.0628929
0.0687998
0.074733
0.0807034
0.0867289
0.0928385
0.0990794
0.105519
0.112247
0.119357
0.126918
0.0100164
0.0156113
0.0214248
0.0273442
0.0332907
0.0392321
0.0451589
0.0510691
0.0569622
0.062837
0.0686906
0.074519
0.0803196
0.0860952
0.0918633
0.0976709
0.103614
0.109847
0.116601
0.124221
0.00691466
0.013646
0.0202153
0.0266313
0.0328865
0.0390141
0.0450506
0.0510203
0.0569353
0.0627971
0.0685978
0.0743223
0.0799509
0.0854658
0.0908613
0.0961683
0.101497
0.107062
0.113258
0.120939
0.0033427
0.0118121
0.0192914
0.0262008
0.0327019
0.0389484
0.0450431
0.0510391
0.0569588
0.0628035
0.0685584
0.074195
0.0796741
0.0849506
0.0899835
0.0947676
0.0994076
0.10413
0.109458
0.117055
0.00135016
0.0117939
0.0195948
0.0265341
0.0329746
0.0391508
0.0451961
0.0511636
0.0570672
0.0628983
0.0686302
0.0742189
0.079602
0.0846993
0.0894159
0.0936743
0.0975248
0.100986
0.10441
0.110718
0.0059005
0.0171251
0.0227704
0.0283027
0.0339663
0.0397251
0.04556
0.0514343
0.0573113
0.0631539
0.0689162
0.0745345
0.0799178
0.0849352
0.0893998
0.0930489
0.0955277
0.0965417
0.0952866
0.0968291
0.142507
0.149913
0.156142
0.160877
0.163955
0.165377
0.165321
0.164155
0.162432
0.160834
0.139835
0.146699
0.152544
0.157109
0.160256
0.161988
0.162453
0.161944
0.160798
0.159231
0.138119
0.144886
0.150698
0.155295
0.158539
0.160424
0.161075
0.16074
0.159601
0.157547
0.136543
0.143496
0.149517
0.154316
0.157737
0.159762
0.160503
0.160184
0.158889
0.156299
0.134752
0.142133
0.14857
0.15373
0.157434
0.159658
0.160509
0.160206
0.158785
0.155812
0.132728
0.140806
0.147863
0.153529
0.157612
0.160099
0.161108
0.160866
0.1594
0.156239
0.130671
0.139731
0.147558
0.153817
0.158327
0.161113
0.16232
0.162195
0.160782
0.157627
0.129023
0.139356
0.148002
0.154836
0.159731
0.162785
0.164192
0.164221
0.162949
0.159974
0.128026
0.140365
0.149785
0.157002
0.162075
0.165253
0.16679
0.166968
0.165891
0.163237
0.132406
0.145973
0.154562
0.161122
0.165738
0.168683
0.170172
0.170433
0.169564
0.167322
0.14254
0.149958
0.156196
0.160937
0.164014
0.165431
0.165365
0.164185
0.162449
0.160833
0.139798
0.146657
0.152497
0.15706
0.160208
0.161945
0.162416
0.161918
0.160793
0.15921
0.13812
0.144891
0.150704
0.155302
0.158546
0.160429
0.161075
0.160739
0.159618
0.157515
0.136549
0.143508
0.149531
0.154331
0.15775
0.159773
0.160506
0.160185
0.158917
0.156258
0.134759
0.142144
0.148582
0.153741
0.157443
0.159664
0.160508
0.160205
0.158818
0.155767
0.132738
0.140818
0.147875
0.15354
0.157621
0.160105
0.161107
0.160864
0.159436
0.156191
0.130693
0.139748
0.147571
0.15383
0.158337
0.161119
0.162318
0.162193
0.160818
0.157579
0.129163
0.139412
0.148026
0.154852
0.159738
0.162788
0.164189
0.164219
0.162982
0.159928
0.128355
0.140382
0.149762
0.156994
0.162069
0.16525
0.166784
0.166965
0.16592
0.163195
0.132293
0.145599
0.154395
0.161074
0.165719
0.168677
0.170167
0.170431
0.169589
0.167287
0.14254
0.149958
0.156196
0.160937
0.164014
0.165431
0.165365
0.164185
0.162449
0.160833
0.139798
0.146657
0.152497
0.15706
0.160208
0.161945
0.162416
0.161918
0.160793
0.15921
0.13812
0.144891
0.150704
0.155302
0.158546
0.160429
0.161075
0.160739
0.159618
0.157515
0.136549
0.143508
0.149531
0.154331
0.15775
0.159773
0.160506
0.160185
0.158917
0.156258
0.134759
0.142144
0.148582
0.153741
0.157443
0.159664
0.160508
0.160205
0.158818
0.155767
0.132738
0.140818
0.147875
0.15354
0.157621
0.160105
0.161107
0.160864
0.159436
0.156191
0.130693
0.139748
0.147571
0.15383
0.158337
0.161119
0.162318
0.162193
0.160818
0.157579
0.129163
0.139412
0.148026
0.154852
0.159738
0.162788
0.164189
0.164219
0.162982
0.159928
0.128355
0.140382
0.149762
0.156994
0.162069
0.16525
0.166784
0.166965
0.16592
0.163195
0.132293
0.145599
0.154395
0.161074
0.165719
0.168677
0.170167
0.170431
0.169589
0.167287
0.142507
0.149913
0.156142
0.160877
0.163955
0.165377
0.165321
0.164155
0.162432
0.160834
0.139835
0.146699
0.152544
0.157109
0.160256
0.161988
0.162453
0.161944
0.160798
0.159231
0.138119
0.144886
0.150698
0.155295
0.158539
0.160424
0.161075
0.16074
0.159601
0.157547
0.136543
0.143496
0.149517
0.154316
0.157737
0.159762
0.160503
0.160184
0.158889
0.156299
0.134752
0.142133
0.14857
0.15373
0.157434
0.159658
0.160509
0.160206
0.158785
0.155812
0.132728
0.140806
0.147863
0.153529
0.157612
0.160099
0.161108
0.160866
0.1594
0.156239
0.130671
0.139731
0.147558
0.153817
0.158327
0.161113
0.16232
0.162195
0.160782
0.157627
0.129023
0.139356
0.148002
0.154836
0.159731
0.162785
0.164192
0.164221
0.162949
0.159974
0.128026
0.140365
0.149785
0.157002
0.162075
0.165253
0.16679
0.166968
0.165891
0.163237
0.132406
0.145973
0.154562
0.161122
0.165738
0.168683
0.170172
0.170433
0.169564
0.167322
0.166655
0.162104
0.164107
0.167701
0.17083
0.173074
0.174299
0.174551
0.173873
0.172078
0.177819
0.172506
0.172549
0.174416
0.17642
0.178028
0.178968
0.179184
0.178679
0.17732
0.183399
0.180262
0.179997
0.180967
0.182228
0.183342
0.184033
0.184209
0.183852
0.18288
0.188858
0.187155
0.186877
0.187366
0.188142
0.18889
0.18938
0.189517
0.189282
0.188628
0.194445
0.193556
0.193356
0.19361
0.194085
0.194576
0.194914
0.19502
0.194878
0.194475
0.200133
0.19971
0.1996
0.19974
0.200028
0.200341
0.200565
0.200642
0.200571
0.20036
0.205925
0.205771
0.205729
0.205804
0.205966
0.206146
0.206278
0.206327
0.206303
0.206238
0.211808
0.211831
0.211822
0.211843
0.211901
0.211967
0.212013
0.212024
0.212025
0.212074
0.217811
0.217941
0.217938
0.217892
0.217841
0.217787
0.217733
0.217688
0.21769
0.217821
0.223971
0.224162
0.224128
0.223984
0.223795
0.223592
0.223408
0.223275
0.22325
0.223431
0.230354
0.230555
0.23044
0.230149
0.22977
0.229367
0.229006
0.228743
0.22865
0.228839
0.237052
0.237186
0.236922
0.236412
0.235772
0.2351
0.234498
0.234049
0.233834
0.233968
0.244182
0.244125
0.243613
0.242795
0.241803
0.240778
0.23986
0.239157
0.23875
0.238734
0.251889
0.251432
0.250538
0.2493
0.247857
0.246391
0.245077
0.244043
0.243356
0.243053
0.26035
0.259115
0.257671
0.255895
0.253908
0.251927
0.250151
0.248714
0.247643
0.246855
0.269678
0.267146
0.264896
0.262471
0.259887
0.257371
0.25511
0.253218
0.251644
0.250124
0.279928
0.27519
0.271871
0.268764
0.265634
0.262676
0.260005
0.257669
0.255479
0.252908
0.29078
0.282488
0.277891
0.274251
0.270833
0.267731
0.264903
0.262252
0.259378
0.255379
0.302221
0.288053
0.281785
0.277987
0.274871
0.272273
0.269846
0.267234
0.263717
0.257884
0.31321
0.288304
0.280355
0.277803
0.276491
0.275734
0.27479
0.272957
0.269064
0.261027
0.167496
0.162248
0.164222
0.167768
0.170855
0.173086
0.174303
0.174554
0.173895
0.172052
0.177962
0.172443
0.172595
0.17446
0.176442
0.178041
0.178975
0.179189
0.178697
0.177302
0.183409
0.180191
0.180007
0.180988
0.182241
0.183353
0.18404
0.184214
0.183866
0.182868
0.188881
0.187126
0.186881
0.187377
0.188151
0.188898
0.189386
0.189522
0.189292
0.188621
0.194459
0.193542
0.193356
0.193615
0.194091
0.194582
0.194919
0.195023
0.194885
0.194471
0.200139
0.199703
0.199599
0.199741
0.200031
0.200345
0.200568
0.200645
0.200574
0.200358
0.205927
0.205769
0.205728
0.205804
0.205967
0.206148
0.20628
0.206329
0.206304
0.206238
0.211808
0.211832
0.211821
0.211842
0.211901
0.211969
0.212014
0.212025
0.212024
0.212075
0.217809
0.217944
0.217937
0.217892
0.217841
0.217788
0.217734
0.217688
0.217687
0.217824
0.223967
0.224166
0.224127
0.223984
0.223795
0.223592
0.223409
0.223276
0.223246
0.223434
0.230349
0.23056
0.230439
0.230148
0.229769
0.229366
0.229006
0.228743
0.228645
0.228843
0.237046
0.23719
0.23692
0.236411
0.235771
0.235099
0.234499
0.23405
0.23383
0.233973
0.244177
0.244127
0.243611
0.242793
0.241802
0.240777
0.23986
0.239157
0.238748
0.238739
0.251885
0.251426
0.250534
0.249297
0.247854
0.246389
0.245077
0.244044
0.243358
0.243057
0.26035
0.259097
0.257664
0.255891
0.253904
0.251925
0.250151
0.248717
0.247652
0.246856
0.26969
0.267108
0.264889
0.262468
0.259882
0.257369
0.25511
0.253224
0.251665
0.250119
0.27998
0.275121
0.271865
0.268763
0.265629
0.262674
0.260005
0.257677
0.255518
0.252894
0.290845
0.282314
0.277867
0.274249
0.270825
0.26773
0.264905
0.262266
0.259443
0.25535
0.302336
0.28773
0.281791
0.27803
0.274886
0.272286
0.269855
0.267256
0.263815
0.257835
0.31454
0.288413
0.28065
0.277987
0.276559
0.275768
0.274806
0.272987
0.269206
0.260951
0.167496
0.162248
0.164222
0.167768
0.170855
0.173086
0.174303
0.174554
0.173895
0.172052
0.177962
0.172443
0.172595
0.17446
0.176442
0.178041
0.178975
0.179189
0.178697
0.177302
0.183409
0.180191
0.180007
0.180988
0.182242
0.183353
0.18404
0.184214
0.183866
0.182868
0.188881
0.187126
0.186881
0.187377
0.188151
0.188898
0.189386
0.189522
0.189292
0.188621
0.194459
0.193542
0.193356
0.193615
0.194091
0.194582
0.194919
0.195023
0.194885
0.194471
0.200139
0.199703
0.199599
0.199741
0.200031
0.200345
0.200568
0.200645
0.200574
0.200358
0.205927
0.205769
0.205728
0.205804
0.205967
0.206148
0.20628
0.206329
0.206304
0.206238
0.211808
0.211832
0.211821
0.211842
0.211901
0.211969
0.212014
0.212025
0.212024
0.212075
0.217809
0.217944
0.217937
0.217892
0.217841
0.217788
0.217734
0.217688
0.217687
0.217824
0.223967
0.224166
0.224127
0.223984
0.223795
0.223592
0.223408
0.223276
0.223246
0.223434
0.230349
0.23056
0.230439
0.230148
0.229769
0.229366
0.229006
0.228743
0.228645
0.228843
0.237046
0.23719
0.23692
0.236411
0.235771
0.235099
0.234499
0.23405
0.23383
0.233973
0.244177
0.244127
0.243611
0.242793
0.241802
0.240777
0.23986
0.239157
0.238748
0.238739
0.251885
0.251426
0.250534
0.249297
0.247854
0.246389
0.245077
0.244044
0.243358
0.243057
0.26035
0.259097
0.257664
0.255891
0.253904
0.251925
0.250151
0.248717
0.247652
0.246856
0.26969
0.267108
0.264889
0.262468
0.259882
0.257369
0.25511
0.253224
0.251665
0.250119
0.27998
0.275121
0.271865
0.268763
0.265629
0.262674
0.260005
0.257677
0.255518
0.252894
0.290845
0.282314
0.277867
0.274249
0.270825
0.26773
0.264905
0.262266
0.259443
0.25535
0.302336
0.28773
0.281791
0.27803
0.274886
0.272286
0.269855
0.267256
0.263815
0.257835
0.31454
0.288413
0.28065
0.277987
0.276559
0.275768
0.274806
0.272987
0.269206
0.260951
0.166655
0.162104
0.164107
0.167701
0.17083
0.173074
0.174299
0.174551
0.173873
0.172078
0.177819
0.172506
0.172549
0.174416
0.17642
0.178028
0.178968
0.179184
0.178679
0.17732
0.183399
0.180262
0.179997
0.180967
0.182228
0.183342
0.184033
0.184209
0.183852
0.18288
0.188858
0.187155
0.186877
0.187366
0.188142
0.18889
0.18938
0.189517
0.189282
0.188628
0.194445
0.193556
0.193357
0.19361
0.194085
0.194576
0.194914
0.19502
0.194878
0.194475
0.200133
0.19971
0.1996
0.19974
0.200028
0.200341
0.200565
0.200642
0.200571
0.20036
0.205925
0.205771
0.205729
0.205804
0.205966
0.206146
0.206278
0.206327
0.206303
0.206238
0.211808
0.211831
0.211822
0.211843
0.211901
0.211967
0.212013
0.212024
0.212025
0.212074
0.217811
0.217941
0.217938
0.217892
0.217841
0.217787
0.217733
0.217688
0.21769
0.217821
0.223971
0.224162
0.224128
0.223984
0.223795
0.223592
0.223408
0.223275
0.22325
0.223431
0.230354
0.230555
0.23044
0.230149
0.22977
0.229367
0.229006
0.228743
0.22865
0.228839
0.237052
0.237186
0.236922
0.236412
0.235772
0.2351
0.234498
0.234049
0.233834
0.233968
0.244182
0.244125
0.243613
0.242795
0.241803
0.240778
0.23986
0.239157
0.23875
0.238734
0.251889
0.251432
0.250538
0.2493
0.247857
0.246391
0.245077
0.244043
0.243356
0.243053
0.26035
0.259115
0.257671
0.255895
0.253908
0.251927
0.250151
0.248714
0.247643
0.246855
0.269678
0.267146
0.264896
0.262471
0.259887
0.257371
0.25511
0.253218
0.251644
0.250124
0.279928
0.27519
0.271871
0.268764
0.265634
0.262676
0.260005
0.257669
0.255479
0.252908
0.29078
0.282488
0.277891
0.274251
0.270833
0.267731
0.264903
0.262252
0.259378
0.255379
0.302221
0.288053
0.281785
0.277987
0.274871
0.272273
0.269846
0.267234
0.263717
0.257884
0.31321
0.288304
0.280355
0.277803
0.276491
0.275734
0.27479
0.272957
0.269064
0.261027
0.252771
0.26138
0.266607
0.270706
0.274267
0.277515
0.279729
0.279911
0.276271
0.265799
0.223647
0.239453
0.250676
0.260226
0.269311
0.277967
0.285048
0.288886
0.286609
0.27377
0.206168
0.221492
0.234852
0.248356
0.262823
0.277801
0.291455
0.30104
0.301911
0.287397
0.19266
0.206498
0.220697
0.23713
0.256576
0.278409
0.300265
0.318137
0.324874
0.310625
0.182834
0.195494
0.210177
0.228948
0.252959
0.281927
0.313526
0.342752
0.359476
0.349917
0.176942
0.189294
0.204812
0.225911
0.254372
0.290774
0.333717
0.378176
0.411301
0.415377
0.174795
0.187894
0.205007
0.22892
0.262177
0.306647
0.362895
0.427615
0.48685
0.521325
0.175505
0.190086
0.20936
0.236507
0.274982
0.328425
0.400498
0.491281
0.591065
0.694927
0.177446
0.193147
0.213859
0.243054
0.285149
0.346039
0.434033
0.557358
0.726198
1.00605
0.178798
0.194007
0.213532
0.240747
0.280342
0.33967
0.432721
0.587017
0.87338
1.4905
0.253111
0.260917
0.26648
0.270696
0.274266
0.277524
0.279734
0.279944
0.276467
0.265687
0.224066
0.239378
0.250611
0.260192
0.269289
0.277961
0.28504
0.288923
0.286871
0.273617
0.206423
0.221509
0.23482
0.248314
0.262783
0.277774
0.291424
0.301074
0.302251
0.287202
0.19275
0.206482
0.220644
0.237061
0.256502
0.278341
0.30019
0.318153
0.325285
0.310387
0.182861
0.195461
0.210106
0.228851
0.252844
0.281804
0.313387
0.342728
0.359909
0.349662
0.17695
0.189257
0.204732
0.225791
0.254213
0.290575
0.333474
0.378058
0.411656
0.41533
0.174809
0.187872
0.204939
0.228797
0.26198
0.306334
0.362464
0.42728
0.486827
0.521815
0.175548
0.19012
0.209381
0.236507
0.27493
0.328224
0.40012
0.490933
0.589769
0.694609
0.177514
0.193259
0.214043
0.243344
0.285579
0.346599
0.434775
0.557961
0.722966
1.00376
0.178849
0.194045
0.21355
0.240749
0.280355
0.339744
0.433077
0.587451
0.869692
1.49975
0.253111
0.260917
0.26648
0.270696
0.274266
0.277524
0.279734
0.279944
0.276467
0.265687
0.224066
0.239378
0.250611
0.260192
0.269289
0.277961
0.28504
0.288923
0.286871
0.273617
0.206423
0.221509
0.23482
0.248314
0.262783
0.277774
0.291424
0.301074
0.302251
0.287202
0.19275
0.206482
0.220644
0.237061
0.256502
0.278341
0.30019
0.318153
0.325285
0.310387
0.182861
0.195461
0.210106
0.228851
0.252844
0.281804
0.313387
0.342728
0.359909
0.349662
0.17695
0.189257
0.204732
0.225791
0.254213
0.290575
0.333474
0.378058
0.411656
0.41533
0.174809
0.187872
0.204939
0.228797
0.26198
0.306334
0.362464
0.42728
0.486827
0.521815
0.175548
0.19012
0.209381
0.236507
0.27493
0.328224
0.40012
0.490933
0.589769
0.694609
0.177514
0.193259
0.214043
0.243344
0.285579
0.346599
0.434775
0.557961
0.722966
1.00376
0.178849
0.194045
0.21355
0.240749
0.280355
0.339744
0.433077
0.587451
0.869692
1.49975
0.252771
0.26138
0.266607
0.270706
0.274267
0.277515
0.279729
0.279911
0.276271
0.265799
0.223647
0.239453
0.250676
0.260226
0.269311
0.277967
0.285048
0.288886
0.286609
0.27377
0.206168
0.221492
0.234852
0.248356
0.262823
0.277801
0.291455
0.30104
0.301911
0.287397
0.19266
0.206498
0.220697
0.23713
0.256576
0.278409
0.300265
0.318137
0.324874
0.310625
0.182834
0.195494
0.210177
0.228948
0.252959
0.281927
0.313526
0.342752
0.359476
0.349917
0.176942
0.189294
0.204812
0.225911
0.254372
0.290774
0.333717
0.378176
0.411301
0.415377
0.174795
0.187894
0.205007
0.22892
0.262177
0.306647
0.362895
0.427615
0.48685
0.521325
0.175505
0.190086
0.20936
0.236507
0.274982
0.328425
0.400498
0.491281
0.591065
0.694927
0.177446
0.193147
0.213859
0.243054
0.285149
0.346039
0.434033
0.557358
0.726198
1.00605
0.178798
0.194007
0.213532
0.240747
0.280342
0.33967
0.432721
0.587017
0.873381
1.4905
-0.153758
-0.13309
-0.115046
-0.0984054
-0.0817884
-0.0649883
-0.0479965
-0.0308481
-0.0136037
0.00366571
0.0208838
0.0379784
0.0548836
0.0715508
0.0880066
0.104439
0.121331
0.139724
0.162916
0.200679
-0.139796
-0.126312
-0.111791
-0.0965393
-0.0806084
-0.0642078
-0.0474727
-0.0304999
-0.0133739
0.0038308
0.0210489
0.038222
0.0553106
0.0723179
0.089316
0.106511
0.124301
0.143307
0.165038
0.192943
-0.136585
-0.124591
-0.110892
-0.0960337
-0.0803381
-0.064069
-0.0473997
-0.0304521
-0.0133203
0.00392099
0.021211
0.0385008
0.0557572
0.0729734
0.0901884
0.107519
0.125177
0.143457
0.162913
0.184447
-0.137774
-0.125473
-0.111596
-0.096605
-0.0808061
-0.0644403
-0.0476771
-0.0306367
-0.0134071
0.00394502
0.0213666
0.0388125
0.0562423
0.0736207
0.0909204
0.10813
0.125249
0.14228
0.159279
0.176348
-0.140468
-0.127492
-0.113126
-0.0977551
-0.0816639
-0.0650685
-0.0481209
-0.0309258
-0.0135565
0.00393361
0.0215006
0.039101
0.0566823
0.0741736
0.0914771
0.108464
0.124958
0.140757
0.15569
0.169717
-0.142895
-0.129303
-0.11447
-0.0987371
-0.0823704
-0.0655652
-0.0484555
-0.0311299
-0.013648
0.00394769
0.0216189
0.03932
0.0569842
0.0745079
0.0917355
0.108468
0.12441
0.139284
0.15288
0.165256
-0.143394
-0.129563
-0.114596
-0.0987851
-0.0823727
-0.0655395
-0.0484101
-0.0310673
-0.0135665
0.00405064
0.021744
0.0394605
0.0571194
0.0745953
0.0917034
0.108198
0.123778
0.138164
0.151216
0.16315
-0.141089
-0.127616
-0.113032
-0.0975719
-0.0814535
-0.0648533
-0.0479017
-0.030691
-0.0132877
0.00425551
0.0218872
0.0395419
0.0571267
0.0745048
0.091485
0.107824
0.123251
0.137548
0.150679
0.163004
-0.135991
-0.123652
-0.110045
-0.0953762
-0.0798709
-0.0637299
-0.0471138
-0.0301454
-0.0129173
0.00449635
0.0220288
0.0395991
0.0571051
0.0744089
0.0913261
0.107633
0.123097
0.137556
0.151043
0.16399
-0.127732
-0.11769
-0.105841
-0.0924744
-0.0779051
-0.0624202
-0.0462552
-0.0295928
-0.0125703
0.0047063
0.0221467
0.0396687
0.0571693
0.074513
0.0915255
0.107994
0.123694
0.138447
0.152244
0.165406
-0.15414
-0.132973
-0.115032
-0.0984277
-0.0818012
-0.0649959
-0.0480018
-0.0308515
-0.0136054
0.00366534
0.0208843
0.0379791
0.0548836
0.0715478
0.0879968
0.104419
0.121309
0.139675
0.162586
0.200079
-0.139738
-0.126142
-0.111713
-0.0965024
-0.080582
-0.0641893
-0.0474601
-0.0304914
-0.0133683
0.0038342
0.0210513
0.0382248
0.0553159
0.0723288
0.0893353
0.106544
0.12436
0.143378
0.164937
0.192686
-0.136645
-0.124566
-0.110867
-0.0960154
-0.0803233
-0.0640584
-0.0473923
-0.030447
-0.0133167
0.00392338
0.0212125
0.0385018
0.0557579
0.0729738
0.090187
0.107514
0.125171