/*--------------------------------*- C++ -*----------------------------------*\
| =========                 |                                                 |
| \\      /  F ield         | OpenFOAM: The Open Source CFD Toolbox           |
|  \\    /   O peration     | Version:  2.4.0                                 |
|   \\  /    A nd           | Web:      www.OpenFOAM.org                      |
|    \\/     M anipulation  |                                                 |
\*---------------------------------------------------------------------------*/
FoamFile
{
    version     2.0;
    format      ascii;
    class       surfaceScalarField;
    location    "4";
    object      phi;
}
// * * * * * * * * * * * * * * * * * * * * * * * * * * * * * * * * * * * * * //

dimensions      [0 3 -1 0 0 0 0];

internalField   nonuniform List<scalar> 
12720
(
1.54752e-07
-1.55403e-07
-3.00711e-11
-5.40696e-07
6.93721e-07
1.7266e-09
-2.06838e-06
1.52509e-06
2.58786e-09
-4.1812e-06
2.1095e-06
3.32354e-09
-6.64273e-06
2.45777e-06
3.76303e-09
-9.25812e-06
2.61144e-06
3.94493e-09
-1.18669e-05
2.60486e-06
3.95693e-09
-1.43302e-05
2.45945e-06
3.80179e-09
-1.65265e-05
2.19282e-06
3.45307e-09
1.83381e-06
2.88718e-09
-1.83632e-05
-7.25513e-07
5.71565e-07
-1.45568e-09
-3.29619e-06
3.26399e-06
4.03175e-10
-7.50117e-06
5.73158e-06
-1.50589e-09
-1.2916e-05
7.5267e-06
-2.38901e-09
-1.90917e-05
8.63637e-06
-2.83218e-09
-2.5609e-05
9.13185e-06
-3.11073e-09
-3.20876e-05
9.0866e-06
-3.12041e-09
-3.81847e-05
8.55941e-06
-2.90098e-09
-4.36047e-05
7.61531e-06
-2.54425e-09
6.36277e-06
-2.19497e-09
-4.81314e-05
-1.69372e-06
2.26779e-06
-2.50618e-09
-6.13484e-06
7.70285e-06
2.268e-09
-1.27276e-05
1.23243e-05
1.07833e-10
-2.0876e-05
1.56751e-05
-9.13674e-11
-2.99928e-05
1.7753e-05
1.2036e-10
-3.95191e-05
1.86581e-05
1.1242e-10
-4.89267e-05
1.84941e-05
1.24124e-10
-5.77215e-05
1.7354e-05
1.83317e-10
-6.54683e-05
1.53618e-05
2.51948e-10
1.27412e-05
1.55228e-10
-7.18469e-05
-2.4897e-06
4.76113e-06
-3.64501e-09
-8.51542e-06
1.37254e-05
3.19541e-09
-1.70911e-05
2.09e-05
-1.37807e-11
-2.74316e-05
2.6016e-05
-2.83351e-10
-3.88355e-05
2.91568e-05
8.51919e-11
-5.06466e-05
3.0469e-05
1.27663e-10
-6.22305e-05
3.00778e-05
1.68815e-10
-7.2971e-05
2.80943e-05
2.7569e-10
-8.23005e-05
2.46908e-05
4.76737e-10
2.0222e-05
4.20329e-10
-8.97816e-05
-3.05305e-06
7.81864e-06
-4.45849e-09
-1.02379e-05
2.09065e-05
3.75787e-09
-2.02646e-05
3.09271e-05
-4.30638e-10
-3.21893e-05
3.79416e-05
-9.29281e-10
-4.52211e-05
4.21891e-05
-5.6299e-10
-5.86359e-05
4.38844e-05
-5.37638e-10
-7.17217e-05
4.31641e-05
-4.802e-10
-8.37546e-05
4.01274e-05
-2.8269e-10
-9.40203e-05
3.49562e-05
2.99809e-10
2.81119e-05
5.89247e-10
-0.000101911
-3.35926e-06
1.11828e-05
-4.85799e-09
-1.11958e-05
2.87388e-05
4.16028e-09
-2.20455e-05
4.17774e-05
-5.63869e-10
-3.48663e-05
5.07635e-05
-1.18242e-09
-4.88133e-05
5.6137e-05
-8.21317e-10
-6.31261e-05
5.8198e-05
-8.16175e-10
-7.70443e-05
5.70831e-05
-7.98121e-10
-8.97539e-05
5.28377e-05
-6.42524e-10
-0.000100372
4.55733e-05
5.17058e-10
3.57495e-05
1.64034e-09
-0.000108011
-3.39898e-06
1.45867e-05
-4.9583e-09
-1.13381e-05
3.66737e-05
4.26963e-09
-2.23193e-05
5.27592e-05
-6.03268e-10
-3.52722e-05
6.37178e-05
-1.29388e-09
-4.9339e-05
7.02047e-05
-9.87519e-10
-6.37568e-05
7.26168e-05
-1.02477e-09
-7.77578e-05
7.10853e-05
-1.13533e-09
-9.04776e-05
6.55588e-05
-1.36084e-09
-0.000100867
5.59618e-05
6.78536e-10
4.24773e-05
4.16737e-09
-0.000107599
-3.17883e-06
1.777e-05
-4.48816e-09
-1.06711e-05
4.41619e-05
4.09783e-09
-2.10706e-05
6.31593e-05
-5.50812e-10
-3.33401e-05
7.59885e-05
-1.25829e-09
-4.66373e-05
8.3503e-05
-1.02985e-09
-6.02225e-05
8.62031e-05
-1.04751e-09
-7.33629e-05
8.42268e-05
-1.18682e-09
-8.52163e-05
7.74143e-05
-2.10434e-09
-9.46543e-05
6.53979e-05
2.00422e-09
4.75412e-05
1.45066e-08
-9.97327e-05
-2.72973e-06
2.05035e-05
-3.74263e-09
-9.27965e-06
5.07081e-05
3.71398e-09
-1.84295e-05
7.23095e-05
-3.81745e-10
-2.92093e-05
8.67694e-05
-1.05404e-09
-4.07911e-05
9.50858e-05
-9.67006e-10
-5.24413e-05
9.78543e-05
-1.04667e-09
-6.34615e-05
9.52484e-05
-1.40529e-09
-7.30851e-05
8.70428e-05
-4.91703e-09
-8.03247e-05
7.26389e-05
-1.46525e-09
4.98441e-05
3.25649e-08
-8.26602e-05
-2.11616e-06
-2.71482e-09
2.26224e-05
-7.35345e-06
3.2076e-09
5.59422e-05
-1.47294e-05
-6.81456e-11
7.96854e-05
-2.33454e-05
-6.01597e-10
9.5386e-05
-3.23435e-05
-6.38125e-10
0.000104085
-4.0893e-05
-9.33839e-10
0.000106405
-4.81709e-05
-1.98103e-09
0.000102528
-5.32566e-05
-1.22315e-08
9.21408e-05
-5.50385e-05
-2.86116e-08
7.44494e-05
9.82645e-09
-5.23433e-05
4.71391e-05
1.56293e-07
-1.56304e-07
-1.87198e-11
-5.41263e-07
6.99294e-07
-1.07836e-11
-2.0691e-06
1.53043e-06
-8.75962e-12
-4.18131e-06
2.11555e-06
-6.62186e-12
-6.64258e-06
2.46503e-06
-4.74101e-12
-9.25796e-06
2.61934e-06
-3.39108e-12
-1.18669e-05
2.61289e-06
-2.44425e-12
-1.43303e-05
2.46723e-06
-1.76101e-12
-1.65268e-05
2.19998e-06
-1.27478e-12
1.83981e-06
-9.22666e-13
-1.83638e-05
-7.30159e-07
5.7241e-07
-1.07865e-11
-3.30179e-06
3.27134e-06
-9.13079e-12
-7.50614e-06
5.73329e-06
-8.40249e-12
-1.29194e-05
7.52643e-06
-6.59811e-12
-1.90934e-05
8.6362e-06
-4.92962e-12
-2.56091e-05
9.13197e-06
-3.61158e-12
-3.20865e-05
9.08715e-06
-2.63995e-12
-3.81827e-05
8.56054e-06
-1.92607e-12
-4.36023e-05
7.61705e-06
-1.40556e-12
6.36438e-06
-1.02247e-12
-4.81291e-05
-1.69912e-06
2.26903e-06
-8.76455e-12
-6.13558e-06
7.71008e-06
-8.32338e-12
-1.27284e-05
1.23263e-05
-7.21767e-12
-2.0877e-05
1.56749e-05
-5.73096e-12
-2.99933e-05
1.77527e-05
-4.42934e-12
-3.95192e-05
1.86579e-05
-3.33512e-12
-4.89263e-05
1.84944e-05
-2.49392e-12
-5.77209e-05
1.73553e-05
-1.86184e-12
-6.54679e-05
1.53643e-05
-1.38886e-12
1.27435e-05
-1.03154e-12
-7.18468e-05
-2.49654e-06
4.76193e-06
-6.57473e-12
-8.51428e-06
1.3731e-05
-6.36888e-12
-1.70899e-05
2.09019e-05
-5.74128e-12
-2.74314e-05
2.60161e-05
-4.67752e-12
-3.88354e-05
2.91568e-05
-3.72521e-12
-5.06465e-05
3.04691e-05
-2.87313e-12
-6.22304e-05
3.00784e-05
-2.19444e-12
-7.29708e-05
2.8096e-05
-1.67672e-12
-8.23009e-05
2.46948e-05
-1.28097e-12
2.0226e-05
-9.72841e-13
-8.97829e-05
-3.06159e-06
7.81907e-06
-4.77805e-12
-1.02365e-05
2.09097e-05
-4.54963e-12
-2.0263e-05
3.09279e-05
-4.31235e-12
-3.21889e-05
3.79411e-05
-3.63867e-12
-4.52211e-05
4.21883e-05
-2.99965e-12
-5.8636e-05
4.38836e-05
-2.38899e-12
-7.17216e-05
4.31635e-05
-1.88178e-12
-8.37541e-05
4.01282e-05
-1.48341e-12
-9.40206e-05
3.49617e-05
-1.16737e-12
2.81191e-05
-9.11223e-13
-0.000101913
-3.36872e-06
1.11829e-05
-3.64913e-12
-1.11942e-05
2.87394e-05
-3.46288e-12
-2.20438e-05
4.1777e-05
-3.33671e-12
-3.48661e-05
5.07622e-05
-2.89959e-12
-4.88138e-05
5.61352e-05
-2.43855e-12
-6.31269e-05
5.81959e-05
-1.99148e-12
-7.70449e-05
5.70807e-05
-1.62078e-12
-8.97534e-05
5.28361e-05
-1.32038e-12
-0.000100372
4.55805e-05
-1.06494e-12
3.57641e-05
-8.4532e-13
-0.000108015
-3.40858e-06
1.45866e-05
-3.08763e-12
-1.13367e-05
3.66717e-05
-2.71159e-12
-2.23178e-05
5.27576e-05
-2.47885e-12
-3.52727e-05
6.37158e-05
-2.21795e-12
-4.93405e-05
7.0202e-05
-1.93479e-12
-6.37591e-05
7.26135e-05
-1.63494e-12
-7.77601e-05
7.10806e-05
-1.37354e-12
-9.04777e-05
6.55523e-05
-1.14373e-12
-0.000100866
5.59692e-05
-9.26562e-13
4.25097e-05
-7.26135e-13
-0.000107607
-3.1877e-06
1.77698e-05
-1.83984e-12
-1.06697e-05
4.41579e-05
-1.79594e-12
-2.10696e-05
6.31569e-05
-1.76443e-12
-3.33412e-05
7.59862e-05
-1.65863e-12
-4.66401e-05
8.34998e-05
-1.51228e-12
-6.02266e-05
8.61989e-05
-1.31845e-12
-7.33674e-05
8.42202e-05
-1.12418e-12
-8.52165e-05
7.73992e-05
-9.2978e-13
-9.46417e-05
6.53964e-05
-7.45608e-13
4.76241e-05
-5.92851e-13
-9.97415e-05
-2.73717e-06
2.05032e-05
-1.18683e-12
-9.27834e-06
5.07027e-05
-1.30676e-12
-1.84287e-05
7.23068e-05
-1.29813e-12
-2.92111e-05
8.67676e-05
-1.24973e-12
-4.07959e-05
9.50836e-05
-1.17227e-12
-5.24498e-05
9.78517e-05
-1.03504e-12
-6.3476e-05
9.5245e-05
-8.5594e-13
-7.31049e-05
8.70233e-05
-6.57318e-13
-8.03007e-05
7.25907e-05
-5.291e-13
4.99619e-05
-4.97884e-13
-8.2606e-05
-2.12157e-06
-8.76805e-13
2.26221e-05
-7.35184e-06
-9.78983e-13
5.59362e-05
-1.4728e-05
-9.66802e-13
7.96829e-05
-2.33463e-05
-9.42315e-13
9.53853e-05
-3.23483e-05
-9.02547e-13
0.000104085
-4.09049e-05
-7.93496e-13
0.000106407
-4.81997e-05
-5.97897e-13
0.000102538
-5.33452e-05
-3.71978e-13
9.21566e-05
-5.51799e-05
-2.51887e-13
7.43968e-05
-2.8863e-13
-5.21143e-05
4.69062e-05
1.56338e-07
-1.56259e-07
-9.76198e-11
-5.41228e-07
6.99321e-07
-1.76576e-09
-2.06907e-06
1.53044e-06
-2.60644e-09
-4.1813e-06
2.11556e-06
-3.33524e-09
-6.64257e-06
2.46504e-06
-3.77081e-09
-9.25796e-06
2.61934e-06
-3.95025e-09
-1.18669e-05
2.61289e-06
-3.96067e-09
-1.43303e-05
2.46723e-06
-3.80446e-09
-1.65268e-05
2.19998e-06
-3.45501e-09
1.83981e-06
-2.8886e-09
-1.83638e-05
-7.30132e-07
5.72445e-07
1.4168e-09
-3.30176e-06
3.27137e-06
-4.26734e-10
-7.50612e-06
5.7333e-06
1.48997e-09
-1.29194e-05
7.52644e-06
2.37807e-09
-1.90934e-05
8.6362e-06
2.82457e-09
-2.56091e-05
9.13197e-06
3.10543e-09
-3.20865e-05
9.08715e-06
3.11667e-09
-3.81827e-05
8.56054e-06
2.89831e-09
-4.36023e-05
7.61705e-06
2.54233e-09
6.36438e-06
2.19358e-09
-4.81291e-05
-1.6991e-06
2.26905e-06
2.48786e-09
-6.13556e-06
7.7101e-06
-2.28388e-09
-1.27284e-05
1.23263e-05
-1.20157e-10
-2.0877e-05
1.56749e-05
8.23925e-11
-2.99933e-05
1.77527e-05
-1.26987e-10
-3.95191e-05
1.86579e-05
-1.17213e-10
-4.89263e-05
1.84944e-05
-1.27589e-10
-5.77209e-05
1.73553e-05
-1.85846e-10
-6.54679e-05
1.53643e-05
-2.53811e-10
1.27435e-05
-1.56603e-10
-7.18468e-05
-2.49653e-06
4.76195e-06
3.63373e-09
-8.51427e-06
1.3731e-05
-3.20634e-09
-1.70899e-05
2.09019e-05
4.5684e-12
-2.74314e-05
2.60161e-05
2.76301e-10
-3.88354e-05
2.91568e-05
-9.06736e-11
-5.06465e-05
3.04691e-05
-1.31772e-10
-6.22304e-05
3.00784e-05
-1.71873e-10
-7.29708e-05
2.8096e-05
-2.77994e-10
-8.23009e-05
2.46949e-05
-4.78495e-10
2.0226e-05
-4.21668e-10
-8.97829e-05
-3.06159e-06
7.81908e-06
4.45129e-09
-1.02365e-05
2.09097e-05
-3.76513e-09
-2.0263e-05
3.09279e-05
4.24094e-10
-3.21889e-05
3.79411e-05
9.24048e-10
-4.5221e-05
4.21883e-05
5.5871e-10
-5.8636e-05
4.38836e-05
5.343e-10
-7.17216e-05
4.31635e-05
4.77617e-10
-8.37541e-05
4.01282e-05
2.80652e-10
-9.40206e-05
3.49617e-05
-3.01441e-10
2.81191e-05
-5.90542e-10
-0.000101913
-3.36872e-06
1.11829e-05
4.85306e-09
-1.11942e-05
2.87394e-05
-4.16538e-09
-2.20438e-05
4.1777e-05
5.59166e-10
-3.48661e-05
5.07623e-05
1.17853e-09
-4.88138e-05
5.61352e-05
8.17975e-10
-6.31269e-05
5.81959e-05
8.13427e-10
-7.70449e-05
5.70807e-05
7.95866e-10
-8.97534e-05
5.28361e-05
6.40634e-10
-0.000100372
4.55805e-05
-5.18652e-10
3.57641e-05
-1.64165e-09
-0.000108015
-3.40858e-06
1.45866e-05
4.95159e-09
-1.13367e-05
3.66717e-05
-4.27324e-09
-2.23178e-05
5.27576e-05
5.99872e-10
-3.52727e-05
6.37158e-05
1.29097e-09
-4.93405e-05
7.0202e-05
9.84885e-10
-6.37591e-05
7.26135e-05
1.02248e-09
-7.77601e-05
7.10806e-05
1.13334e-09
-9.04777e-05
6.55523e-05
1.35909e-09
-0.000100866
5.59692e-05
-6.80032e-10
4.25097e-05
-4.1686e-09
-0.000107607
-3.18769e-06
1.77698e-05
4.48566e-09
-1.06697e-05
4.41579e-05
-4.10067e-09
-2.10696e-05
6.31569e-05
5.48231e-10
-3.33412e-05
7.59862e-05
1.25603e-09
-4.66401e-05
8.34998e-05
1.02773e-09
-6.02266e-05
8.61989e-05
1.04558e-09
-7.33674e-05
8.42202e-05
1.18507e-09
-8.52165e-05
7.73992e-05
2.10279e-09
-9.46417e-05
6.53964e-05
-2.0055e-09
4.76241e-05
-1.45076e-08
-9.97415e-05
-2.73717e-06
2.05032e-05
3.74073e-09
-9.27834e-06
5.07027e-05
-3.71612e-09
-1.84287e-05
7.23068e-05
3.79816e-10
-2.92111e-05
8.67676e-05
1.05229e-09
-4.07959e-05
9.50836e-05
9.65287e-10
-5.24498e-05
9.78517e-05
1.04503e-09
-6.3476e-05
9.5245e-05
1.40376e-09
-7.31049e-05
8.70233e-05
4.91568e-09
-8.03007e-05
7.25907e-05
1.46415e-09
4.99619e-05
-3.25657e-08
-8.2606e-05
-2.12157e-06
2.71352e-09
2.26221e-05
-7.35184e-06
-3.2091e-09
5.59362e-05
-1.4728e-05
6.67512e-11
7.96829e-05
-2.33463e-05
6.00248e-10
9.53853e-05
-3.23483e-05
6.36746e-10
0.000104085
-4.09049e-05
9.32485e-10
0.000106407
-4.81997e-05
1.97977e-09
0.000102538
-5.33452e-05
1.22304e-08
9.21566e-05
-5.51799e-05
2.86106e-08
7.43968e-05
-9.82726e-09
-5.21143e-05
4.69062e-05
1.55029e-07
-1.55126e-07
-5.40567e-07
6.9383e-07
-2.06831e-06
1.52513e-06
-4.18116e-06
2.10952e-06
-6.64271e-06
2.45778e-06
-9.2581e-06
2.61145e-06
-1.18669e-05
2.60487e-06
-1.43302e-05
2.45945e-06
-1.65265e-05
2.19282e-06
1.83381e-06
-1.83631e-05
-7.25404e-07
5.71695e-07
-3.29609e-06
3.26409e-06
-7.5011e-06
5.73163e-06
-1.29159e-05
7.52673e-06
-1.90917e-05
8.63639e-06
-2.5609e-05
9.13186e-06
-3.20876e-05
9.08661e-06
-3.81847e-05
8.55941e-06
-4.36047e-05
7.61531e-06
6.36278e-06
-4.81314e-05
-1.69367e-06
2.26786e-06
-6.13479e-06
7.70292e-06
-1.27276e-05
1.23243e-05
-2.0876e-05
1.56752e-05
-2.99928e-05
1.77531e-05
-3.95191e-05
1.86581e-05
-4.89267e-05
1.84941e-05
-5.77215e-05
1.7354e-05
-6.54683e-05
1.53618e-05
1.27412e-05
-7.18469e-05
-2.48968e-06
4.76117e-06
-8.51539e-06
1.37254e-05
-1.70911e-05
2.09e-05
-2.74316e-05
2.6016e-05
-3.88355e-05
2.91568e-05
-5.06466e-05
3.0469e-05
-6.22305e-05
3.00778e-05
-7.2971e-05
2.80943e-05
-8.23005e-05
2.46908e-05
2.0222e-05
-8.97816e-05
-3.05304e-06
7.81867e-06
-1.02379e-05
2.09065e-05
-2.02646e-05
3.09271e-05
-3.21893e-05
3.79416e-05
-4.52211e-05
4.21892e-05
-5.86359e-05
4.38844e-05
-7.17217e-05
4.31641e-05
-8.37545e-05
4.01274e-05
-9.40202e-05
3.49562e-05
2.81119e-05
-0.000101911
-3.35925e-06
1.11828e-05
-1.11957e-05
2.87388e-05
-2.20455e-05
4.17775e-05
-3.48662e-05
5.07635e-05
-4.88133e-05
5.6137e-05
-6.31261e-05
5.8198e-05
-7.70443e-05
5.70831e-05
-8.97539e-05
5.28377e-05
-0.000100372
4.55733e-05
3.57495e-05
-0.000108011
-3.39898e-06
1.45867e-05
-1.13381e-05
3.66737e-05
-2.23193e-05
5.27592e-05
-3.52722e-05
6.37178e-05
-4.9339e-05
7.02047e-05
-6.37568e-05
7.26169e-05
-7.77578e-05
7.10853e-05
-9.04776e-05
6.55588e-05
-0.000100867
5.59618e-05
4.24773e-05
-0.000107599
-3.17883e-06
1.777e-05
-1.06711e-05
4.41619e-05
-2.10706e-05
6.31593e-05
-3.33401e-05
7.59885e-05
-4.66373e-05
8.3503e-05
-6.02225e-05
8.62031e-05
-7.33629e-05
8.42268e-05
-8.52162e-05
7.74143e-05
-9.46543e-05
6.53979e-05
4.75412e-05
-9.97327e-05
-2.72973e-06
2.05035e-05
-9.27965e-06
5.07081e-05
-1.84295e-05
7.23095e-05
-2.92093e-05
8.67694e-05
-4.07911e-05
9.50858e-05
-5.24413e-05
9.78543e-05
-6.34615e-05
9.52485e-05
-7.30851e-05
8.70428e-05
-8.03246e-05
7.26389e-05
4.98441e-05
-8.26602e-05
-2.11616e-06
2.26224e-05
-7.35345e-06
5.59422e-05
-1.47294e-05
7.96855e-05
-2.33454e-05
9.5386e-05
-3.23435e-05
0.000104085
-4.0893e-05
0.000106405
-4.81709e-05
0.000102528
-5.32566e-05
9.21408e-05
-5.50385e-05
7.44494e-05
-5.23433e-05
4.71391e-05
-1.97986e-05
1.43327e-06
2.17315e-09
-2.0854e-05
1.05392e-06
1.522e-09
-2.15923e-05
7.37269e-07
1.00913e-09
-2.20907e-05
4.97726e-07
6.38466e-10
-2.24226e-05
3.31496e-07
3.931e-10
-2.26493e-05
2.26475e-07
2.4533e-10
-2.28187e-05
1.69277e-07
1.68554e-10
-2.29675e-05
1.48654e-07
1.42598e-10
-2.31239e-05
1.562e-07
1.53791e-10
-2.33096e-05
1.85509e-07
1.93434e-10
-2.35404e-05
2.30567e-07
2.55403e-10
-2.38245e-05
2.83756e-07
3.33253e-10
-2.41586e-05
3.33651e-07
4.1719e-10
-2.4522e-05
3.62895e-07
4.90971e-10
-2.48692e-05
3.46709e-07
5.27659e-10
-2.51228e-05
2.5312e-07
4.8372e-10
-2.51707e-05
4.76076e-08
3.04611e-10
-2.4868e-05
-3.02699e-07
-4.33642e-11
-2.40617e-05
-8.05599e-07
-6.5584e-10
-1.43554e-06
-1.5783e-09
-2.26246e-05
-5.16763e-05
4.98008e-06
-1.94172e-09
-5.42993e-05
3.67855e-06
-1.62161e-09
-5.61547e-05
2.59392e-06
-1.28361e-09
-5.7427e-05
1.77107e-06
-9.81939e-10
-5.82903e-05
1.19546e-06
-7.3579e-10
-5.88891e-05
8.25923e-07
-5.5478e-10
-5.93365e-05
6.17115e-07
-4.38544e-10
-5.97177e-05
5.30178e-07
-3.79712e-10
-6.0096e-05
5.34882e-07
-3.67859e-10
-6.05171e-05
6.06995e-07
-3.90787e-10
-6.10094e-05
7.23289e-07
-4.3364e-10
-6.15806e-05
8.55422e-07
-4.76753e-10
-6.22099e-05
9.63448e-07
-4.93319e-10
-6.28364e-05
9.89914e-07
-4.47814e-10
-6.33458e-05
8.56329e-07
-2.96516e-10
-6.35579e-05
4.65239e-07
6.36433e-12
-6.32234e-05
-2.87347e-07
4.90786e-10
-6.20413e-05
-1.486e-06
1.14559e-09
-5.96977e-05
-3.15106e-06
1.93007e-09
-5.18796e-06
2.66804e-09
-5.5948e-05
-7.67397e-05
9.87315e-06
-2.38834e-10
-8.02788e-05
7.21808e-06
-4.16838e-10
-8.27301e-05
5.0457e-06
-4.57846e-10
-8.4382e-05
3.42337e-06
-4.3593e-10
-8.54873e-05
2.30114e-06
-3.73132e-10
-8.6245e-05
1.58394e-06
-2.98546e-10
-8.6803e-05
1.17528e-06
-2.30772e-10
-8.72682e-05
9.95541e-07
-1.77056e-10
-8.7717e-05
9.8382e-07
-1.38348e-10
-8.82016e-05
1.09173e-06
-1.12088e-10
-8.87517e-05
1.27355e-06
-9.381e-11
-8.9371e-05
1.47478e-06
-7.78087e-11
-9.00279e-05
1.62036e-06
-5.72827e-11
-9.06418e-05
1.60385e-06
-2.38225e-11
-9.10661e-05
1.28063e-06
3.37684e-11
-9.10717e-05
4.70645e-07
1.24877e-10
-9.03385e-05
-1.02079e-06
2.44308e-10
-8.84691e-05
-3.35571e-06
3.84203e-10
-8.50378e-05
-6.58297e-06
5.28346e-10
-1.05325e-05
4.49685e-10
-7.96937e-05
-9.52686e-05
1.53605e-05
-3.80492e-10
-9.90301e-05
1.09802e-05
-6.1398e-10
-0.000101498
7.51395e-06
-6.10715e-10
-0.000103078
5.0044e-06
-5.43564e-10
-0.000104089
3.31222e-06
-4.33226e-10
-0.000104755
2.25013e-06
-3.21122e-10
-0.000105228
1.64916e-06
-2.27916e-10
-0.000105612
1.37924e-06
-1.57191e-10
-0.000105974
1.34573e-06
-1.06832e-10
-0.000106358
1.4765e-06
-7.28323e-11
-0.000106791
1.7057e-06
-5.10015e-11
-0.000107272
1.95659e-06
-3.75212e-11
-0.000107776
2.12393e-06
-2.87788e-11
-0.000108229
2.05715e-06
-1.91107e-11
-0.000108496
1.54749e-06
5.6671e-12
-0.000108351
3.25761e-07
6.1187e-11
-0.000107458
-1.91411e-06
1.3032e-10
-0.000105359
-5.45479e-06
2.60639e-10
-0.00010151
-1.04323e-05
5.10047e-10
-1.66479e-05
4.50531e-10
-9.53953e-05
-0.000107216
2.06673e-05
-1.03507e-09
-0.000110467
1.42319e-05
-1.16127e-09
-0.000112353
9.4005e-06
-9.42189e-10
-0.000113416
6.06863e-06
-7.37361e-10
-0.000114015
3.91192e-06
-5.19701e-10
-0.000114365
2.60015e-06
-3.42121e-10
-0.000114588
1.87272e-06
-2.18858e-10
-0.000114756
1.54663e-06
-1.39138e-10
-0.000114908
1.49827e-06
-9.11427e-11
-0.000115071
1.63941e-06
-6.55862e-11
-0.000115259
1.89384e-06
-5.60112e-11
-0.000115477
2.17484e-06
-5.81404e-11
-0.000115716
2.36251e-06
-6.88243e-11
-0.000115939
2.28035e-06
-8.17793e-11
-0.000116064
1.67271e-06
-7.24876e-11
-0.000115926
1.88107e-07
-6.45656e-12
-0.000115233
-2.60783e-06
6.29827e-11
-0.000113505
-7.18247e-06
2.56708e-10
-0.00011006
-1.38788e-05
8.97719e-10
-2.26157e-05
1.28845e-09
-0.000104093
-0.000112276
2.49345e-05
-2.20855e-09
-0.000114223
1.61809e-05
-1.88737e-09
-0.000114943
1.01213e-05
-1.18469e-09
-0.000115107
6.23438e-06
-7.93868e-10
-0.00011506
3.86519e-06
-4.6735e-10
-0.000114951
2.49066e-06
-2.46881e-10
-0.000114832
1.75422e-06
-1.22482e-10
-0.000114717
1.4317e-06
-5.64316e-11
-0.000114604
1.38528e-06
-2.41741e-11
-0.000114489
1.52497e-06
-1.18436e-11
-0.000114374
1.77875e-06
-1.25743e-11
-0.000114267
2.06715e-06
-2.39337e-11
-0.000114182
2.27812e-06
-4.61056e-11
-0.000114141
2.23875e-06
-7.82012e-11
-0.000114149
1.68147e-06
-9.72813e-11
-0.000114165
2.03896e-07
-5.86024e-11
-0.000114019
-2.75346e-06
-3.17853e-11
-0.000113296
-7.90583e-06
1.41483e-10
-0.000111182
-1.59941e-05
1.54513e-09
-2.73908e-05
3.27334e-09
-0.00010641
-0.000109769
2.71105e-05
-5.87334e-09
-0.000109558
1.5974e-05
-3.88344e-09
-0.000108623
9.1875e-06
-1.79782e-09
-0.000107667
5.27998e-06
-9.37695e-10
-0.000106899
3.09713e-06
-3.98635e-10
-0.000106323
1.91465e-06
-1.23548e-10
-0.000105882
1.3136e-06
-1.5355e-11
-0.000105513
1.0631e-06
2.02208e-11
-0.000105165
1.03663e-06
2.46389e-11
-0.0001048
1.16047e-06
1.47609e-11
-0.000104403
1.38142e-06
-3.71458e-12
-0.000103979
1.64324e-06
-3.02309e-11
-0.000103565
1.86412e-06
-6.61345e-11
-0.000103235
1.90891e-06
-1.14765e-10
-0.000103102
1.5488e-06
-1.51726e-10
-0.000103296
3.97922e-07
-7.76052e-11
-0.00010388
-2.16995e-06
9.304e-11
-0.000104667
-7.11951e-06
4.66967e-10
-0.000104856
-1.58083e-05
3.73725e-09
-2.97268e-05
8.99614e-09
-0.000102529
-9.83284e-05
2.57161e-05
-9.9749e-09
-9.51546e-05
1.28043e-05
-4.0598e-09
-9.239e-05
6.42365e-06
-8.26783e-10
-9.0426e-05
3.31633e-06
-3.13803e-10
-8.91222e-05
1.7933e-06
4.07663e-11
-8.82569e-05
1.04921e-06
1.65397e-10
-8.76445e-05
7.00988e-07
1.5653e-10
-8.71508e-05
5.69285e-07
1.2886e-10
-8.66837e-05
5.69464e-07
1.06896e-10
-8.61824e-05
6.59072e-07
9.15084e-11
-8.56129e-05
8.1178e-07
7.88994e-11
-8.49712e-05
1.00156e-06
6.30497e-11
-8.42957e-05
1.18855e-06
3.45177e-11
-8.36867e-05
1.2999e-06
-3.30852e-11
-8.33339e-05
1.19612e-06
-1.31968e-10
-8.35387e-05
6.02793e-07
-4.27946e-11
-8.4678e-05
-1.03077e-06
1.24424e-10
-8.7067e-05
-4.72999e-06
-4.64071e-10
-9.03728e-05
-1.25059e-05
3.30166e-09
-2.79796e-05
1.43688e-08
-9.21343e-05
-7.50926e-05
1.81611e-05
-1.246e-08
-6.87729e-05
6.47911e-06
5.52213e-09
-6.48815e-05
2.52597e-06
6.18851e-09
-6.26384e-05
1.07066e-06
2.647e-09
-6.13454e-05
4.98927e-07
1.3714e-09
-6.05647e-05
2.67655e-07
8.33413e-10
-6.00408e-05
1.76526e-07
5.25155e-10
-5.96229e-05
1.50952e-07
3.98784e-10
-5.9217e-05
1.6327e-07
3.83708e-10
-5.87614e-05
2.03004e-07
4.31914e-10
-5.82158e-05
2.65645e-07
5.18233e-10
-5.75624e-05
3.47553e-07
6.20829e-10
-5.68166e-05
4.42072e-07
7.01451e-10
-5.60509e-05
5.33469e-07
6.61877e-10
-5.54384e-05
5.83334e-07
3.76649e-10
-5.53381e-05
5.02543e-07
-8.84738e-11
-5.63338e-05
-3.33859e-08
-1.66454e-09
-5.94694e-05
-1.58675e-06
-7.69171e-09
-6.58385e-05
-6.12629e-06
-1.04494e-08
-1.93987e-05
1.55189e-08
-7.44349e-05
-3.4113e-05
-6.91711e-08
-2.76221e-05
-1.17919e-08
-2.50953e-05
-8.60476e-10
-2.40228e-05
-1.89412e-09
-2.35226e-05
-1.23156e-09
-2.32544e-05
-5.79737e-10
-2.30775e-05
-3.28927e-10
-2.29263e-05
-2.33854e-10
-2.27628e-05
-2.07724e-10
-2.25596e-05
-2.28655e-10
-2.22937e-05
-2.82867e-10
-2.19458e-05
-3.56898e-10
-2.15033e-05
-4.3164e-10
-2.09693e-05
-4.73417e-10
-2.03856e-05
-3.65812e-10
-1.98833e-05
2.07498e-10
-1.99174e-05
7.71084e-10
-2.15016e-05
-2.56299e-09
-2.7633e-05
5.07481e-09
8.75658e-08
-4.71193e-05
-1.97992e-05
1.4376e-06
-6.60142e-13
-2.08545e-05
1.05685e-06
-4.64288e-13
-2.15927e-05
7.39162e-07
-3.21879e-13
-2.20909e-05
4.98889e-07
-2.19733e-13
-2.24227e-05
3.32194e-07
-1.4598e-13
-2.26494e-05
2.2691e-07
-9.27469e-14
-2.28188e-05
1.69592e-07
-5.97775e-14
-2.29676e-05
1.48948e-07
-3.42562e-14
-2.3124e-05
1.56541e-07
-1.07737e-14
-2.33097e-05
1.85946e-07
5.58518e-15
-2.35406e-05
2.31136e-07
2.13759e-14
-2.38248e-05
2.84476e-07
3.63366e-14
-2.41589e-05
3.34513e-07
4.65822e-14
-2.45222e-05
3.63854e-07
5.17168e-14
-2.48694e-05
3.47675e-07
5.08681e-14
-2.51228e-05
2.53953e-07
4.84908e-14
-2.51704e-05
4.7859e-08
3.76691e-14
-2.48675e-05
-3.02913e-07
2.59075e-14
-2.40613e-05
-8.06911e-07
1.07622e-14
-1.43857e-06
-8.40723e-15
-2.26243e-05
-5.16738e-05
4.98036e-06
-7.36132e-13
-5.42968e-05
3.67821e-06
-5.23804e-13
-5.61524e-05
2.59347e-06
-3.71293e-13
-5.74251e-05
1.77067e-06
-2.62906e-13
-5.82888e-05
1.19516e-06
-1.83143e-13
-5.88882e-05
8.25728e-07
-1.16817e-13
-5.9336e-05
6.16993e-07
-7.13406e-14
-5.97176e-05
5.30093e-07
-3.97554e-14
-6.00962e-05
5.34795e-07
-8.56586e-15
-6.05175e-05
6.06869e-07
1.51145e-14
-6.10099e-05
7.23084e-07
3.05113e-14
-6.1581e-05
8.55101e-07
4.19396e-14
-6.22099e-05
9.62987e-07
5.00799e-14
-6.28358e-05
9.89322e-07
5.5579e-14
-6.33442e-05
8.55688e-07
6.10314e-14
-6.35549e-05
4.64722e-07
6.60631e-14
-6.32191e-05
-2.87496e-07
6.48416e-14
-6.20356e-05
-1.48523e-06
5.98686e-14
-5.96915e-05
-3.14906e-06
5.11706e-14
-5.1854e-06
3.85488e-14
-5.5942e-05
-7.6739e-05
9.87226e-06
-7.56968e-13
-8.02774e-05
7.21622e-06
-5.47102e-13
-8.27284e-05
5.04406e-06
-3.92955e-13
-8.43803e-05
3.42215e-06
-2.83943e-13
-8.54859e-05
2.30035e-06
-2.09058e-13
-8.62439e-05
1.58348e-06
-1.31626e-13
-8.68022e-05
1.17505e-06
-7.37864e-14
-8.72677e-05
9.95417e-07
-4.0682e-14
-8.77168e-05
9.83718e-07
-1.1067e-14
-8.82016e-05
1.09158e-06
9.29514e-15
-8.87519e-05
1.27327e-06
1.92525e-14
-8.93712e-05
1.47431e-06
2.59654e-14
-9.00279e-05
1.61963e-06
3.42986e-14
-9.06414e-05
1.60286e-06
4.5178e-14
-9.10652e-05
1.27949e-06
5.81531e-14
-9.107e-05
4.6961e-07
6.79816e-14
-9.03359e-05
-1.02129e-06
7.26235e-14
-8.84659e-05
-3.35485e-06
7.12218e-14
-8.50346e-05
-6.57985e-06
6.30667e-14
-1.05284e-05
5.06664e-14
-7.96912e-05
-9.52684e-05
1.53573e-05
-7.26111e-13
-9.90285e-05
1.09758e-05
-5.27165e-13
-0.000101496
7.51061e-06
-3.70707e-13
-0.000103076
5.00215e-06
-2.54614e-13
-0.000104087
3.31088e-06
-2.01894e-13
-0.000104753
2.24943e-06
-1.28727e-13
-0.000105227
1.64885e-06
-6.18628e-14
-0.000105611
1.37912e-06
-2.52649e-14
-0.000105973
1.34567e-06
-3.71892e-16
-0.000106358
1.47639e-06
1.90445e-14
-0.000106791
1.70546e-06
2.98603e-14
-0.000107272
1.95612e-06
3.8333e-14
-0.000107776
2.12314e-06
5.05068e-14
-0.000108229
2.05599e-06
6.50208e-14
-0.000108496
1.54602e-06
7.64416e-14
-0.00010835
3.24386e-07
7.7101e-14
-0.000107456
-1.91512e-06
6.37119e-14
-0.000105357
-5.45406e-06
3.77055e-14
-0.000101508
-1.04278e-05
6.78463e-15
-1.66417e-05
-2.54018e-14
-9.53946e-05
-0.000107216
2.06586e-05
-6.98543e-13
-0.000110464
1.42231e-05
-5.21555e-13
-0.000112349
9.39506e-06
-3.65591e-13
-0.000113413
6.06542e-06
-2.13331e-13
-0.000114013
3.91023e-06
-1.73963e-13
-0.000114364
2.59939e-06
-1.20456e-13
-0.000114587
1.87244e-06
-4.31261e-14
-0.000114755
1.54657e-06
-4.4963e-15
-0.000114908
1.49827e-06
1.24683e-14
-0.000115071
1.63935e-06
2.62814e-14
-0.000115259
1.89363e-06
4.04196e-14
-0.000115477
2.17437e-06
5.77064e-14
-0.000115716
2.36166e-06
7.8851e-14
-0.000115939
2.27901e-06
9.89354e-14
-0.000116064
1.67088e-06
1.05395e-13
-0.000115926
1.8644e-07
8.94992e-14
-0.000115231
-2.60965e-06
4.55251e-14
-0.000113503
-7.18229e-06
-1.03932e-14
-0.000110058
-1.38721e-05
-6.10146e-14
-2.26046e-05
-9.92732e-14
-0.000104094
-0.000112273
2.49142e-05
-6.61147e-13
-0.000114217
1.61655e-05
-5.28832e-13
-0.000114938
1.01143e-05
-4.15933e-13
-0.000115104
6.23111e-06
-2.36176e-13
-0.000115058
3.86383e-06
-1.92585e-13
-0.000114949
2.49026e-06
-1.6242e-13
-0.000114831
1.7542e-06
-6.99712e-14
-0.000114716
1.4318e-06
-4.95703e-15
-0.000114604
1.38538e-06
2.1936e-14
-0.000114489
1.52499e-06
3.28051e-14
-0.000114374
1.77861e-06
4.68807e-14
-0.000114267
2.06675e-06
6.88954e-14
-0.000114182
2.27733e-06
9.54353e-14
-0.000114141
2.23738e-06
1.11786e-13
-0.000114149
1.67941e-06
1.02829e-13
-0.000114165
2.01855e-07
5.79615e-14
-0.000114018
-2.75649e-06
-2.07363e-16
-0.000113293
-7.90719e-06
-4.71803e-14
-0.00011118
-1.5984e-05
-7.79958e-14
-2.73677e-05
-8.31388e-14
-0.000106413
-0.000109761
2.70626e-05
-5.44115e-13
-0.000109548
1.59481e-05
-4.43904e-13
-0.000108616
9.18052e-06
-3.65516e-13
-0.000107664
5.27805e-06
-2.09749e-13
-0.000106897
3.09685e-06
-1.55588e-13
-0.000106322
1.91492e-06
-2.06987e-13
-0.000105882
1.31392e-06
-1.40839e-13
-0.000105513
1.06334e-06
-5.09853e-14
-0.000105164
1.03677e-06
4.45707e-15
-0.0001048
1.1605e-06
2.9892e-14
-0.000104403
1.38129e-06
4.93282e-14
-0.000103979
1.64287e-06
7.36387e-14
-0.000103565
1.86337e-06
9.14923e-14
-0.000103235
1.90754e-06
8.74486e-14
-0.000103103
1.54658e-06
4.92733e-14
-0.000103296
3.9525e-07
-1.61877e-14
-0.000103878
-2.17407e-06
-5.45531e-14
-0.000104662
-7.12268e-06
-6.98218e-14
-0.000104852
-1.57909e-05
-6.79878e-14
-2.96718e-05
-2.65601e-15
-0.000102539
-9.83139e-05
2.5625e-05
-4.14318e-13
-9.51442e-05
1.27743e-05
-3.88268e-13
-9.23865e-05
6.42204e-06
-3.35682e-13
-9.04258e-05
3.31701e-06
-2.30384e-13
-8.91228e-05
1.79392e-06
-1.07625e-13
-8.82575e-05
1.04976e-06
-1.60564e-13
-8.76448e-05
7.01336e-07
-1.46466e-13
-8.71508e-05
5.69475e-07
-7.96729e-14
-8.66835e-05
5.69554e-07
-1.62503e-14
-8.61819e-05
6.59088e-07
2.60727e-14
-8.56123e-05
8.11715e-07
5.45816e-14
-8.49707e-05
1.00138e-06
7.44783e-14
-8.42955e-05
1.18817e-06
7.67113e-14
-8.36871e-05
1.29913e-06
4.74284e-14
-8.33353e-05
1.19464e-06
-1.8401e-14
-8.35407e-05
6.00573e-07
-6.45556e-14
-8.46817e-05
-1.03295e-06
-5.90792e-14
-8.70698e-05
-4.73504e-06
-3.34022e-14
-9.03705e-05
-1.24869e-05
-1.10018e-15
-2.78779e-05
6.45609e-14
-9.21501e-05
-7.5074e-05
1.80805e-05
-3.78004e-13
-6.87805e-05
6.48632e-06
-3.63157e-13
-6.48903e-05
2.53794e-06
-2.0892e-13
-6.26449e-05
1.07431e-06
-2.4829e-13
-6.13493e-05
4.99643e-07
-1.54866e-13
-6.05666e-05
2.67898e-07
-1.4399e-13
-6.00414e-05
1.76727e-07
-1.34043e-13
-5.96228e-05
1.51203e-07
-8.1164e-14
-5.92164e-05
1.63627e-07
-2.17163e-14
-5.87604e-05
2.03522e-07
2.38904e-14
-5.82146e-05
2.66387e-07
5.59391e-14
-5.75612e-05
3.48599e-07
7.21555e-14
-5.68158e-05
4.43513e-07
5.65003e-14
-5.60515e-05
5.35426e-07
3.4008e-15
-5.54422e-05
5.8576e-07
-6.78415e-14
-5.53445e-05
5.02783e-07
-7.68599e-14
-5.6349e-05
-3.01251e-08
-1.78494e-14
-5.9496e-05
-1.59578e-06
5.70719e-14
-6.58546e-05
-6.13865e-06
5.70247e-14
-1.93346e-05
1.31813e-13
-7.43824e-05
-3.4103e-05
-4.15561e-13
-2.76284e-05
-3.29764e-13
-2.50914e-05
-1.41769e-13
-2.40189e-05
-1.69704e-13
-2.35205e-05
-1.77992e-13
-2.32532e-05
-1.73998e-13
-2.30768e-05
-1.4411e-13
-2.29259e-05
-9.36555e-14
-2.27624e-05
-3.86062e-14
-2.25591e-05
8.41205e-15
-2.2293e-05
4.23905e-14
-2.19448e-05
5.21641e-14
-2.15017e-05
1.98061e-14
-2.09668e-05
-4.90578e-14
-2.03814e-05
-9.53266e-14
-1.98784e-05
-6.43848e-14
-1.99077e-05
4.362e-14
-2.15061e-05
8.97093e-14
-2.76396e-05
9.0261e-14
6.0406e-14
-4.68867e-05
-1.97992e-05
1.4376e-06
-2.1742e-09
-2.08545e-05
1.05685e-06
-1.52277e-09
-2.15927e-05
7.39162e-07
-1.00969e-09
-2.20909e-05
4.98889e-07
-6.38891e-10
-2.24227e-05
3.32194e-07
-3.93427e-10
-2.26494e-05
2.2691e-07
-2.45587e-10
-2.28188e-05
1.69592e-07
-1.68761e-10
-2.29676e-05
1.48948e-07
-1.42773e-10
-2.3124e-05
1.56541e-07
-1.53949e-10
-2.33097e-05
1.85946e-07
-1.93583e-10
-2.35406e-05
2.31136e-07
-2.55543e-10
-2.38248e-05
2.84476e-07
-3.33374e-10
-2.41589e-05
3.34513e-07
-4.17284e-10
-2.45222e-05
3.63854e-07
-4.91028e-10
-2.48694e-05
3.47675e-07
-5.27671e-10
-2.51228e-05
2.53953e-07
-4.83682e-10
-2.51704e-05
4.7859e-08
-3.04523e-10
-2.48675e-05
-3.02913e-07
4.34996e-11
-2.40613e-05
-8.06911e-07
6.56012e-10
-1.43857e-06
1.5785e-09
-2.26243e-05
-5.16738e-05
4.98036e-06
1.94072e-09
-5.42968e-05
3.67821e-06
1.62089e-09
-5.61524e-05
2.59347e-06
1.28309e-09
-5.74251e-05
1.77067e-06
9.81551e-10
-5.82888e-05
1.19516e-06
7.35499e-10
-5.88882e-05