/*--------------------------------*- C++ -*----------------------------------*\
| =========                 |                                                 |
| \\      /  F ield         | OpenFOAM: The Open Source CFD Toolbox           |
|  \\    /   O peration     | Version:  2.4.0                                 |
|   \\  /    A nd           | Web:      www.OpenFOAM.org                      |
|    \\/     M anipulation  |                                                 |
\*---------------------------------------------------------------------------*/
FoamFile
{
    version     2.0;
    format      ascii;
    class       volVectorField;
    location    "4";
    object      U;
}
// * * * * * * * * * * * * * * * * * * * * * * * * * * * * * * * * * * * * * //

dimensions      [0 1 -1 0 0 0 0];

internalField   nonuniform List<vector> 
4800
(
(0.000306747 -0.000310629 -3.85963e-07)
(1.79037e-05 0.00015695 0.000217236)
(-0.00184488 0.000665238 0.000445389)
(-0.00484017 0.00100883 0.000614604)
(-0.00857106 0.00120383 0.000680867)
(-0.0126955 0.00128804 0.000623743)
(-0.0169297 0.00128906 0.00043692)
(-0.0210352 0.0012208 0.000120898)
(-0.0248015 0.00109065 -0.000318301)
(-0.0280514 0.000910703 -0.000867756)
(-0.000182594 -1.97126e-05 -0.000217465)
(-0.00248526 0.00239471 4.91405e-06)
(-0.00807418 0.00475002 0.000174194)
(-0.0159604 0.00644873 0.00027528)
(-0.0253982 0.00748483 0.000290022)
(-0.0357073 0.00795137 0.000202455)
(-0.0462458 0.00793514 5.85618e-06)
(-0.0564323 0.00749649 -0.000302176)
(-0.0657472 0.0066912 -0.00072035)
(-0.0737636 0.00560924 -0.00124214)
(-0.000779785 0.00197298 -0.000451131)
(-0.0052223 0.00810372 -0.000157303)
(-0.0143206 0.0135634 1.29076e-05)
(-0.0263905 0.0175575 9.23179e-05)
(-0.0404273 0.0200443 8.95589e-05)
(-0.0555575 0.021154 -4.24689e-06)
(-0.0709105 0.0210299 -0.000193417)
(-0.0856605 0.0197953 -0.000481825)
(-0.0990476 0.0175987 -0.000872662)
(-0.110435 0.0146915 -0.00136564)
(-0.00125921 0.00539562 -0.000609789)
(-0.00750795 0.0166289 -0.000229414)
(-0.0195737 0.0259195 -3.51163e-05)
(-0.0350609 0.032624 4.64377e-05)
(-0.052724 0.0367746 4.60187e-05)
(-0.0715547 0.0385589 -3.92211e-05)
(-0.0905259 0.0381625 -0.000211893)
(-0.108629 0.0357567 -0.00047849)
(-0.124893 0.0315854 -0.000848506)
(-0.138458 0.0261056 -0.00133039)
(-0.0015882 0.00991585 -0.000618342)
(-0.00914324 0.0273652 -0.000162795)
(-0.0233916 0.0410226 5.71874e-05)
(-0.0413693 0.0506834 0.000151359)
(-0.0616336 0.056582 0.000166626)
(-0.0830805 0.058999 0.000103678)
(-0.104576 0.0581485 -4.09648e-05)
(-0.124968 0.0542127 -0.000279327)
(-0.143087 0.0474962 -0.000631082)
(-0.157777 0.0386624 -0.00112033)
(-0.00176045 0.0151409 -0.000427011)
(-0.010039 0.0395726 8.45735e-05)
(-0.0255252 0.0579757 0.000325888)
(-0.0449174 0.0707575 0.000440029)
(-0.0666501 0.0784501 0.000483553)
(-0.0895664 0.0814608 0.000457966)
(-0.112475 0.0800135 0.000355658)
(-0.13413 0.0742438 0.000155167)
(-0.153177 0.0644277 -0.000179004)
(-0.16804 0.0513501 -0.000701643)
(-0.00177601 0.0206447 -1.16855e-05)
(-0.0101589 0.0523925 0.000533772)
(-0.0258481 0.0757108 0.00078883)
(-0.0454641 0.0916816 0.000928137)
(-0.0674048 0.101183 0.00101191)
(-0.0905061 0.10477 0.00104039)
(-0.113576 0.102659 0.000998828)
(-0.135352 0.0948623 0.000852444)
(-0.154378 0.0814701 0.000544028)
(-0.168522 0.0631176 -4.27532e-05)
(-0.00164194 0.0259983 0.000628105)
(-0.00951884 0.064929 0.00118532)
(-0.0243623 0.093084 0.00144524)
(-0.0429566 0.112176 0.0016133)
(-0.0637328 0.123428 0.00174851)
(-0.0855476 0.127557 0.00184928)
(-0.107251 0.124769 0.00189229)
(-0.127657 0.114894 0.00182741)
(-0.145447 0.0976231 0.00157507)
(-0.15789 0.0728319 0.000901227)
(-0.00137847 0.0308003 0.00147005)
(-0.00820805 0.076324 0.00201966)
(-0.0212472 0.108961 0.00227534)
(-0.0376284 0.130915 0.00247329)
(-0.0558436 0.143698 0.00266796)
(-0.0747422 0.148201 0.00285723)
(-0.0931813 0.144673 0.00301)
(-0.110067 0.132801 0.00306018)
(-0.124603 0.111829 0.00291795)
(-0.133899 0.0800306 0.00214288)
(-0.00102531 0.0347235 0.00247153)
(-0.00641313 0.0858557 0.00299968)
(-0.0169179 0.122343 0.00324219)
(-0.0301281 0.146648 0.00346696)
(-0.0445722 0.160454 0.00372262)
(-0.0589775 0.164784 0.0040115)
(-0.0719901 0.159981 0.00430432)
(-0.0822168 0.145723 0.00453105)
(-0.0893672 0.121124 0.00465977)
(-0.0924315 0.0834785 0.00406483)
(0.000311921 -0.000314963 -3.84313e-08)
(2.52979e-05 0.000151135 1.33524e-06)
(-0.00184105 0.000651262 2.00876e-06)
(-0.00483751 0.000989073 2.58387e-06)
(-0.00856955 0.0011809 2.92772e-06)
(-0.0126949 0.00126356 3.07044e-06)
(-0.0169299 0.00126452 3.08049e-06)
(-0.0210362 0.00119757 2.96014e-06)
(-0.0248037 0.00106984 2.68886e-06)
(-0.0280547 0.000892958 2.24831e-06)
(-0.000175136 -2.67822e-05 -1.14358e-06)
(-0.00248211 0.00239284 3.05637e-07)
(-0.00808166 0.00473883 -1.17773e-06)
(-0.0159651 0.00643236 -1.863e-06)
(-0.0254006 0.00746663 -2.20638e-06)
(-0.0357079 0.00793232 -2.42204e-06)
(-0.0462448 0.00791622 -2.42885e-06)
(-0.0564302 0.00747874 -2.25767e-06)
(-0.0657451 0.0066755 -1.97985e-06)
(-0.0737624 0.00559566 -1.70791e-06)
(-0.000763728 0.00196748 -1.95922e-06)
(-0.00521098 0.00811037 1.75759e-06)
(-0.0143276 0.0135666 7.84872e-08)
(-0.0263927 0.0175608 -7.52527e-08)
(-0.0404273 0.0200495 9.04209e-08)
(-0.0555573 0.0211603 8.50566e-08)
(-0.0709096 0.0210366 9.47733e-08)
(-0.0856592 0.0198022 1.41265e-07)
(-0.0990473 0.0176056 1.9498e-07)
(-0.110437 0.0146972 1.20005e-07)
(-0.00123617 0.00539077 -2.84421e-06)
(-0.00749155 0.0166331 2.48062e-06)
(-0.0195828 0.0259186 -1.49168e-08)
(-0.0350628 0.0326213 -2.23765e-07)
(-0.052723 0.0367724 6.35951e-08)
(-0.0715538 0.0385571 9.7252e-08)
(-0.0905244 0.0381611 1.2975e-07)
(-0.108627 0.0357563 2.13241e-07)
(-0.124893 0.0315872 3.69889e-07)
(-0.138463 0.0261077 3.26232e-07)
(-0.00156059 0.00991279 -3.47643e-06)
(-0.00912463 0.0273676 2.91951e-06)
(-0.0234043 0.0410206 -3.38057e-07)
(-0.0413724 0.0506793 -7.25386e-07)
(-0.0616327 0.0565774 -4.40016e-07)
(-0.0830793 0.0589943 -4.19856e-07)
(-0.104573 0.0581439 -3.74821e-07)
(-0.124964 0.0542095 -2.20925e-07)
(-0.143085 0.0474975 2.32349e-07)
(-0.157785 0.0386658 4.57646e-07)
(-0.00173031 0.01514 -3.78674e-06)
(-0.0100194 0.039574 3.2333e-06)
(-0.0255402 0.0579746 -4.40973e-07)
(-0.0449215 0.070755 -9.2175e-07)
(-0.0666495 0.078447 -6.40546e-07)
(-0.0895654 0.0814571 -6.36222e-07)
(-0.112472 0.0800093 -6.21919e-07)
(-0.134123 0.0742401 -5.00694e-07)
(-0.15317 0.0644322 4.01379e-07)
(-0.168055 0.0513621 1.2752e-06)
(-0.00174558 0.020646 -3.78723e-06)
(-0.0101396 0.0523927 3.3189e-06)
(-0.0258642 0.0757106 -4.7099e-07)
(-0.0454691 0.0916808 -1.00795e-06)
(-0.0674048 0.101181 -7.6946e-07)
(-0.0905059 0.104767 -7.98219e-07)
(-0.113574 0.102655 -8.84027e-07)
(-0.135339 0.0948575 -1.05927e-06)
(-0.15436 0.0814808 5.27059e-07)
(-0.168552 0.063156 3.24075e-06)
(-0.00161334 0.0260016 -3.49732e-06)
(-0.00950101 0.0649283 3.18595e-06)
(-0.0243783 0.0930848 -4.29661e-07)
(-0.0429621 0.112177 -9.79856e-07)
(-0.0637336 0.123428 -8.02085e-07)
(-0.0855485 0.127556 -8.1569e-07)
(-0.10725 0.124765 -9.23908e-07)
(-0.127634 0.114878 -1.63741e-06)
(-0.145395 0.097619 1.55827e-06)
(-0.157937 0.0728932 1.12825e-05)
(-0.00135357 0.0308053 -2.91615e-06)
(-0.00819275 0.0763228 2.88773e-06)
(-0.0212617 0.108963 -2.97834e-07)
(-0.0376341 0.130919 -8.20707e-07)
(-0.0558456 0.143702 -7.52968e-07)
(-0.0747466 0.148204 -8.14838e-07)
(-0.0931923 0.14467 -1.09364e-06)
(-0.110049 0.132767 -3.82488e-06)
(-0.124497 0.111754 -1.14007e-06)
(-0.133947 0.0800003 2.53279e-05)
(-0.00100539 0.0347296 -2.11534e-06)
(-0.00640078 0.0858543 2.4941e-06)
(-0.0169293 0.122347 -5.36938e-08)
(-0.0301322 0.146656 -4.68589e-07)
(-0.0445735 0.160467 -4.96982e-07)
(-0.0589842 0.164807 -7.26913e-07)
(-0.0720234 0.160025 -1.54127e-06)
(-0.0822583 0.145788 -9.51374e-06)
(-0.0892772 0.121187 -2.22537e-05)
(-0.0925106 0.0835979 7.64255e-06)
(0.000311968 -0.000314916 -9.11193e-08)
(2.53727e-05 0.000151165 -1.38513e-06)
(-0.001841 0.000651275 -2.03733e-06)
(-0.00483749 0.000989079 -2.60297e-06)
(-0.00856954 0.0011809 -2.94075e-06)
(-0.0126949 0.00126356 -3.07949e-06)
(-0.0169299 0.00126452 -3.0869e-06)
(-0.0210362 0.00119757 -2.96473e-06)
(-0.0248037 0.00106984 -2.69218e-06)
(-0.0280547 0.000892958 -2.25072e-06)
(-0.000175106 -2.67074e-05 1.09393e-06)
(-0.00248206 0.00239289 -3.39848e-07)
(-0.00808162 0.00473885 1.15239e-06)
(-0.0159651 0.00643238 1.84472e-06)
(-0.0254005 0.00746663 2.19331e-06)
(-0.0357079 0.00793232 2.41275e-06)
(-0.0462448 0.00791622 2.42221e-06)
(-0.0564302 0.00747874 2.25289e-06)
(-0.0657451 0.0066755 1.97638e-06)
(-0.0737624 0.00559566 1.7054e-06)
(-0.000763714 0.00196752 1.93087e-06)
(-0.00521095 0.00811041 -1.78277e-06)
(-0.0143275 0.0135666 -9.88384e-08)
(-0.0263927 0.0175608 5.98939e-08)
(-0.0404273 0.0200495 -1.01961e-07)
(-0.0555573 0.0211603 -9.35467e-08)
(-0.0709096 0.0210366 -1.01004e-07)
(-0.0856592 0.0198022 -1.45861e-07)
(-0.0990473 0.0176056 -1.98388e-07)
(-0.110437 0.0146972 -1.2253e-07)
(-0.00123617 0.00539079 2.82555e-06)
(-0.00749154 0.0166331 -2.49852e-06)
(-0.0195828 0.0259186 -6.45275e-10)
(-0.0350628 0.0326213 2.1152e-07)
(-0.0527229 0.0367724 -7.31892e-08)
(-0.0715538 0.0385571 -1.0453e-07)
(-0.0905244 0.0381611 -1.3523e-07)
(-0.108627 0.0357563 -2.17402e-07)
(-0.124893 0.0315872 -3.73069e-07)
(-0.138463 0.0261077 -3.28655e-07)
(-0.00156058 0.0099128 3.46381e-06)
(-0.00912462 0.0273676 -2.93171e-06)
(-0.0234043 0.0410206 3.26735e-07)
(-0.0413724 0.0506793 7.16093e-07)
(-0.0616327 0.0565774 4.32418e-07)
(-0.0830793 0.0589943 4.13873e-07)
(-0.104573 0.0581439 3.70148e-07)
(-0.124964 0.0542095 2.1723e-07)
(-0.143085 0.0474975 -2.35291e-07)
(-0.157785 0.0386658 -4.59967e-07)
(-0.0017303 0.01514 3.77766e-06)
(-0.0100194 0.039574 -3.24221e-06)
(-0.0255402 0.0579746 4.32499e-07)
(-0.0449215 0.070755 9.14548e-07)
(-0.0666495 0.078447 6.34459e-07)
(-0.0895654 0.0814572 6.31246e-07)
(-0.112472 0.0800093 6.17849e-07)
(-0.134123 0.0742401 4.97318e-07)
(-0.15317 0.0644322 -4.04173e-07)
(-0.168055 0.0513621 -1.27746e-06)
(-0.00174558 0.020646 3.78077e-06)
(-0.0101396 0.0523927 -3.32555e-06)
(-0.0258642 0.0757106 4.64786e-07)
(-0.0454691 0.0916808 1.00249e-06)
(-0.0674048 0.101181 7.64631e-07)
(-0.0905059 0.104767 7.94087e-07)
(-0.113574 0.102655 8.8049e-07)
(-0.135339 0.0948575 1.05623e-06)
(-0.15436 0.0814808 -5.29604e-07)
(-0.168552 0.0631561 -3.24278e-06)
(-0.00161334 0.0260016 3.49281e-06)
(-0.00950101 0.0649283 -3.19066e-06)
(-0.0243783 0.0930848 4.2515e-07)
(-0.0429621 0.112177 9.75719e-07)
(-0.0637336 0.123428 7.98254e-07)
(-0.0855485 0.127556 8.1227e-07)
(-0.10725 0.124765 9.20894e-07)
(-0.127634 0.114878 1.63481e-06)
(-0.145395 0.097619 -1.56041e-06)
(-0.157937 0.0728932 -1.12841e-05)
(-0.00135357 0.0308054 2.91299e-06)
(-0.00819275 0.0763228 -2.89123e-06)
(-0.0212617 0.108963 2.94491e-07)
(-0.0376341 0.130919 8.17547e-07)
(-0.0558456 0.143702 7.49927e-07)
(-0.0747466 0.148204 8.1204e-07)
(-0.0931923 0.14467 1.09117e-06)
(-0.110049 0.132767 3.82279e-06)
(-0.124497 0.111754 1.13836e-06)
(-0.133947 0.0800003 -2.53292e-05)
(-0.00100539 0.0347296 2.11305e-06)
(-0.00640078 0.0858543 -2.49667e-06)
(-0.0169293 0.122347 5.1226e-08)
(-0.0301322 0.146656 4.6618e-07)
(-0.0445735 0.160467 4.94584e-07)
(-0.0589842 0.164807 7.24672e-07)
(-0.0720234 0.160025 1.53935e-06)
(-0.0822583 0.145788 9.5122e-06)
(-0.0892772 0.121187 2.22524e-05)
(-0.0925106 0.0835979 -7.64366e-06)
(0.000307007 -0.000310368 5.22157e-07)
(1.82743e-05 0.000157067 -0.000217184)
(-0.00184472 0.000665281 -0.000445359)
(-0.00484009 0.00100884 -0.000614584)
(-0.00857102 0.00120384 -0.000680854)
(-0.0126955 0.00128804 -0.000623733)
(-0.0169297 0.00128906 -0.000436913)
(-0.0210352 0.0012208 -0.000120893)
(-0.0248015 0.00109065 0.000318304)
(-0.0280514 0.000910704 0.000867759)
(-0.000182478 -1.93417e-05 0.000217517)
(-0.00248507 0.00239491 -4.87788e-06)
(-0.00807404 0.00475011 -0.000174167)
(-0.0159603 0.00644877 -0.00027526)
(-0.0253982 0.00748485 -0.000290008)
(-0.0357072 0.00795138 -0.000202445)
(-0.0462458 0.00793515 -5.84916e-06)
(-0.0564323 0.00749649 0.000302181)
(-0.0657471 0.0066912 0.000720353)
(-0.0737636 0.00560924 0.00124214)
(-0.000779742 0.00197314 0.000451161)
(-0.00522222 0.00810385 0.000157329)
(-0.0143206 0.0135635 -1.2886e-05)
(-0.0263905 0.0175576 -9.23017e-05)
(-0.0404272 0.0200443 -8.95467e-05)
(-0.0555575 0.0211541 4.25586e-06)
(-0.0709104 0.0210299 0.000193424)
(-0.0856604 0.0197953 0.00048183)
(-0.0990475 0.0175987 0.000872666)
(-0.110435 0.0146915 0.00136564)
(-0.00125919 0.0053957 0.000609809)
(-0.0075079 0.016629 0.000229433)
(-0.0195736 0.0259195 3.51328e-05)
(-0.0350608 0.032624 -4.64247e-05)
(-0.0527239 0.0367747 -4.60086e-05)
(-0.0715547 0.0385589 3.92288e-05)
(-0.0905258 0.0381625 0.000211899)
(-0.108628 0.0357567 0.000478495)
(-0.124893 0.0315854 0.000848509)
(-0.138458 0.0261056 0.00133039)
(-0.00158819 0.0099159 0.000618356)
(-0.00914322 0.0273652 0.000162808)
(-0.0233916 0.0410227 -5.71754e-05)
(-0.0413693 0.0506835 -0.000151349)
(-0.0616336 0.056582 -0.000166618)
(-0.0830805 0.058999 -0.000103671)
(-0.104576 0.0581485 4.09698e-05)
(-0.124968 0.0542127 0.000279331)
(-0.143087 0.0474962 0.000631085)
(-0.157777 0.0386624 0.00112033)
(-0.00176045 0.0151409 0.000427021)
(-0.010039 0.0395727 -8.45641e-05)
(-0.0255252 0.0579757 -0.000325879)
(-0.0449173 0.0707575 -0.000440021)
(-0.0666501 0.0784502 -0.000483546)
(-0.0895663 0.0814608 -0.00045796)
(-0.112475 0.0800135 -0.000355654)
(-0.13413 0.0742438 -0.000155164)
(-0.153177 0.0644277 0.000179007)
(-0.16804 0.0513501 0.000701645)
(-0.00177601 0.0206448 1.16923e-05)
(-0.0101589 0.0523925 -0.000533765)
(-0.0258481 0.0757108 -0.000788824)
(-0.0454641 0.0916816 -0.000928131)
(-0.0674047 0.101183 -0.0010119)
(-0.0905061 0.10477 -0.00104038)
(-0.113576 0.102659 -0.000998824)
(-0.135352 0.0948623 -0.00085244)
(-0.154378 0.0814701 -0.000544025)
(-0.168522 0.0631176 4.27553e-05)
(-0.00164194 0.0259984 -0.0006281)
(-0.00951883 0.0649291 -0.00118531)
(-0.0243623 0.093084 -0.00144524)
(-0.0429566 0.112176 -0.0016133)
(-0.0637328 0.123428 -0.00174851)
(-0.0855476 0.127557 -0.00184928)
(-0.107251 0.124769 -0.00189228)
(-0.127657 0.114894 -0.00182741)
(-0.145447 0.0976231 -0.00157507)
(-0.15789 0.0728319 -0.000901225)
(-0.00137847 0.0308003 -0.00147005)
(-0.00820805 0.076324 -0.00201965)
(-0.0212472 0.108961 -0.00227534)
(-0.0376284 0.130915 -0.00247329)
(-0.0558436 0.143698 -0.00266796)
(-0.0747421 0.148201 -0.00285722)
(-0.0931813 0.144673 -0.00301)
(-0.110067 0.132801 -0.00306018)
(-0.124603 0.111829 -0.00291795)
(-0.133899 0.0800306 -0.00214288)
(-0.00102531 0.0347236 -0.00247153)
(-0.00641313 0.0858558 -0.00299967)
(-0.0169179 0.122343 -0.00324219)
(-0.0301281 0.146648 -0.00346695)
(-0.0445722 0.160454 -0.00372262)
(-0.0589775 0.164784 -0.0040115)
(-0.0719901 0.159981 -0.00430431)
(-0.0822168 0.145723 -0.00453105)
(-0.0893672 0.121124 -0.00465977)
(-0.0924315 0.0834785 -0.00406483)
(-0.0306718 0.000706469 -0.00150675)
(-0.0326485 0.000512181 -0.00220979)
(-0.0340578 0.000350801 -0.00295395)
(-0.0350199 0.00023021 -0.00372194)
(-0.03566 0.000148198 -0.00450232)
(-0.0360873 9.80739e-05 -0.00528841)
(-0.0363892 7.26641e-05 -0.00607703)
(-0.0366324 6.62396e-05 -0.00686745)
(-0.0368679 7.48825e-05 -0.00766076)
(-0.0371353 9.59909e-05 -0.00845969)
(-0.0374649 0.000127336 -0.00926866)
(-0.0378768 0.000165861 -0.0100939)
(-0.0383764 0.000206315 -0.0109433)
(-0.0389469 0.000239813 -0.0118268)
(-0.0395376 0.000252632 -0.0127544)
(-0.0400519 0.000225864 -0.0137357)
(-0.0403374 0.000137276 -0.0147759)
(-0.0401841 -3.2836e-05 -0.0158727)
(-0.0393437 -0.00029639 -0.0170101)
(-0.037577 -0.00064145 -0.0181558)
(-0.0802225 0.00440296 -0.00185382)
(-0.0851092 0.00325758 -0.00253556)
(-0.0886217 0.00229642 -0.00326886)
(-0.0910526 0.00156406 -0.00403837)
(-0.0926994 0.00105125 -0.00483229)
(-0.0938203 0.000723373 -0.00564238)
(-0.0946203 0.000541002 -0.00646344)
(-0.0952557 0.000470187 -0.00729283)
(-0.0958433 0.000484807 -0.00813003)
(-0.0964693 0.00056435 -0.00897637)
(-0.0971936 0.000689304 -0.00983488)
(-0.0980471 0.000835356 -0.0107102)
(-0.0990231 0.000967072 -0.0116084)
(-0.100061 0.00103198 -0.0125365)
(-0.101026 0.000956722 -0.0135017)
(-0.101685 0.000648472 -0.0145098)
(-0.101692 6.37771e-06 -0.0155631)
(-0.100598 -0.00105229 -0.016657)
(-0.0978858 -0.0025539 -0.0177776)
(-0.0930728 -0.00441501 -0.0188973)
(-0.119441 0.0114875 -0.00195157)
(-0.126096 0.00848088 -0.00261027)
(-0.130771 0.00598182 -0.00332422)
(-0.133945 0.0040887 -0.00407875)
(-0.136062 0.00276438 -0.00486184)
(-0.137487 0.00191211 -0.00566466)
(-0.138491 0.00142664 -0.00648125)
(-0.139276 0.00121793 -0.00730812)
(-0.139983 0.00121565 -0.00814385)
(-0.140715 0.00136305 -0.00898879)
(-0.141536 0.00160575 -0.00984487)
(-0.142477 0.00187808 -0.0107154)
(-0.14352 0.00208884 -0.0116049)
(-0.14458 0.00210846 -0.0125187)
(-0.145483 0.00176157 -0.0134625)
(-0.145934 0.000831924 -0.0144414)
(-0.145492 -0.000910112 -0.0154582)
(-0.143574 -0.00364888 -0.0165112)
(-0.13949 -0.00742748 -0.0175911)
(-0.132564 -0.0120329 -0.0186771)
(-0.148792 0.0201174 -0.00191882)
(-0.156031 0.0146177 -0.00258391)
(-0.160838 0.0101601 -0.00330509)
(-0.163933 0.00685985 -0.00406654)
(-0.165902 0.00459299 -0.00485548)
(-0.167172 0.00315076 -0.00566286)
(-0.168037 0.00232892 -0.00648269)
(-0.168691 0.00196223 -0.0073114)
(-0.169267 0.00192598 -0.00814725)
(-0.169851 0.00212205 -0.00899003)
(-0.1705 0.0024586 -0.00984073)
(-0.171236 0.00282727 -0.0107015)
(-0.172043 0.00307964 -0.0115753)
(-0.172848 0.00300577 -0.0124664)
(-0.173495 0.0023199 -0.0133797)
(-0.173702 0.000664117 -0.014321)
(-0.173029 -0.00235296 -0.0152959)
(-0.170836 -0.00706445 -0.0163086)
(-0.166295 -0.0135852 -0.0173585)
(-0.158477 -0.0215934 -0.0184359)
(-0.168238 0.0290488 -0.00174826)
(-0.174804 0.0205055 -0.00245522)
(-0.178659 0.0138618 -0.00321328)
(-0.180846 0.00913077 -0.00400485)
(-0.182071 0.00598622 -0.00481651)
(-0.18277 0.00403446 -0.00564003)
(-0.183194 0.00293735 -0.00647064)
(-0.183487 0.00244317 -0.00730569)
(-0.183731 0.00237367 -0.00814387)
(-0.183976 0.00259608 -0.00898476)
(-0.184253 0.00299162 -0.00982859)
(-0.184579 0.00342321 -0.0106762)
(-0.184953 0.00370277 -0.0115291)
(-0.185345 0.00355909 -0.0123899)
(-0.185671 0.00261116 -0.0132627)
(-0.18575 0.000358369 -0.0141542)
(-0.185236 -0.00378775 -0.0150741)
(-0.183532 -0.0103933 -0.0160351)
(-0.179703 -0.0197803 -0.0170502)
(-0.172444 -0.0316516 -0.0181301)
(-0.177362 0.0370536 -0.00143273)
(-0.181851 0.02497 -0.00223174)
(-0.183634 0.0161523 -0.00306166)
(-0.184162 0.0102329 -0.00390696)
(-0.184174 0.00649069 -0.00475619)
(-0.184016 0.00425769 -0.00560478)
(-0.183825 0.00303651 -0.00645137)
(-0.183637 0.00249334 -0.00729563)
(-0.183457 0.00241131 -0.00813748)
(-0.183275 0.00264134 -0.00897673)
(-0.18309 0.00305858 -0.00981295)
(-0.182907 0.00352279 -0.0106456)
(-0.182747 0.00383856 -0.0114743)
(-0.182641 0.0037128 -0.0122994)
(-0.182621 0.00270979 -0.0131234)
(-0.18268 0.000211256 -0.013953)
(-0.182686 -0.00459252 -0.014802)
(-0.182233 -0.0126157 -0.0156923)
(-0.180401 -0.0246346 -0.016656)
(-0.175387 -0.0407121 -0.0177432)
(-0.175215 0.0426331 -0.000992636)
(-0.175969 0.0266776 -0.00195262)
(-0.174619 0.0161287 -0.00288938)
(-0.172972 0.00964043 -0.00380524)
(-0.171572 0.00582793 -0.00469839)
(-0.170513 0.00368169 -0.00557354)
(-0.169725 0.00255846 -0.00643582)
(-0.1691 0.00207657 -0.0072886)
(-0.168543 0.00201337 -0.0081336)
(-0.167982 0.00223097 -0.008971)
(-0.167375 0.00262418 -0.00979969)
(-0.16671 0.00307905 -0.0106175)
(-0.166019 0.00343238 -0.0114216)
(-0.165388 0.00342395 -0.0122095)
(-0.164972 0.00263382 -0.0129803)
(-0.164983 0.00039899 -0.0137384)
(-0.165618 -0.00427686 -0.0144995)
(-0.166896 -0.0127422 -0.0152942)
(-0.16825 -0.0265794 -0.0161766)
(-0.16743 -0.0469347 -0.0172696)
(-0.159802 0.0436153 -0.000485728)
(-0.154876 0.0240266 -0.00169078)
(-0.149724 0.0130404 -0.00275659)
(-0.145964 0.00713724 -0.00374323)
(-0.143437 0.00402436 -0.00467167)
(-0.14178 0.00241655 -0.00556392)
(-0.140656 0.00163022 -0.0064346)
(-0.139812 0.00131586 -0.00729119)
(-0.139071 0.00129528 -0.00813688)
(-0.138313 0.00147214 -0.00897185)
(-0.137463 0.00178205 -0.00979399)
(-0.136488 0.00215915 -0.0105992)
(-0.135409 0.00250495 -0.011382)
(-0.134327 0.00264771 -0.0121358)
(-0.133469 0.00227689 -0.0128549)
(-0.133226 0.000827384 -0.0135383)
(-0.134155 -0.00271138 -0.014201)
(-0.136945 -0.0100236 -0.0148761)
(-0.142084 -0.0238115 -0.0156341)
(-0.147631 -0.0477334 -0.0167103)
(-0.126694 0.037479 -0.000203124)
(-0.114365 0.0161069 -0.0016803)
(-0.106151 0.00712279 -0.00279417)
(-0.10156 0.00331326 -0.0037884)
(-0.0989411 0.00165054 -0.00470954)
(-0.0973977 0.000915472 -0.00559228)
(-0.0964226 0.000600583 -0.00645616)
(-0.0957114 0.000495888 -0.00730876)
(-0.0950796 0.000514513 -0.00815214)
(-0.0944083 0.000619119 -0.00898511)
(-0.0936172 0.000790526 -0.00980389)
(-0.0926578 0.0010116 -0.0106022)
(-0.0915218 0.00125389 -0.0113711)
(-0.0902676 0.00145791 -0.0120994)
(-0.0890757 0.0014926 -0.0127734)
(-0.0883398 0.00106333 -0.0133821)
(-0.0887467 -0.000511137 -0.0139335)
(-0.0916099 -0.00485195 -0.0144329)
(-0.0994149 -0.0155288 -0.0149244)
(-0.113251 -0.0405693 -0.0158041)
(-0.064477 0.0229642 -0.000854156)
(-0.0481059 0.00662213 -0.00232388)
(-0.0413947 0.00201987 -0.00307779)
(-0.0389611 0.000649353 -0.00382625)
(-0.0379042 0.000223879 -0.00459105)
(-0.0373642 9.34845e-05 -0.00536873)
(-0.0370421 5.84769e-05 -0.00615703)
(-0.0367983 5.78046e-05 -0.00695077)
(-0.0365582 7.45029e-05 -0.00774494)
(-0.0362733 0.000105219 -0.0085345)
(-0.0359042 0.000150726 -0.00931323)
(-0.0354166 0.000212926 -0.0100725)
(-0.0347826 0.000293243 -0.0108001)
(-0.0339889 0.000389328 -0.0114781)
(-0.0330583 0.000484689 -0.0120814)
(-0.0321019 0.000516903 -0.012574)
(-0.0314634 0.00026119 -0.0129085)
(-0.0321058 -0.00113956 -0.0130483)
(-0.0377232 -0.00641488 -0.0128724)
(-0.0564356 -0.0257047 -0.0130131)
(-0.0306754 0.000691925 1.69231e-06)
(-0.0326516 0.000500899 1.18523e-06)
(-0.0340601 0.000342464 7.85829e-07)
(-0.0350214 0.000224255 4.97174e-07)
(-0.0356608 0.000144017 3.06099e-07)
(-0.0360877 9.51026e-05 1.91031e-07)
(-0.0363893 7.04231e-05 1.31252e-07)
(-0.0366323 6.4342e-05 1.11053e-07)
(-0.0368677 7.30261e-05 1.19789e-07)
(-0.037135 9.39488e-05 1.50681e-07)
(-0.0374644 0.000124957 1.98963e-07)
(-0.0378762 0.000163087 2.59613e-07)
(-0.0383758 0.000203216 3.25004e-07)
(-0.0389463 0.00023664 3.82479e-07)
(-0.0395372 0.000249883 4.11057e-07)
(-0.0400519 0.000224335 3.76829e-07)
(-0.0403381 0.000138038 2.37306e-07)
(-0.0401861 -2.85894e-05 -3.37577e-08)
(-0.0393475 -0.000287394 -5.10856e-07)
(-0.0375826 -0.000626961 -1.22942e-06)
(-0.0802216 0.00439093 -1.51074e-06)
(-0.0851076 0.00324771 -1.26162e-06)
(-0.0886197 0.00228887 -9.98621e-07)
(-0.0910506 0.00155854 -7.63915e-07)
(-0.0926977 0.00104734 -5.72411e-07)
(-0.093819 0.000720619 -4.31579e-07)
(-0.0946194 0.000539007 -3.41141e-07)
(-0.0952551 0.000468614 -2.95358e-07)
(-0.095843 0.000483389 -2.86116e-07)
(-0.0964692 0.000562878 -3.03932e-07)
(-0.0971935 0.000687624 -3.3725e-07)
(-0.0980469 0.000833375 -3.70773e-07)
(-0.0990224 0.000964784 -3.8365e-07)
(-0.10006 0.0010295 -3.4825e-07)
(-0.101023 0.000954381 -2.30569e-07)
(-0.101681 0.00064684 5.00846e-09)
(-0.101688 6.27015e-06 3.81781e-07)
(-0.100593 -0.00104987 8.91072e-07)
(-0.0978813 -0.00254789 1.50122e-06)
(-0.0930701 -0.00440533 2.07517e-06)
(-0.119443 0.0114896 -1.86294e-07)
(-0.126096 0.00848128 -3.24593e-07)
(-0.13077 0.00598178 -3.56381e-07)
(-0.133943 0.00408859 -3.39261e-07)
(-0.136061 0.00276437 -2.90368e-07)
(-0.137485 0.00191228 -2.32299e-07)
(-0.13849 0.00142699 -1.79545e-07)
(-0.139275 0.00121846 -1.3774e-07)
(-0.139982 0.00121636 -1.07612e-07)
(-0.140714 0.00136395 -8.71733e-08)
(-0.141536 0.0016068 -7.29492e-08)
(-0.142477 0.00187921 -6.04973e-08)
(-0.143519 0.0020899 -4.45239e-08)
(-0.144579 0.00210924 -1.84884e-08)
(-0.145481 0.00176182 2.63155e-08)
(-0.145932 0.00083138 9.71854e-08)
(-0.14549 -0.000911714 1.90079e-07)
(-0.143572 -0.00365149 2.98883e-07)
(-0.139489 -0.00743097 4.10986e-07)
(-0.132566 -0.0120388 3.49795e-07)
(-0.148797 0.0201139 -2.96455e-07)
(-0.156032 0.0146138 -4.77916e-07)
(-0.160837 0.0101575 -4.75264e-07)
(-0.163931 0.00685843 -4.22955e-07)
(-0.1659 0.00459244 -3.37105e-07)
(-0.16717 0.00315076 -2.49856e-07)
(-0.168035 0.00232921 -1.77313e-07)
(-0.16869 0.00196266 -1.22279e-07)
(-0.169266 0.00192646 -8.3092e-08)
(-0.16985 0.00212254 -5.6634e-08)
(-0.170499 0.00245906 -3.96459e-08)
(-0.171235 0.00282762 -2.91531e-08)
(-0.172042 0.0030798 -2.23416e-08)
(-0.172848 0.00300563 -1.48084e-08)
(-0.173494 0.00231943 4.47267e-09)
(-0.173701 0.000663395 4.76541e-08)
(-0.173026 -0.00235375 1.01411e-07)
(-0.170833 -0.00706444 2.02748e-07)
(-0.166295 -0.0135828 3.96705e-07)
(-0.158483 -0.0215906 3.50391e-07)
(-0.168246 0.0290399 -8.05561e-07)
(-0.174804 0.0204979 -9.03593e-07)
(-0.178656 0.0138581 -7.33078e-07)
(-0.180843 0.00912941 -5.73654e-07)
(-0.182068 0.00598618 -4.04349e-07)
(-0.182767 0.00403502 -2.66187e-07)
(-0.183192 0.00293807 -1.70258e-07)
(-0.183486 0.00244387 -1.08225e-07)
(-0.18373 0.00237426 -7.08821e-08)
(-0.183975 0.00259655 -5.09942e-08)
(-0.184252 0.00299195 -4.35353e-08)
(-0.184578 0.00342339 -4.51759e-08)
(-0.184952 0.00370273 -5.34655e-08)
(-0.185344 0.00355879 -6.35236e-08)
(-0.18567 0.00261062 -5.62915e-08)
(-0.185748 0.000357831 -4.94972e-09)
(-0.185233 -0.0037878 4.9025e-08)
(-0.183526 -0.0103911 1.99655e-07)
(-0.179699 -0.0197717 6.98177e-07)
(-0.172453 -0.0316386 1.00205e-06)
(-0.177378 0.0370356 -1.71825e-06)
(-0.181846 0.0249578 -1.46836e-06)
(-0.183627 0.0161487 -9.21732e-07)
(-0.184156 0.0102327 -6.17622e-07)
(-0.18417 0.00649183 -3.63648e-07)
(-0.184014 0.00425916 -1.92149e-07)
(-0.183823 0.00303782 -9.53198e-08)
(-0.183636 0.00249437 -4.38975e-08)
(-0.183456 0.00241211 -1.87894e-08)
(-0.183275 0.00264195 -9.19003e-09)
(-0.18309 0.00305905 -9.74607e-09)
(-0.182907 0.00352312 -1.85618e-08)
(-0.182747 0.00383872 -3.57836e-08)
(-0.18264 0.0037127 -6.07329e-08)
(-0.18262 0.00270943 -7.55805e-08)
(-0.182678 0.000210972 -4.55307e-08)
(-0.182681 -0.00459194 -2.47206e-08)
(-0.182222 -0.0126118 1.09997e-07)
(-0.18039 -0.0246182 1.20169e-06)
(-0.175404 -0.0406843 2.54586e-06)
(-0.175248 0.0426083 -4.56855e-06)
(-0.175954 0.0266695 -3.0208e-06)
(-0.174603 0.0161323 -1.39858e-06)
(-0.172963 0.00964478 -7.29467e-07)
(-0.171567 0.00583148 -3.1018e-07)
(-0.170511 0.00368433 -9.62583e-08)
(-0.169724 0.00256028 -1.20554e-08)
(-0.1691 0.00207785 1.56852e-08)
(-0.168543 0.00201437 1.91644e-08)
(-0.167982 0.00223186 1.15032e-08)
(-0.167375 0.00262505 -2.84965e-09)
(-0.16671 0.00307994 -2.34545e-08)
(-0.166019 0.00343322 -5.13641e-08)
(-0.165388 0.00342451 -8.91923e-08)
(-0.164971 0.00263383 -1.17972e-07)
(-0.16498 0.000398438 -6.03722e-08)
(-0.165611 -0.00427838 7.23099e-08)
(-0.166875 -0.0127447 3.63128e-07)
(-0.168224 -0.0265679 2.90669e-06)
(-0.167462 -0.0468989 6.99699e-06)
(-0.159862 0.0435741 -7.75853e-06)
(-0.154844 0.0240369 -3.15793e-06)
(-0.149705 0.0130622 -6.433e-07)
(-0.145959 0.00714958 -2.44233e-07)
(-0.143435 0.00403066 3.16235e-08)
(-0.141779 0.00241997 1.28514e-07)
(-0.140656 0.00163218 1.21622e-07)
(-0.139812 0.00131722 1.00156e-07)
(-0.139071 0.00129653 8.31249e-08)
(-0.138313 0.00147355 7.11917e-08)
(-0.137463 0.00178378 6.14096e-08)
(-0.136488 0.00216124 4.91006e-08)
(-0.135409 0.00250732 2.6912e-08)
(-0.134328 0.00264993 -2.5695e-08)
(-0.133469 0.00227806 -1.02659e-07)
(-0.133226 0.000825969 -3.33496e-08)
(-0.134154 -0.00271988 9.67081e-08)
(-0.136924 -0.0100461 -3.60971e-07)
(-0.142038 -0.0238247 2.56796e-06)
(-0.147691 -0.0476774 1.11758e-05)
(-0.126767 0.0372819 -9.69135e-06)
(-0.114297 0.0160472 4.29474e-06)
(-0.106139 0.00711169 4.81315e-06)
(-0.10157 0.00330604 2.05861e-06)
(-0.0989464 0.00164516 1.06654e-06)
(-0.0974002 0.000912118 6.48091e-07)
(-0.0964239 0.000598377 4.08342e-07)
(-0.0957118 0.000494236 3.10095e-07)
(-0.0950794 0.000513074 2.9842e-07)
(-0.0944077 0.00061766 3.35954e-07)
(-0.0936165 0.000788898 4.03121e-07)
(-0.0926573 0.00100975 4.82931e-07)
(-0.091522 0.00125191 5.45626e-07)
(-0.0902692 0.00145616 5.148e-07)
(-0.0890793 0.00149184 2.92891e-07)
(-0.0883486 0.00106453 -6.88945e-08)
(-0.0887657 -0.000507835 -1.29467e-06)
(-0.0916062 -0.00484466 -5.98239e-06)
(-0.0993246 -0.0154643 -8.12725e-06)
(-0.113303 -0.0403127 1.20703e-05)
(-0.0645199 0.0228189 -5.38809e-05)
(-0.0479468 0.00655308 -9.18557e-06)
(-0.0413496 0.00199202 -6.70394e-07)
(-0.0389567 0.00063362 -1.47557e-06)
(-0.0379012 0.000214707 -9.59463e-07)
(-0.037362 8.83135e-05 -4.51726e-07)
(-0.0370412 5.53191e-05 -2.56336e-07)
(-0.0367979 5.54973e-05 -1.82236e-07)
(-0.0365581 7.24023e-05 -1.61834e-07)
(-0.0362734 0.000102936 -1.78096e-07)
(-0.0359045 0.000148022 -2.20297e-07)
(-0.035417 0.000209704 -2.77956e-07)
(-0.034783 0.000289633 -3.362e-07)
(-0.0339889 0.00038592 -3.68798e-07)
(-0.0330572 0.000482834 -2.85034e-07)
(-0.0321009 0.000518842 1.61562e-07)
(-0.0314658 0.000270536 6.00669e-07)
(-0.0320639 -0.00111592 -1.99636e-06)
(-0.037507 -0.00634065 3.95308e-06)
(-0.0564222 -0.0255096 6.82093e-05)
(-0.0306754 0.000691925 -1.69405e-06)
(-0.0326516 0.000500899 -1.18648e-06)
(-0.0340601 0.000342464 -7.86725e-07)
(-0.0350214 0.000224255 -4.9782e-07)
(-0.0356608 0.000144017 -3.06565e-07)
(-0.0360877 9.51026e-05 -1.91368e-07)
(-0.0363893 7.04231e-05 -1.31499e-07)
(-0.0366323 6.4342e-05 -1.11236e-07)
(-0.0368677 7.30261e-05 -1.19925e-07)
(-0.037135 9.39488e-05 -1.50785e-07)
(-0.0374644 0.000124957 -1.99038e-07)
(-0.0378762 0.000163087 -2.59654e-07)
(-0.0383758 0.000203216 -3.25008e-07)
(-0.0389463 0.00023664 -3.82446e-07)
(-0.0395372 0.000249883 -4.10989e-07)
(-0.0400519 0.000224335 -3.76727e-07)
(-0.0403381 0.000138038 -2.37177e-07)
(-0.0401861 -2.85893e-05 3.39046e-08)
(-0.0393475 -0.000287394 5.11008e-07)
(-0.0375826 -0.000626961 1.22956e-06)
(-0.0802216 0.00439093 1.50894e-06)
(-0.0851076 0.00324771 1.26033e-06)
(-0.0886197 0.00228887 9.97697e-07)
(-0.0910506 0.00155854 7.63244e-07)