/*--------------------------------*- C++ -*----------------------------------*\
| =========                 |                                                 |
| \\      /  F ield         | OpenFOAM: The Open Source CFD Toolbox           |
|  \\    /   O peration     | Version:  2.4.0                                 |
|   \\  /    A nd           | Web:      www.OpenFOAM.org                      |
|    \\/     M anipulation  |                                                 |
\*---------------------------------------------------------------------------*/
FoamFile
{
    version     2.0;
    format      ascii;
    class       volScalarField;
    location    "0.0097";
    object      T;
}
// * * * * * * * * * * * * * * * * * * * * * * * * * * * * * * * * * * * * * //

dimensions      [0 0 0 1 0 0 0];

internalField   nonuniform List<scalar> 
4800
(
100.194
100.581
100.968
101.354
101.738
102.117
102.487
102.844
103.182
103.493
100.581
101.742
102.903
104.063
105.217
106.359
107.475
108.552
109.571
110.511
100.968
102.904
104.841
106.779
108.71
110.625
112.503
114.319
116.039
117.626
101.354
104.063
106.779
109.5
112.22
114.927
117.594
120.182
122.64
124.908
101.738
105.218
108.711
112.221
115.745
119.269
122.762
126.175
129.431
132.439
102.117
106.359
110.625
114.928
119.269
123.641
128.012
132.323
136.471
140.314
102.488
107.476
112.504
117.595
122.764
128.013
133.323
138.633
143.817
148.66
102.845
108.554
114.321
120.184
126.177
132.325
138.634
145.068
151.502
157.641
103.182
109.573
116.042
122.644
129.435
136.475
143.82
151.504
159.482
167.46
103.494
110.514
117.631
124.915
132.445
140.321
148.666
157.645
167.462
178.222
100.194
100.581
100.968
101.354
101.738
102.117
102.487
102.844
103.182
103.493
100.581
101.742
102.903
104.063
105.217
106.359
107.475
108.552
109.571
110.511
100.968
102.903
104.841
106.779
108.71
110.625
112.503
114.319
116.039
117.626
101.354
104.063
106.779
109.5
112.22
114.927
117.594
120.182
122.64
124.908
101.738
105.218
108.711
112.221
115.745
119.269
122.762
126.174
129.431
132.438
102.117
106.359
110.625
114.928
119.269
123.641
128.012
132.323
136.471
140.314
102.488
107.476
112.505
117.595
122.764
128.013
133.323
138.633
143.817
148.66
102.845
108.554
114.321
120.185
126.177
132.325
138.634
145.068
151.502
157.641
103.183
109.573
116.043
122.645
129.436
136.476
143.82
151.504
159.482
167.46
103.494
110.515
117.631
124.915
132.446
140.322
148.667
157.646
167.463
178.223
100.194
100.581
100.968
101.354
101.738
102.117
102.487
102.844
103.182
103.493
100.581
101.742
102.903
104.063
105.217
106.359
107.475
108.552
109.571
110.511
100.968
102.903
104.841
106.779
108.71
110.625
112.503
114.319
116.039
117.626
101.354
104.063
106.779
109.5
112.22
114.927
117.594
120.182
122.64
124.908
101.738
105.218
108.711
112.221
115.745
119.269
122.762
126.174
129.431
132.438
102.117
106.359
110.625
114.928
119.269
123.641
128.012
132.323
136.471
140.314
102.488
107.476
112.505
117.595
122.764
128.013
133.323
138.633
143.817
148.66
102.845
108.554
114.321
120.185
126.177
132.325
138.634
145.068
151.502
157.641
103.183
109.573
116.043
122.645
129.436
136.476
143.82
151.504
159.482
167.46
103.494
110.515
117.631
124.915
132.446
140.322
148.667
157.646
167.463
178.223
100.194
100.581
100.968
101.354
101.738
102.117
102.487
102.844
103.182
103.493
100.581
101.742
102.903
104.063
105.217
106.359
107.475
108.552
109.571
110.511
100.968
102.904
104.841
106.779
108.71
110.625
112.503
114.319
116.039
117.626
101.354
104.063
106.779
109.5
112.22
114.927
117.594
120.182
122.64
124.908
101.738
105.218
108.711
112.221
115.745
119.269
122.762
126.175
129.431
132.439
102.117
106.359
110.625
114.928
119.269
123.641
128.012
132.323
136.471
140.314
102.488
107.476
112.504
117.595
122.764
128.013
133.323
138.633
143.817
148.66
102.845
108.554
114.321
120.184
126.177
132.325
138.634
145.068
151.502
157.641
103.182
109.573
116.042
122.644
129.435
136.475
143.82
151.504
159.482
167.46
103.494
110.514
117.631
124.915
132.445
140.321
148.666
157.645
167.462
178.222
103.773
104.016
104.222
104.391
104.526
104.63
104.707
104.762
104.796
104.813
104.813
104.796
104.761
104.707
104.63
104.526
104.391
104.222
104.016
103.773
111.354
112.087
112.704
113.208
113.609
113.916
114.144
114.304
114.405
114.454
114.454
114.405
114.304
114.144
113.916
113.608
113.208
112.703
112.086
111.353
119.045
120.272
121.298
122.13
122.784
123.283
123.65
123.906
124.067
124.145
124.145
124.067
123.905
123.649
123.281
122.782
122.128
121.297
120.271
119.044
126.928
128.659
130.088
131.229
132.114
132.78
133.266
133.602
133.812
133.914
133.913
133.812
133.601
133.265
132.779
132.112
131.227
130.086
128.657
126.927
135.1
137.347
139.164
140.584
141.662
142.459
143.032
143.423
143.667
143.783
143.783
143.666
143.422
143.03
142.457
141.66
140.581
139.162
137.345
135.098
143.687
146.465
148.638
150.28
151.49
152.363
152.978
153.393
153.649
153.77
153.77
153.648
153.392
152.977
152.361
151.488
150.278
148.636
146.462
143.685
152.869
156.186
158.644
160.408
161.655
162.526
163.125
163.522
163.764
163.879
163.878
163.763
163.521
163.123
162.524
161.653
160.406
158.641
156.184
152.867
162.943
166.766
169.342
171.053
172.195
172.96
173.473
173.806
174.007
174.102
174.101
174.007
173.806
173.472
172.959
172.193
171.052
169.341
166.764
162.941
174.495
178.591
180.906
182.268
183.11
183.649
183.999
184.223
184.357
184.419
184.419
184.356
184.223
183.998
183.648
183.109
182.267
180.905
178.591
174.494
188.984
192.199
193.422
194.004
194.328
194.526
194.651
194.73
194.777
194.799
194.799
194.777
194.73
194.651
194.525
194.328
194.003
193.422
192.199
188.983
103.773
104.016
104.222
104.391
104.526
104.63
104.707
104.761
104.796
104.812
104.812
104.796
104.761
104.707
104.629
104.525
104.391
104.222
104.016
103.772
111.354
112.086
112.704
113.208
113.608
113.916
114.144
114.304
114.405
114.454
114.454
114.405
114.303
114.143
113.915
113.607
113.207
112.702
112.085
111.352
119.045
120.272
121.298
122.13
122.783
123.282
123.649
123.905
124.067
124.144
124.144
124.066
123.904
123.648
123.28
122.781
122.127
121.296
120.27
119.043
126.928
128.659
130.087
131.228
132.113
132.78
133.265
133.601
133.812
133.913
133.913
133.811
133.6
133.264
132.778
132.111
131.226
130.084
128.656
126.925
135.1
137.347
139.164
140.583
141.661
142.459
143.031
143.423
143.666
143.783
143.782
143.665
143.421
143.029
142.456
141.658
140.58
139.16
137.343
135.097
143.687
146.464
148.638
150.28
151.489
152.363
152.978
153.392
153.648
153.769
153.769
153.647
153.391
152.976
152.36
151.486
150.276
148.634
146.461
143.684
152.869
156.186
158.643
160.407
161.654
162.525
163.124
163.521
163.763
163.878
163.877
163.762
163.52
163.122
162.523
161.651
160.404
158.64
156.182
152.866
162.943
166.765
169.342
171.053
172.194
172.96
173.472
173.805
174.006
174.101
174.1
174.006
173.804
173.47
172.958
172.192
171.05
169.339
166.762
162.94
174.495
178.591
180.906
182.268
183.109
183.648
183.998
184.222
184.356
184.418
184.418
184.355
184.222
183.997
183.647
183.108
182.266
180.904
178.589
174.492
188.984
192.199
193.422
194.003
194.328
194.525
194.651
194.73
194.777
194.799
194.799
194.777
194.73
194.65
194.525
194.327
194.003
193.421
192.198
188.982
103.773
104.016
104.222
104.391
104.526
104.63
104.707
104.761
104.796
104.812
104.812
104.796
104.761
104.707
104.629
104.525
104.391
104.222
104.016
103.772
111.354
112.086
112.704
113.208
113.608
113.916
114.144
114.304
114.405
114.454
114.454
114.405
114.303
114.143
113.915
113.607
113.207
112.702
112.085
111.352
119.045
120.272
121.298
122.13
122.783
123.282
123.649
123.905
124.067
124.144
124.144
124.066
123.904
123.648
123.28
122.781
122.127
121.296
120.27
119.043
126.928
128.659
130.087
131.228
132.113
132.78
133.265
133.601
133.812
133.913
133.913
133.811
133.6
133.264
132.778
132.111
131.226
130.084
128.656
126.925
135.1
137.347
139.164
140.583
141.661
142.459
143.031
143.423
143.666
143.783
143.782
143.665
143.421
143.029
142.456
141.658
140.58
139.16
137.343
135.097
143.687
146.464
148.638
150.28
151.489
152.363
152.978
153.392
153.648
153.769
153.769
153.647
153.391
152.976
152.36
151.486
150.276
148.634
146.461
143.684
152.869
156.186
158.643
160.407
161.654
162.525
163.124
163.521
163.763
163.878
163.877
163.762
163.52
163.122
162.523
161.651
160.404
158.64
156.182
152.866
162.943
166.765
169.342
171.053
172.194
172.96
173.472
173.805
174.006
174.101
174.1
174.006
173.804
173.47
172.958
172.192
171.05
169.339
166.762
162.94
174.495
178.591
180.906
182.268
183.109
183.648
183.998
184.222
184.356
184.418
184.418
184.355
184.222
183.997
183.647
183.108
182.266
180.904
178.589
174.492
188.984
192.199
193.422
194.003
194.328
194.525
194.651
194.73
194.777
194.799
194.799
194.777
194.73
194.65
194.525
194.327
194.003
193.421
192.198
188.982
103.773
104.016
104.222
104.391
104.526
104.63
104.707
104.762
104.796
104.813
104.813
104.796
104.761
104.707
104.63
104.526
104.391
104.222
104.016
103.773
111.354
112.087
112.704
113.208
113.609
113.916
114.144
114.304
114.405
114.454
114.454
114.405
114.304
114.144
113.916
113.608
113.208
112.703
112.086
111.353
119.045
120.272
121.298
122.13
122.784
123.283
123.65
123.906
124.067
124.145
124.145
124.067
123.905
123.649
123.281
122.782
122.128
121.297
120.271
119.044
126.928
128.659
130.088
131.229
132.114
132.78
133.266
133.602
133.812
133.914
133.913
133.812
133.601
133.265
132.779
132.112
131.227
130.086
128.657
126.927
135.1
137.347
139.164
140.584
141.662
142.459
143.032
143.423
143.667
143.783
143.783
143.666
143.422
143.03
142.457
141.66
140.581
139.162
137.345
135.098
143.687
146.465
148.638
150.28
151.49
152.363
152.978
153.393
153.649
153.77
153.77
153.648
153.392
152.977
152.361
151.488
150.278
148.636
146.462
143.685
152.869
156.186
158.644
160.408
161.655
162.526
163.125
163.522
163.764
163.879
163.878
163.763
163.521
163.123
162.524
161.653
160.406
158.641
156.184
152.867
162.943
166.766
169.342
171.053
172.195
172.96
173.473
173.806
174.007
174.102
174.101
174.007
173.806
173.472
172.959
172.193
171.052
169.341
166.764
162.941
174.495
178.591
180.906
182.268
183.11
183.649
183.999
184.223
184.357
184.419
184.419
184.356
184.223
183.998
183.648
183.109
182.267
180.905
178.591
174.494
188.984
192.199
193.422
194.004
194.328
194.526
194.651
194.73
194.777
194.799
194.799
194.777
194.73
194.651
194.525
194.328
194.003
193.422
192.199
188.983
103.493
103.182
102.845
102.488
102.117
101.738
101.354
100.968
100.581
100.194
110.511
109.571
108.553
107.476
106.359
105.218
104.064
102.904
101.743
100.581
117.625
116.039
114.319
112.503
110.625
108.711
106.779
104.842
102.904
100.968
124.907
122.639
120.182
117.594
114.927
112.221
109.5
106.779
104.064
101.354
132.437
129.43
126.174
122.762
119.269
115.746
112.222
108.712
105.218
101.738
140.313
136.471
132.323
128.013
123.642
119.27
114.929
110.627
106.36
102.117
148.659
143.816
138.633
133.324
128.014
122.765
117.597
112.506
107.477
102.488
157.641
151.503
145.069
138.636
132.327
126.179
120.186
114.323
108.555
102.845
167.461
159.483
151.506
143.822
136.478
129.438
122.647
116.045
109.575
103.183
178.224
167.464
157.648
148.669
140.324
132.449
124.918
117.634
110.516
103.495
103.492
103.181
102.844
102.487
102.116
101.737
101.353
100.967
100.58
100.193
110.509
109.57
108.551
107.474
106.358
105.217
104.063
102.903
101.741
100.58
117.624
116.037
114.318
112.502
110.624
108.709
106.778
104.84
102.903
100.967
124.905
122.638
120.18
117.592
114.926
112.219
109.499
106.778
104.063
101.353
132.436
129.429
126.173
122.761
119.268
115.744
112.22
108.71
105.217
101.737
140.311
136.469
132.321
128.011
123.64
119.269
114.927
110.625
106.359
102.117
148.658
143.815
138.631
133.322
128.013
122.763
117.595
112.504
107.476
102.487
157.639
151.501
145.067
138.634
132.325
126.177
120.185
114.321
108.554
102.845
167.459
159.481
151.504
143.82
136.476
129.436
122.645
116.043
109.573
103.182
178.222
167.462
157.646
148.667
140.322
132.447
124.916
117.632
110.515
103.494
103.492
103.181
102.844
102.487
102.116
101.737
101.353
100.967
100.58
100.193
110.509
109.57
108.551
107.474
106.358
105.217
104.063
102.903
101.741
100.58
117.624
116.037
114.318
112.502
110.624
108.709
106.778
104.84
102.903
100.967
124.905
122.638
120.18
117.592
114.926
112.219
109.499
106.778
104.063
101.353
132.436
129.429
126.173
122.761
119.268
115.744
112.22
108.71
105.217
101.737
140.311
136.469
132.321
128.011
123.64
119.269
114.927
110.625
106.359
102.117
148.658
143.815
138.631
133.322
128.013
122.763
117.595
112.504
107.476
102.487
157.639
151.501
145.067
138.634
132.325
126.177
120.185
114.321
108.554
102.845
167.459
159.481
151.504
143.82
136.476
129.436
122.645
116.043
109.573
103.182
178.222
167.462
157.646
148.667
140.322
132.447
124.916
117.632
110.515
103.494
103.493
103.182
102.845
102.488
102.117
101.738
101.354
100.968
100.581
100.194
110.511
109.571
108.553
107.476
106.359
105.218
104.064
102.904
101.743
100.581
117.625
116.039
114.319
112.503
110.625
108.711
106.779
104.842
102.904
100.968
124.907
122.639
120.182
117.594
114.927
112.221
109.5
106.779
104.064
101.354
132.437
129.43
126.174
122.762
119.269
115.746
112.222
108.712
105.218
101.738
140.313
136.471
132.323
128.013
123.642
119.27
114.929
110.627
106.36
102.117
148.659
143.816
138.633
133.324
128.014
122.765
117.597
112.506
107.477
102.488
157.641
151.503
145.069
138.636
132.327
126.179
120.186
114.323
108.555
102.845
167.461
159.483
151.506
143.822
136.478
129.438
122.647
116.045
109.575
103.183
178.224
167.464
157.648
148.669
140.324
132.449
124.918
117.634
110.516
103.495
188.986
174.501
162.953
152.882
143.702
135.115
126.941
119.056
111.361
103.775
192.203
178.601
166.78
156.204
146.485
137.367
128.677
120.287
112.096
104.02
193.427
180.919
169.362
158.669
148.666
139.192
130.113
121.319
112.717
104.227
194.01
182.286
171.081
160.442
150.318
140.622
131.263
122.157
113.226
104.398
194.337
183.134
172.232
161.702
151.542
141.714
132.16
122.821
113.633
104.534
194.537
183.682
173.012
162.59
152.434
142.53
132.844
123.333
113.949
104.641
194.667
184.044
173.543
163.212
153.075
143.128
133.353
123.719
114.189
104.723
194.752
184.285
173.902
163.642
153.525
143.555
133.72
123.999
114.364
104.782
194.807
184.441
174.138
163.927
153.829
143.846
133.973
124.194
114.487
104.824
194.84
184.535
174.28
164.102
154.016
144.027
134.132
124.317
114.565
104.851
194.854
184.578
174.346
164.184
154.105
144.115
134.21
124.379
114.604
104.864
194.853
184.575
174.343
164.182
154.106
144.118
134.214
124.383
114.607
104.865
194.836
184.525
174.27
164.096
154.018
144.037
134.146
124.332
114.576
104.855
194.798
184.419
174.115
163.915
153.832
143.865
134.002
124.224
114.509
104.832
194.733
184.239
173.855
163.616
153.531
143.59
133.772
124.053
114.404
104.797
194.625
183.949
173.449
163.163
153.086
143.191
133.444
123.811
114.256
104.747
194.442
183.482
172.829
162.503
152.46
142.645
133.004
123.49
114.061
104.682
194.101
182.706
171.885
161.558
151.606
141.925
132.438
123.084
113.818
104.601
193.353
181.357
170.447
160.24
150.481
141.013
131.738
122.591
113.525
104.504
191.306
178.923
168.307
158.476
149.066
139.909
130.911
122.017
113.187
104.392
188.985
174.499
162.951
152.88
143.699
135.113
126.939
119.054
111.359
103.774
192.201
178.599
166.778
156.202
146.482
137.365
128.675
120.285
112.095
104.019
193.425
180.917
169.36
158.666
148.664
139.19
130.111
121.317
112.715
104.226
194.008
182.284
171.078
160.44
150.316
140.619
131.261
122.155
113.225
104.397
194.335
183.132
172.229
161.699
151.539
141.711
132.158
122.819
113.631
104.533
194.536
183.679
173.009
162.587
152.432
142.528
132.842
123.331
113.947
104.64
194.665
184.041
173.54
163.209
153.072
143.126
133.35
123.716
114.187
104.722
194.75
184.282
173.899
163.639
153.522
143.552
133.717
123.997
114.362
104.781
194.805
184.438
174.134
163.924
153.826
143.843
133.97
124.192
114.485
104.823
194.837
184.532
174.277
164.099
154.013
144.024
134.129
124.315
114.563
104.85
194.852
184.574
174.343
164.181
154.102
144.112
134.207
124.376
114.602
104.863
194.851
184.572
174.34
164.179
154.102
144.115
134.212
124.381
114.605
104.864
194.833
184.522
174.266
164.093
154.014
144.034
134.143
124.33
114.574
104.854
194.795
184.416
174.111
163.911
153.829
143.862
133.999
124.221
114.507
104.831
194.73
184.235
173.851
163.612
153.527
143.587
133.769
124.05
114.401
104.795
194.623
183.945
173.445
163.16
153.083
143.188
133.441
123.808
114.253
104.746
194.439
183.478
172.825
162.499
152.456
142.642
133.001
123.487
114.059
104.681
194.098
182.702
171.881
161.554
151.602
141.922
132.434
123.081
113.815
104.599
193.35
181.353
170.443
160.236
150.477
141.009
131.735
122.588
113.522
104.502
191.303
178.919
168.302
158.472
149.063
139.905
130.908
122.014
113.184
104.391
188.985
174.499
162.951
152.88
143.699
135.113
126.939
119.054
111.359
103.774
192.201
178.599
166.778
156.202
146.482
137.365
128.675
120.285
112.095
104.019
193.425
180.917
169.36
158.666
148.664
139.19
130.111
121.317
112.715
104.226
194.008
182.284
171.078
160.44
150.316
140.619
131.261
122.155
113.225
104.397
194.335
183.132
172.229
161.699
151.539
141.711
132.158
122.819
113.631
104.533
194.536
183.679
173.009
162.587
152.432
142.528
132.842
123.331
113.947
104.64
194.665
184.041
173.54
163.209
153.072
143.126
133.35
123.716
114.187
104.722
194.75
184.282
173.899
163.639
153.522
143.552
133.717
123.997
114.362
104.781
194.805
184.438
174.134
163.924
153.826
143.843
133.97
124.192
114.485
104.823
194.837
184.532
174.277
164.099
154.013
144.024
134.129
124.315
114.563
104.85
194.852
184.574
174.343
164.181
154.102
144.112
134.207
124.376
114.602
104.863
194.851
184.572
174.34
164.179
154.102
144.115
134.212
124.381
114.605
104.864
194.833
184.522
174.266
164.093
154.014
144.034
134.143
124.33
114.574
104.854
194.795
184.416
174.111
163.911
153.829
143.862
133.999
124.221
114.507
104.831
194.73
184.235
173.851
163.612
153.527
143.587
133.769
124.05
114.401
104.795
194.623
183.945
173.445
163.16
153.083
143.188
133.441
123.808
114.253
104.746
194.439
183.478
172.825
162.499
152.456
142.642
133.001
123.487
114.059
104.681
194.098
182.702
171.881
161.554
151.602
141.922
132.434
123.081
113.815
104.599
193.35
181.353
170.443
160.236
150.477
141.009
131.735
122.588
113.522
104.502
191.303
178.919
168.302
158.472
149.063
139.905
130.908
122.014
113.184
104.391
188.986
174.501
162.953
152.882
143.702
135.115
126.941
119.056
111.361
103.775
192.203
178.601
166.78
156.204
146.485
137.367
128.677
120.287
112.096
104.02
193.427
180.919
169.362
158.669
148.666
139.192
130.113
121.319
112.717
104.227
194.01
182.286
171.081
160.442
150.318
140.622
131.263
122.157
113.226
104.398
194.337
183.134
172.232
161.702
151.542
141.714
132.16
122.821
113.633
104.534
194.537
183.682
173.012
162.59
152.434
142.53
132.844
123.333
113.949
104.641
194.667
184.044
173.543
163.212
153.075
143.128
133.353
123.719
114.189
104.723
194.752
184.285
173.902
163.642
153.525
143.555
133.72
123.999
114.364
104.782
194.807
184.441
174.138
163.927
153.829
143.846
133.973
124.194
114.487
104.824
194.84
184.535
174.28
164.102
154.016
144.027
134.132
124.317
114.565
104.851
194.854
184.578
174.346
164.184
154.105
144.115
134.21
124.379
114.604
104.864
194.853
184.575
174.343
164.182
154.106
144.118
134.214
124.383
114.607
104.865
194.836
184.525
174.27
164.096
154.018
144.037
134.146
124.332
114.576
104.855
194.798
184.419
174.115
163.915
153.832
143.865
134.002
124.224
114.509
104.832
194.733
184.239
173.855
163.616
153.531
143.59
133.772
124.053
114.404
104.797
194.625
183.949
173.449
163.163
153.086
143.191
133.444
123.811
114.256
104.747
194.442
183.482
172.829
162.503
152.46
142.645
133.004
123.49
114.061
104.682
194.101
182.706
171.885
161.558
151.606
141.925
132.438
123.084
113.818
104.601
193.353
181.357
170.447
160.24
150.481
141.013
131.738
122.591
113.525
104.504
191.306
178.923
168.306
158.476
149.066
139.909
130.911
122.017
113.187
104.392
184.248
174.725
165.38
156.293
147.401
138.646
129.982
121.379
112.814
104.269
178.065
170.351
162.2
153.915
145.603
137.293
128.994
120.704
112.421
104.14
173.09
166.416
159.154
151.569
143.803
135.933
127.998
120.024
112.024
104.01
169.121
163.07
156.436
149.406
142.111
134.638
127.045
119.37
111.642
103.884
165.962
160.309
154.115
147.509
140.599
133.467
126.175
118.77
111.291
103.769
163.476
158.09
152.208
145.919
139.312
132.457
125.418
118.246
110.983
103.667
161.571
156.369
150.706
144.65
138.271
131.634
124.798
117.813
110.728
103.583
160.187
155.11
149.597
143.704
137.489
131.011
124.325
117.483
110.532
103.519
159.285
154.286
148.867
143.077
136.968
130.595
124.009
117.262
110.4
103.476
158.84
153.879
148.506
142.766
136.709
130.387
123.851
117.152
110.335
103.458
184.244
174.721
165.376
156.289
147.398
138.642
129.979
121.376
112.811
104.268
178.061
170.347
162.196
153.912
145.599
137.29
128.991
120.701
112.418
104.139
173.087
166.412
159.151
151.566
143.8
135.929
127.995
120.021
112.021
104.008
169.118
163.067
156.433
149.403
142.108
134.635
127.041
119.367
111.639
103.883
165.959
160.306
154.112
147.506
140.596
133.464
126.171
118.766
111.288
103.767
163.473
158.087
152.205
145.916
139.308
132.454
125.415
118.242
110.979
103.665
161.568
156.367
150.703
144.647
138.268
131.631
124.794
117.809
110.724
103.58
160.185
155.108
149.595
143.701
137.486
131.007
124.321
117.478
110.527
103.515
159.283
154.284
148.865
143.074
136.965
130.591
124.005
117.257
110.394
103.471
158.838
153.876
148.503
142.763
136.705
130.383
123.846
117.146
110.329
103.452
184.244
174.721
165.376
156.289
147.398
138.642
129.979
121.376
112.811
104.268
178.061
170.347
162.196
153.912
145.599
137.29
128.991
120.701
112.418
104.139
173.087
166.412
159.151
151.566
143.8
135.929
127.995
120.021
112.021
104.008
169.118
163.067
156.433
149.403
142.108
134.635
127.041
119.367
111.639
103.883
165.959
160.306
154.112
147.506
140.596
133.464
126.171
118.766
111.288
103.767
163.473
158.087
152.205
145.916
139.308
132.454
125.415
118.242
110.979
103.665
161.568
156.367
150.703
144.647
138.268
131.631
124.794
117.809
110.724
103.58
160.185
155.108
149.595
143.701
137.486
131.007
124.321
117.478
110.527
103.515
159.283
154.284
148.865
143.074
136.965
130.591
124.005
117.257
110.394
103.471
158.838
153.876
148.503
142.763
136.705
130.383
123.846
117.146
110.329
103.452
184.248
174.725
165.38
156.293
147.401
138.646
129.982
121.379
112.814
104.269
178.065
170.351
162.2
153.915
145.603
137.293
128.994
120.704
112.421
104.14
173.09
166.416
159.154
151.569
143.803
135.933
127.998
120.024
112.024
104.01
169.121
163.07
156.436
149.406
142.111
134.638
127.045
119.37
111.642
103.884
165.962
160.309
154.115
147.509
140.599
133.467
126.175
118.77
111.291
103.769
163.476
158.09
152.208
145.92
139.312
132.457
125.419
118.246
110.983
103.667
161.571
156.369
150.706
144.65
138.271
131.634
124.798
117.813
110.728
103.583
160.187
155.11
149.597
143.704
137.489
131.011
124.325
117.483
110.532
103.519
159.285
154.286
148.868
143.077
136.969
130.595
124.009
117.262
110.4
103.476
158.84
153.879
148.506
142.766
136.709
130.387
123.851
117.152
110.335
103.458
192.893
195.657
196.83
197.467
197.872
198.15
198.345
198.479
198.563
198.604
198.604
198.564
198.48
198.347
198.152
197.875
197.47
196.833
195.66
192.896
184.566
188.562
191.026
192.636
193.745
194.534
195.096
195.486
195.732
195.852
195.853
195.734
195.489
195.101
194.54
193.752
192.643
191.033
188.569
184.572
178.748
183
186.075
188.305
189.94
191.144
192.022
192.636
193.028
193.219
193.22
193.032
192.642
192.029
191.154
189.951
188.317
186.088
183.012
178.759
174.346
178.614
181.97
184.569
186.565
188.082
189.21
190.011
190.525
190.777
190.779
190.53
190.019
189.221
188.096
186.581
184.587
181.989
178.633
174.364
170.915
175.141
178.624
181.435
183.669
185.409
186.726
187.672
188.285
188.586
188.589
188.291
187.683
186.741
185.428
183.691
181.461
178.651
175.169
170.944
168.24
172.412
175.948
178.881
181.266
183.16
184.613
185.668
186.356
186.696
186.699
186.364
185.683
184.633
183.185
181.296
178.915
175.985
172.451
168.28
166.197
170.32
173.875
176.877
179.357
181.352
182.9
184.033
184.775
185.143
185.147
184.786
184.051
182.925
181.384
179.395
176.92
173.923
170.371
166.251
164.714
168.798
172.356
175.395
177.933
179.993
181.604
182.789
183.569
183.957
183.962
183.582
182.811
181.634
180.032
177.979
175.448
172.415
168.861
164.781
163.746
167.803
171.36
174.418
176.988
179.086
180.735
181.952
182.756
183.157
183.162
182.771
181.977
180.769
179.13
177.04
174.479
171.428
167.876
163.824
163.268
167.31
170.866
173.932
176.516
178.633
180.299
181.532
182.346
182.753
182.759
182.362
181.559
180.336
178.68
176.573
173.998
170.939
167.39
163.353
192.896
195.659
196.831
197.469
197.874
198.151
198.346
198.479
198.563
198.604
198.604
198.563
198.48
198.346
198.152
197.874
197.469
196.831
195.658
192.894
184.569
188.565
191.028
192.638
193.747
194.535
195.098
195.487
195.732
195.852
195.852
195.734
195.489
195.1
194.539
193.751
192.641
191.031
188.566
184.569
178.751
183.003
186.078
188.307
189.942
191.146
192.023
192.637
193.028
193.219
193.22
193.031
192.641
192.028
191.152
189.949
188.315
186.085
183.009
178.756
174.349
178.617
181.973
184.571
186.567
188.083
189.211
190.011
190.525
190.777
190.779
190.529
190.018
189.22
188.094
186.579
184.585
181.987
178.631
174.361
170.918
175.144
178.626
181.438
183.671
185.411
186.727
187.673
188.285
188.586
188.588
188.291
187.682
186.74
185.427
183.689
181.459
178.649
175.167
170.941
168.243
172.415
175.95
178.884
181.268
183.162
184.614
185.669
186.356
186.696
186.698
186.364
185.682
184.632
183.184
181.295
178.913
175.983
172.449
168.278
166.2
170.323
173.877
176.879
179.359
181.354
182.901
184.033
184.775
185.143
185.147
184.785
184.05
182.924
181.383
179.393
176.918
173.921
170.369
166.248
164.717
168.8
172.359
175.398
177.935
179.995
181.605
182.79
183.569
183.957
183.961
183.581
182.81
181.633
180.03
177.977
175.446
172.413
168.859
164.779
163.749
167.805
171.362
174.42
176.99
179.088
180.736
181.953
182.756
183.157
183.161
182.77
181.976
180.768
179.129
177.039
174.477
171.426
167.874
163.822
163.27
167.313
170.868
173.934
176.518
178.634
180.3
181.532
182.347
182.753
182.759
182.362
181.558
180.335
178.679
176.572
173.996
170.937
167.388
163.351
192.896
195.659
196.831
197.469
197.874
198.151
198.346
198.479
198.563
198.604
198.604
198.563
198.479
198.346
198.152
197.874
197.469
196.831
195.658
192.894
184.569
188.565
191.028
192.638
193.747
194.535
195.098
195.487
195.732
195.852
195.852
195.734
195.489
195.1
194.539
193.751
192.641
191.031
188.566
184.569
178.751
183.003
186.078
188.307
189.942
191.146
192.023
192.637
193.028
193.219
193.22
193.031
192.641
192.028
191.152
189.949
188.315
186.085
183.009
178.756
174.349
178.617
181.973
184.571
186.567
188.083
189.211
190.011
190.525
190.777
190.778
190.529
190.018
189.22
188.094
186.579
184.585
181.987
178.631
174.361
170.918
175.144
178.626
181.438
183.671
185.41
186.727
187.673
188.285
188.586
188.588
188.291
187.682
186.74
185.427
183.689
181.459
178.649
175.167
170.941
168.243
172.415
175.95
178.884
181.268
183.161
184.614
185.669
186.356
186.696
186.698
186.364
185.682
184.632
183.184
181.295
178.913
175.983
172.449
168.278
166.2
170.323
173.877
176.879
179.359
181.354
182.901
184.033
184.775
185.143
185.147
184.785
184.05
182.924
181.383
179.393
176.918
173.921
170.369
166.248
164.717
168.8
172.359
175.398
177.935
179.995
181.605
182.79
183.569
183.957
183.961
183.581
182.81
181.633
180.03
177.977
175.446
172.413
168.859
164.779
163.749
167.805
171.362
174.42
176.99
179.088
180.736
181.953
182.756
183.157
183.161
182.77
181.976
180.768
179.129
177.039
174.477
171.426
167.874
163.822
163.27
167.313
170.868
173.934
176.518
178.634
180.3
181.533
182.347
182.754
182.759
182.362
181.558
180.335
178.679
176.572
173.996
170.938
167.388
163.351
192.893
195.657
196.83
197.467
197.872
198.15
198.345
198.479
198.563
198.604
198.604
198.564
198.48
198.347
198.152
197.875
197.47
196.833
195.66
192.896
184.566
188.562
191.026
192.636
193.745
194.534
195.096
195.486
195.732
195.852
195.853
195.734
195.489
195.101
194.54
193.752
192.643
191.033
188.569
184.572
178.748
183
186.075
188.305
189.94
191.144
192.022
192.636
193.028
193.219
193.22
193.032
192.642
192.029
191.154
189.951
188.317
186.088
183.012
178.759
174.346
178.614
181.97
184.569
186.565
188.082
189.21
190.011
190.525
190.777
190.779
190.53
190.019
189.221
188.096
186.581
184.587
181.989
178.633
174.364
170.915
175.141
178.624
181.435
183.669
185.409
186.726
187.672
188.285
188.586
188.589
188.291
187.683
186.741
185.428
183.691
181.461
178.651
175.169
170.944
168.24
172.412
175.948
178.881
181.266
183.16
184.613
185.668
186.356
186.696
186.699
186.364
185.683
184.633
183.185
181.296
178.915
175.985
172.451
168.28
166.197
170.32
173.875
176.877
179.357
181.352
182.9
184.033
184.775
185.144
185.147
184.786
184.051
182.926
181.384
179.395
176.92
173.923
170.371
166.251
164.714
168.798
172.356
175.395
177.933
179.993
181.604
182.789
183.569
183.957
183.962
183.582
182.811
181.634
180.032
177.979
175.448
172.415
168.861
164.781
163.746
167.803
171.36
174.418
176.988
179.087
180.735
181.952
182.756
183.157
183.162
182.771
181.977
180.77
179.131
177.04
174.479
171.428
167.876
163.825
163.268
167.311
170.866
173.932
176.516
178.633
180.299
181.532
182.346
182.754
182.759
182.363
181.559
180.336
178.68
176.573
173.998
170.939
167.391
163.353
104.269
112.815
121.382
129.987
138.652
147.408
156.298
165.384
174.726
184.246
104.14
112.421
120.706
128.998
137.298
145.607
153.919
162.201
170.35
178.061
104.009
112.023
120.024
127.999
135.934
143.803
151.567
159.151
166.409
173.081
103.883
111.64
119.367
127.041
134.634
142.104
149.397
156.424
163.055
169.104
103.766
111.286
118.763
126.165
133.454
140.583
147.49
154.092
160.283
165.935
103.663
110.974
118.233
125.401
132.435
139.284
145.887
152.171
158.051
163.435
103.578
110.715
117.793
124.77
131.599
138.23
144.603
150.655
156.316
161.516
103.511
110.515
117.455
124.286
130.963
137.433
143.641
149.531
155.042
160.119
103.466
110.38
117.224
123.958
130.533
136.898