/*--------------------------------*- C++ -*----------------------------------*\
| =========                 |                                                 |
| \\      /  F ield         | OpenFOAM: The Open Source CFD Toolbox           |
|  \\    /   O peration     | Version:  2.4.0                                 |
|   \\  /    A nd           | Web:      www.OpenFOAM.org                      |
|    \\/     M anipulation  |                                                 |
\*---------------------------------------------------------------------------*/
FoamFile
{
    version     2.0;
    format      ascii;
    class       volScalarField;
    location    "1.8";
    object      p;
}
// * * * * * * * * * * * * * * * * * * * * * * * * * * * * * * * * * * * * * //

dimensions      [0 2 -2 0 0 0 0];

internalField   nonuniform List<scalar> 
4800
(
-9.18164e-07
-0.00154646
-0.00311864
-0.00423614
-0.00458782
-0.00403005
-0.00252009
-6.47927e-05
0.00328624
0.00743708
0.00153959
-3.33717e-05
-0.00114192
-0.00175012
-0.00174069
-0.00100799
0.000491939
0.00277142
0.00581581
0.00957463
0.00314364
0.00102961
-8.46041e-05
-0.000544288
-0.000414595
0.000362021
0.0018148
0.00396614
0.0068313
0.0104002
0.00417896
0.00144957
0.000172483
-0.000299915
-0.000181705
0.000543701
0.00189495
0.00391165
0.00665028
0.0101565
0.00412701
0.000915458
-0.000532624
-0.00108584
-0.00106492
-0.000477202
0.000701943
0.00254824
0.00518533
0.00875903
0.00265161
-0.000841617
-0.00242803
-0.00310785
-0.00326398
-0.00290925
-0.00199201
-0.000374974
0.00217198
0.00599411
-0.000403928
-0.0039532
-0.00562528
-0.00646427
-0.00687485
-0.00686124
-0.00632569
-0.00504447
-0.00263672
0.00165132
-0.00503468
-0.00841661
-0.0101145
-0.0111361
-0.0118757
-0.0123247
-0.0123301
-0.0115704
-0.00949725
-0.00454956
-0.0110818
-0.0141001
-0.0157641
-0.0169781
-0.0181043
-0.0191303
-0.019854
-0.0198595
-0.0185016
-0.0127169
-0.0182494
-0.0207593
-0.0223325
-0.0237234
-0.0252557
-0.026948
-0.028616
-0.0298508
-0.0304228
-0.0257701
-2.68466e-06
-0.00156739
-0.00314943
-0.00427543
-0.00463216
-0.00407651
-0.00256695
-0.000111056
0.00324549
0.00740342
0.00155629
-3.79025e-05
-0.00112485
-0.00172333
-0.00170911
-0.000973456
0.0005264
0.00280319
0.00584386
0.00959894
0.00317306
0.0010043
-8.58165e-05
-0.000543299
-0.000415998
0.000360675
0.00181329
0.00396397
0.00682847
0.0103985
0.00422149
0.00141428
0.000172502
-0.000296996
-0.000182913
0.000541992
0.00189278
0.00390832
0.00664482
0.0101517
0.00417865
0.000874263
-0.000528064
-0.00107593
-0.00105911
-0.000471718
0.000706771
0.00255091
0.00518168
0.00875233
0.00270761
-0.000887015
-0.0024221
-0.0030953
-0.00325545
-0.00290082
-0.00198381
-0.000368477
0.00216587
0.00597585
-0.000347965
-0.00399962
-0.00561896
-0.00645056
-0.00686454
-0.00685054
-0.00631383
-0.00503019
-0.00264471
0.00160532
-0.00498315
-0.00846105
-0.0101087
-0.0111228
-0.0118649
-0.0123136
-0.0123176
-0.0115481
-0.0095204
-0.00471022
-0.0110388
-0.0141403
-0.0157601
-0.0169668
-0.0180939
-0.0191187
-0.0198383
-0.0198053
-0.0184862
-0.0130776
-0.0182181
-0.020794
-0.0223318
-0.023717
-0.0252487
-0.0269372
-0.0285927
-0.0297133
-0.0301039
-0.0258735
-2.97295e-06
-0.00156755
-0.00314952
-0.00427549
-0.0046322
-0.00407654
-0.00256698
-0.000111083
0.00324547
0.0074034
0.00155612
-3.80167e-05
-0.00112493
-0.00172338
-0.00170916
-0.000973492
0.000526367
0.00280316
0.00584384
0.00959892
0.00317296
0.00100422
-8.58831e-05
-0.000543356
-0.000416044
0.000360636
0.00181326
0.00396394
0.00682844
0.0103985
0.00422141
0.00141421
0.000172443
-0.00029705
-0.00018296
0.00054195
0.00189274
0.00390829
0.00664479
0.0101517
0.00417858
0.000874201
-0.000528121
-0.00107598
-0.00105916
-0.000471762
0.000706731
0.00255087
0.00518165
0.0087523
0.00270754
-0.000887075
-0.00242216
-0.00309535
-0.0032555
-0.00290086
-0.00198385
-0.000368512
0.00216584
0.00597583
-0.000348029
-0.00399967
-0.00561901
-0.00645062
-0.00686459
-0.00685058
-0.00631386
-0.00503023
-0.00264473
0.0016053
-0.00498321
-0.0084611
-0.0101088
-0.0111228
-0.0118649
-0.0123137
-0.0123176
-0.0115481
-0.00952042
-0.00471024
-0.0110388
-0.0141404
-0.0157601
-0.0169669
-0.018094
-0.0191188
-0.0198383
-0.0198053
-0.0184862
-0.0130776
-0.0182182
-0.0207941
-0.0223319
-0.023717
-0.0252487
-0.0269372
-0.0285927
-0.0297133
-0.030104
-0.0258736
-2.08796e-06
-0.00154693
-0.00311887
-0.00423628
-0.00458793
-0.00403013
-0.00252015
-6.48503e-05
0.00328619
0.00743704
0.00153909
-3.36763e-05
-0.00114212
-0.00175027
-0.00174081
-0.00100809
0.000491858
0.00277135
0.00581575
0.00957458
0.00314336
0.0010294
-8.47764e-05
-0.000544425
-0.000414712
0.000361919
0.00181471
0.00396606
0.00683124
0.0104001
0.00417875
0.00144939
0.000172327
-0.000300051
-0.000181828
0.000543592
0.00189485
0.00391156
0.0066502
0.0101564
0.00412683
0.000915297
-0.000532771
-0.00108597
-0.00106505
-0.000477316
0.000701843
0.00254815
0.00518525
0.00875897
0.00265144
-0.000841771
-0.00242818
-0.00310799
-0.00326411
-0.00290936
-0.00199211
-0.000375062
0.0021719
0.00599405
-0.000404095
-0.00395335
-0.00562542
-0.0064644
-0.00687497
-0.00686135
-0.00632578
-0.00504456
-0.00263679
0.00165126
-0.00503484
-0.00841676
-0.0101146
-0.0111362
-0.0118758
-0.0123248
-0.0123302
-0.0115705
-0.00949732
-0.00454961
-0.0110819
-0.0141002
-0.0157642
-0.0169782
-0.0181044
-0.0191304
-0.0198541
-0.0198596
-0.0185017
-0.012717
-0.0182496
-0.0207594
-0.0223326
-0.0237235
-0.0252558
-0.0269481
-0.0286161
-0.0298508
-0.0304228
-0.0257702
0.0122346
0.0174934
0.0230466
0.0287689
0.0345776
0.0404251
0.0462886
0.0521628
0.0580551
0.0639839
0.0699786
0.0760806
0.0823437
0.0888324
0.0956158
0.102756
0.110289
0.118193
0.126359
0.134562
0.0139488
0.0188002
0.0239997
0.0294414
0.0350444
0.0407527
0.0465314
0.0523627
0.0582426
0.0641794
0.0701921
0.0763101
0.0825715
0.089021
0.0957036
0.102656
0.10989
0.117377
0.125019
0.132636
0.0146031
0.0193005
0.0243699
0.0297098
0.0352385
0.0408963
0.0466432
0.0524558
0.0583242
0.0642505
0.0702463
0.0763326
0.0825378
0.0888957
0.0954419
0.102208
0.109209
0.116433
0.123813
0.131212
0.0143828
0.0191276
0.0242469
0.0296324
0.0351981
0.0408835
0.0466491
0.0524712
0.0583385
0.0642492
0.0702096
0.0762328
0.0823388
0.0885532
0.0949075
0.101438
0.108178
0.115152
0.122352
0.129707
0.0132567
0.0182864
0.0236521
0.0292354
0.0349479
0.0407359
0.0465685
0.0524289
0.0583088
0.0642056
0.070121
0.0760603
0.0820337
0.0880575
0.0941584
0.100381
0.106779
0.113437
0.120436
0.127833
0.011183
0.0168315
0.0226735
0.0286078
0.0345627
0.0405102
0.0464427
0.0523593
0.0582601
0.0641444
0.0700099
0.0758537
0.0816735
0.0874727
0.0932681
0.0991067
0.105061
0.111287
0.117988
0.125477
0.00828576
0.0150146
0.0215647
0.027959
0.0341965
0.0403119
0.0463417
0.0523095
0.0582275
0.0640977
0.0699136
0.0756619
0.0813254
0.0868884
0.092346
0.097723
0.103139
0.108774
0.114996
0.122598
0.00495301
0.0133286
0.0207268
0.0275756
0.0340354
0.0402552
0.0463339
0.0523222
0.0582416
0.0640939
0.0698662
0.0755331
0.0810594
0.0864046
0.0915322
0.0964381
0.101224
0.106101
0.111556
0.119156
0.00314489
0.0133716
0.021047
0.0279078
0.0342998
0.040446
0.0464734
0.0524313
0.0583328
0.0641703
0.0699196
0.0755408
0.0809773
0.0861561
0.0909906
0.09541
0.0994628
0.103178
0.106883
0.113362
0.00764083
0.0185262
0.0240934
0.0295922
0.0352346
0.040979
0.0468036
0.0526706
0.0585441
0.0643891
0.0701635
0.0758091
0.0812427
0.0863443
0.0909406
0.094788
0.0975582
0.0989608
0.0982593
0.100349
0.0122095
0.0174759
0.0230351
0.0287617
0.0345733
0.0404224
0.0462868
0.0521613
0.0580535
0.0639819
0.0699759
0.0760771
0.0823393
0.0888271
0.0956102
0.102751
0.110286
0.118194
0.126367
0.13458
0.0139703
0.0188181
0.0240139
0.0294521
0.0350524
0.0407586
0.046536
0.0523666
0.0582464
0.0641834
0.0701965
0.0763148
0.0825764
0.0890253
0.0957062
0.102655
0.109884
0.117364
0.124998
0.132607
0.0146058
0.0193052
0.024375
0.0297146
0.0352426
0.0408996
0.0466457
0.0524577
0.0583257
0.0642516
0.0702473
0.0763334
0.0825383
0.0888958
0.0954414
0.102206
0.109206
0.116428
0.123807
0.131207
0.014387
0.0191344
0.0242536
0.0296383
0.0352028
0.040887
0.0466515
0.0524729
0.0583396
0.06425
0.0702101
0.0762332
0.082339
0.0885533
0.0949072
0.101437
0.108176
0.115149
0.122346
0.129702
0.0132681
0.0182991
0.0236624
0.0292433
0.0349535
0.0407395
0.0465709
0.0524304
0.0583098
0.0642063
0.0701215
0.0760609
0.0820344
0.0880582
0.0941588
0.10038
0.106777
0.113434
0.120426
0.127818
0.0112076
0.0168522
0.0226864
0.0286164
0.0345678
0.0405129
0.046444
0.0523599
0.0582603
0.0641445
0.0700101
0.0758539
0.081674
0.0874735
0.0932689
0.0991068
0.105061
0.111285
0.117971
0.125441
0.00835161
0.0150576
0.0215843
0.0279692
0.0342008
0.0403133
0.0463418
0.0523092
0.0582272
0.0640975
0.0699136
0.0756622
0.0813261
0.0868896
0.0923478
0.0977245
0.103138
0.108769
0.114955
0.1225
0.00506511
0.0133735
0.0207357
0.027579
0.034035
0.0402534
0.0463322
0.0523208
0.0582404
0.064093
0.0698654
0.0755325
0.0810591
0.086405
0.0915339
0.0964391
0.101223
0.106106
0.11152
0.118998
0.00328537
0.0133097
0.0209784
0.0278789
0.034285
0.0404371
0.0464679
0.0524273
0.058329
0.064166
0.0699144
0.0755345
0.0809702
0.0861495
0.0909872
0.0954119
0.0994818
0.103262
0.106996
0.113189
0.00845639
0.0186614
0.0241022
0.029614
0.0352487
0.0409855
0.0468071
0.0526731
0.0585463
0.0643915
0.0701664
0.0758128
0.0812473
0.0863492
0.0909441
0.0947847
0.0975483
0.0989898
0.0981983
0.0993293
0.0122095
0.0174759
0.0230351
0.0287617
0.0345733
0.0404224
0.0462868
0.0521613
0.0580535
0.0639819
0.0699759
0.0760771
0.0823393
0.0888271
0.0956102
0.102751
0.110286
0.118194
0.126367
0.13458
0.0139703
0.0188181
0.0240139
0.0294521
0.0350524
0.0407586
0.046536
0.0523666
0.0582464
0.0641834
0.0701965
0.0763148
0.0825764
0.0890253
0.0957062
0.102655
0.109884
0.117364
0.124998
0.132607
0.0146058
0.0193052
0.024375
0.0297146
0.0352426
0.0408996
0.0466457
0.0524577
0.0583257
0.0642516
0.0702473
0.0763334
0.0825383
0.0888958
0.0954414
0.102206
0.109206
0.116428
0.123807
0.131207
0.014387
0.0191344
0.0242536
0.0296383
0.0352028
0.040887
0.0466515
0.0524729
0.0583396
0.06425
0.0702101
0.0762332
0.082339
0.0885533
0.0949072
0.101437
0.108176
0.115149
0.122346
0.129702
0.0132681
0.0182991
0.0236624
0.0292433
0.0349535
0.0407395
0.0465709
0.0524304
0.0583098
0.0642063
0.0701215
0.0760609
0.0820344
0.0880582
0.0941588
0.10038
0.106777
0.113434
0.120426
0.127818
0.0112076
0.0168522
0.0226864
0.0286164
0.0345678
0.0405128
0.046444
0.0523599
0.0582603
0.0641445
0.0700101
0.0758539
0.081674
0.0874735
0.0932689
0.0991068
0.105061
0.111285
0.117971
0.125441
0.00835159
0.0150576
0.0215842
0.0279692
0.0342008
0.0403133
0.0463418
0.0523092
0.0582272
0.0640975
0.0699136
0.0756622
0.0813261
0.0868897
0.0923478
0.0977245
0.103138
0.108769
0.114955
0.1225
0.00506509
0.0133735
0.0207357
0.027579
0.034035
0.0402534
0.0463322
0.0523208
0.0582404
0.064093
0.0698654
0.0755325
0.0810591
0.086405
0.0915339
0.0964391
0.101223
0.106106
0.11152
0.118998
0.00328535
0.0133097
0.0209784
0.0278789
0.034285
0.0404371
0.0464679
0.0524273
0.058329
0.064166
0.0699144
0.0755345
0.0809702
0.0861495
0.0909872
0.0954119
0.0994818
0.103262
0.106996
0.113189
0.00845638
0.0186614
0.0241022
0.029614
0.0352487
0.0409855
0.0468071
0.052673
0.0585463
0.0643915
0.0701664
0.0758128
0.0812473
0.0863492
0.0909442
0.0947847
0.0975484
0.0989899
0.0981984
0.0993294
0.0122346
0.0174933
0.0230465
0.0287689
0.0345776
0.0404251
0.0462886
0.0521628
0.0580551
0.0639839
0.0699786
0.0760806
0.0823437
0.0888324
0.0956158
0.102756
0.110289
0.118193
0.126359
0.134562
0.0139488
0.0188001
0.0239997
0.0294414
0.0350444
0.0407527
0.0465314
0.0523627
0.0582426
0.0641794
0.0701921
0.0763101
0.0825715
0.089021
0.0957036
0.102656
0.10989
0.117377
0.125019
0.132636
0.014603
0.0193005
0.0243699
0.0297098
0.0352385
0.0408963
0.0466432
0.0524558
0.0583242
0.0642504
0.0702463
0.0763326
0.0825378
0.0888957
0.0954419
0.102208
0.109209
0.116433
0.123813
0.131212
0.0143827
0.0191276
0.0242469
0.0296323
0.035198
0.0408835
0.0466491
0.0524712
0.0583385
0.0642492
0.0702096
0.0762328
0.0823388
0.0885532
0.0949075
0.101438
0.108178
0.115152
0.122352
0.129707
0.0132566
0.0182863
0.0236521
0.0292353
0.0349478
0.0407358
0.0465685
0.0524289
0.0583088
0.0642056
0.070121
0.0760603
0.0820337
0.0880575
0.0941584
0.100381
0.106779
0.113437
0.120436
0.127833
0.0111829
0.0168314
0.0226735
0.0286077
0.0345627
0.0405102
0.0464427
0.0523593
0.0582601
0.0641444
0.0700099
0.0758537
0.0816735
0.0874727
0.0932681
0.0991067
0.105061
0.111287
0.117988
0.125477
0.00828572
0.0150146
0.0215646
0.0279589
0.0341964
0.0403119
0.0463417
0.0523095
0.0582275
0.0640977
0.0699136
0.0756619
0.0813254
0.0868884
0.092346
0.097723
0.103139
0.108774
0.114996
0.122598
0.00495297
0.0133286
0.0207268
0.0275755
0.0340354
0.0402552
0.0463339
0.0523222
0.0582416
0.0640939
0.0698663
0.0755331
0.0810594
0.0864046
0.0915323
0.0964381
0.101224
0.106101
0.111557
0.119156
0.00314485
0.0133716
0.021047
0.0279078
0.0342997
0.040446
0.0464734
0.0524313
0.0583328
0.0641703
0.0699196
0.0755408
0.0809773
0.0861561
0.0909906
0.0954101
0.0994629
0.103178
0.106883
0.113362
0.00764081
0.0185262
0.0240933
0.0295922
0.0352346
0.040979
0.0468035
0.0526705
0.0585441
0.0643891
0.0701635
0.0758091
0.0812428
0.0863443
0.0909406
0.0947881
0.0975583
0.0989609
0.0982595
0.100349
0.142457
0.149626
0.155675
0.160309
0.163368
0.164846
0.1649
0.163865
0.16226
0.160718
0.139949
0.146609
0.152294
0.15676
0.159874
0.161633
0.162169
0.16175
0.160687
0.159172
0.138376
0.144945
0.150596
0.155088
0.158288
0.160185
0.160892
0.160636
0.159578
0.157599
0.136985
0.143731
0.149574
0.154248
0.157608
0.159632
0.16042
0.160177
0.158971
0.156482
0.135452
0.142603
0.148833
0.153837
0.157451
0.159654
0.16054
0.160308
0.158982
0.156132
0.133759
0.141576
0.148382
0.153849
0.157806
0.160242
0.161267
0.161088
0.159718
0.156692
0.132089
0.140849
0.148374
0.154383
0.158722
0.161423
0.162621
0.162545
0.161223
0.158207
0.130853
0.14084
0.14913
0.155661
0.160338
0.163271
0.164642
0.164703
0.16351
0.16067
0.130279
0.142192
0.151197
0.158064
0.162884
0.16591
0.167387
0.167577
0.166566
0.164035
0.134925
0.147965
0.156134
0.162346
0.166705
0.169487
0.170902
0.171159
0.170341
0.168205
0.142489
0.149669
0.155727
0.160365
0.163424
0.164898
0.164942
0.163895
0.162277
0.160717
0.139914
0.146569
0.15225
0.156714
0.159829
0.161592
0.162134
0.161725
0.160682
0.159151
0.138376
0.144949
0.150602
0.155094
0.158293
0.16019
0.160892
0.160635
0.159595
0.157569
0.136991
0.143742
0.149587
0.154262
0.15762
0.159642
0.160423
0.160178
0.158998
0.156443
0.135459
0.142614
0.148844
0.153847
0.15746
0.15966
0.160539
0.160307
0.159014
0.156087
0.133769
0.141587
0.148394
0.15386
0.157814
0.160248
0.161265
0.161087
0.159753
0.156646
0.132113
0.140865
0.148387
0.154395
0.15873
0.161428
0.162619
0.162544
0.161258
0.158161
0.13099
0.140894
0.149152
0.155675
0.160345
0.163273
0.164639
0.164701
0.163543
0.160626
0.130597
0.142207
0.151174
0.158056
0.162878
0.165907
0.167382
0.167574
0.166595
0.163994
0.134822
0.147605
0.155974
0.1623
0.166686
0.169481
0.170897
0.171157
0.170366
0.168172
0.142489
0.149669
0.155727
0.160365
0.163424
0.164897
0.164942
0.163895
0.162277
0.160717
0.139914
0.146569
0.15225
0.156713
0.159829
0.161592
0.162134
0.161725
0.160682
0.159151
0.138376
0.144949
0.150602
0.155094
0.158293
0.16019
0.160892
0.160635
0.159595
0.157569
0.136991
0.143742
0.149587
0.154262
0.15762
0.159642
0.160423
0.160178
0.158997
0.156443
0.135459
0.142614
0.148844
0.153847
0.15746
0.15966
0.160539
0.160307
0.159014
0.156087
0.133769
0.141587
0.148394
0.15386
0.157814
0.160248
0.161265
0.161087
0.159753
0.156646
0.132113
0.140865
0.148387
0.154394
0.15873
0.161427
0.162619
0.162544
0.161258
0.158161
0.13099
0.140894
0.149152
0.155675
0.160345
0.163273
0.164639
0.164701
0.163543
0.160625
0.130597
0.142207
0.151174
0.158056
0.162878
0.165907
0.167382
0.167574
0.166595
0.163994
0.134822
0.147605
0.155974
0.1623
0.166686
0.169481
0.170897
0.171157
0.170366
0.168172
0.142457
0.149626
0.155675
0.160309
0.163368
0.164846
0.1649
0.163865
0.16226
0.160718
0.139949
0.146609
0.152294
0.15676
0.159874
0.161633
0.162169
0.16175
0.160686
0.159172
0.138376
0.144945
0.150596
0.155088
0.158287
0.160185
0.160892
0.160636
0.159578
0.157599
0.136985
0.14373
0.149574
0.154248
0.157608
0.159632
0.16042
0.160177
0.158971
0.156482
0.135452
0.142603
0.148833
0.153837
0.157451
0.159654
0.16054
0.160308
0.158982
0.156132
0.133759
0.141576
0.148382
0.153849
0.157806
0.160242
0.161267
0.161088
0.159718
0.156692
0.132089
0.140849
0.148374
0.154383
0.158722
0.161423
0.162621
0.162545
0.161223
0.158207
0.130853
0.14084
0.14913
0.155661
0.160338
0.163271
0.164642
0.164703
0.16351
0.16067
0.130279
0.142192
0.151197
0.158064
0.162884
0.16591
0.167387
0.167577
0.166566
0.164035
0.134926
0.147965
0.156134
0.162346
0.166705
0.169487
0.170902
0.171159
0.170341
0.168205
0.168295
0.1638
0.165618
0.168969
0.171891
0.173989
0.175139
0.175378
0.174738
0.173031
0.179128
0.173991
0.173969
0.175684
0.177535
0.179024
0.179897
0.180096
0.179617
0.178328
0.184639
0.181627
0.181341
0.182219
0.183372
0.184395
0.18503
0.185189
0.18485
0.18393
0.190074
0.188449
0.188165
0.188599
0.189302
0.189983
0.190429
0.190551
0.190328
0.189712
0.195649
0.194807
0.194608
0.194829
0.195255
0.195698
0.196003
0.196096
0.195962
0.195586
0.201332
0.200936
0.200829
0.200948
0.201205
0.201485
0.201685
0.201754
0.201687
0.201493
0.207122
0.206982
0.206942
0.207006
0.207148
0.207308
0.207425
0.207468
0.207447
0.207392
0.213
0.213031
0.213025
0.213041
0.213089
0.213145
0.213182
0.213191
0.213195
0.21325
0.218996
0.219131
0.219132
0.219087
0.219035
0.218979
0.218924
0.218881
0.218887
0.219023
0.225144
0.225341
0.225313
0.225177
0.224994
0.224797
0.22462
0.224495
0.224475
0.224661
0.23151
0.23172
0.231616
0.231337
0.230973
0.230586
0.230241
0.229991
0.229907
0.230104
0.238185
0.238335
0.238086
0.237596
0.23698
0.236334
0.235757
0.235327
0.235127
0.235273
0.245291
0.245257
0.244765
0.243972
0.243015
0.242027
0.241143
0.240466
0.240079
0.240084
0.252976
0.252547
0.251678
0.250471
0.249071
0.247654
0.246384
0.245382
0.244722
0.244448
0.261432
0.260217
0.258802
0.257061
0.255125
0.253203
0.25148
0.250082
0.249042
0.248291
0.270766
0.268259
0.266029
0.263638
0.26111
0.258659
0.256457
0.254608
0.253068
0.251595
0.281075
0.276336
0.273018
0.269941
0.266868
0.263976
0.261366
0.259072
0.256915
0.254396
0.29201
0.28368
0.279065
0.27545
0.272085
0.269046
0.266272
0.263655
0.260807
0.256858
0.303458
0.289305
0.283004
0.279229
0.276158
0.273608
0.271217
0.26862
0.265112
0.259319
0.314992
0.289869
0.281683
0.279117
0.277825
0.277088
0.27615
0.274302
0.27039
0.262371
0.169111
0.16394
0.16573
0.169035
0.171915
0.174001
0.175143
0.175381
0.174759
0.173006
0.179263
0.173929
0.174014
0.175727
0.177556
0.179037
0.179903
0.180101
0.179635
0.17831
0.184648
0.181559
0.18135
0.182239
0.183385
0.184405
0.185037
0.185194
0.184864
0.183919
0.190095
0.188421
0.188169
0.18861
0.189311
0.189991
0.190435
0.190556
0.190337
0.189705
0.195662
0.194794
0.194608
0.194833
0.19526
0.195704
0.196008
0.1961
0.195969
0.195582
0.201337
0.20093
0.200827
0.20095
0.201208
0.201488
0.201689
0.201756
0.20169
0.201492
0.207123
0.20698
0.206941
0.207006
0.207149
0.20731
0.207427
0.20747
0.207448
0.207392
0.213
0.213032
0.213024
0.213041
0.213089
0.213146
0.213183
0.213192
0.213194
0.213251
0.218994
0.219134
0.219132
0.219087
0.219035
0.218979
0.218925
0.218881
0.218884
0.219025
0.225141
0.225345
0.225313
0.225176
0.224994
0.224797
0.224621
0.224495
0.224471
0.224665
0.231505
0.231725
0.231615
0.231336
0.230973
0.230586
0.230241
0.229991
0.229903
0.230108
0.23818
0.238339
0.238085
0.237594
0.236979
0.236333
0.235757
0.235327
0.235122
0.235279
0.245285
0.245258
0.244763
0.24397
0.243013
0.242026
0.241143
0.240466
0.240077
0.240089
0.252971
0.252542
0.251674
0.250468
0.249069
0.247652
0.246384
0.245384
0.244723
0.244452
0.26143
0.2602
0.258796
0.257057
0.255122
0.253201
0.25148
0.250084
0.249051
0.248293
0.270778
0.268222
0.266021
0.263635
0.261105
0.258657
0.256457
0.254614
0.253088
0.251591
0.281127
0.276268
0.273012
0.26994
0.266862
0.263975
0.261366
0.25908
0.256953
0.254382
0.292086
0.28351
0.279041
0.275448
0.272077
0.269046
0.266274
0.263668
0.26087
0.25683
0.303585
0.288974
0.283004
0.279271
0.276172
0.27362
0.271225
0.268641
0.265209
0.259271
0.316333
0.289962
0.281976
0.279302
0.277894
0.277122
0.276166
0.274332
0.270532
0.262295
0.169111
0.16394
0.16573
0.169035
0.171915
0.174001
0.175143
0.175381
0.174759
0.173006
0.179263
0.173929
0.174014
0.175727
0.177556
0.179037
0.179903
0.180101
0.179635
0.17831
0.184648
0.181559
0.18135
0.182239
0.183385
0.184405
0.185037
0.185194
0.184864
0.183919
0.190095
0.188421
0.188169
0.18861
0.189311
0.189991
0.190435
0.190556
0.190337
0.189705
0.195662
0.194794
0.194608
0.194833
0.19526
0.195704
0.196008
0.1961
0.195969
0.195582
0.201337
0.20093
0.200827
0.20095
0.201208
0.201488
0.201689
0.201756
0.20169
0.201492
0.207123
0.20698
0.206941
0.207006
0.207149
0.20731
0.207427
0.20747
0.207448
0.207392
0.213
0.213032
0.213024
0.213041
0.213089
0.213146
0.213183
0.213192
0.213194
0.213251
0.218994
0.219134
0.219132
0.219087
0.219035
0.218979
0.218925
0.218881
0.218884
0.219025
0.225141
0.225345
0.225313
0.225176
0.224994
0.224797
0.224621
0.224495
0.224471
0.224665
0.231505
0.231725
0.231615
0.231336
0.230973
0.230586
0.230241
0.229991
0.229903
0.230108
0.23818
0.238339
0.238085
0.237594
0.236979
0.236333
0.235757
0.235327
0.235122
0.235279
0.245285
0.245258
0.244763
0.24397
0.243013
0.242026
0.241143
0.240466
0.240077
0.240089
0.252971
0.252542
0.251674
0.250468
0.249069
0.247652
0.246384
0.245384
0.244723
0.244452
0.26143
0.2602
0.258796
0.257057
0.255122
0.253202
0.25148
0.250084
0.249051
0.248293
0.270778
0.268222
0.266021
0.263635
0.261105
0.258657
0.256457
0.254614
0.253088
0.251591
0.281127
0.276268
0.273012
0.26994
0.266862
0.263975
0.261366
0.25908
0.256953
0.254382
0.292086
0.28351
0.279041
0.275448
0.272077
0.269046
0.266274
0.263668
0.26087
0.25683
0.303585
0.288974
0.283004
0.279271
0.276172
0.27362
0.271225
0.268641
0.265209
0.259271
0.316333
0.289962
0.281976
0.279302
0.277894
0.277122
0.276166
0.274332
0.270532
0.262295
0.168295
0.1638
0.165618
0.168969
0.171891
0.173989
0.175139
0.175378
0.174738
0.173031
0.179128
0.173991
0.17397
0.175684
0.177535
0.179024
0.179897
0.180096
0.179617
0.178328
0.184639
0.181627
0.181341
0.182219
0.183372
0.184395
0.18503
0.185189
0.18485
0.18393
0.190074
0.188449
0.188165
0.1886
0.189303
0.189983
0.190429
0.190551
0.190328
0.189712
0.195649
0.194807
0.194608
0.194829
0.195255
0.195698
0.196003
0.196096
0.195962
0.195586
0.201332
0.200936
0.200829
0.200948
0.201205
0.201485
0.201685
0.201754
0.201687
0.201493
0.207122
0.206982
0.206942
0.207006
0.207148
0.207308
0.207425
0.207468
0.207447
0.207392
0.213
0.213031
0.213025
0.213041
0.213089
0.213145
0.213182
0.213191
0.213195
0.21325
0.218996
0.219131
0.219132
0.219087
0.219035
0.218979
0.218924
0.218881
0.218887
0.219023
0.225144
0.225341
0.225313
0.225177
0.224994
0.224797
0.22462
0.224495
0.224475
0.224661
0.23151
0.23172
0.231616
0.231337
0.230973
0.230586
0.230241
0.229991
0.229907
0.230104
0.238185
0.238335
0.238086
0.237596
0.23698
0.236334
0.235757
0.235327
0.235127
0.235273
0.245291
0.245257
0.244765
0.243972
0.243015
0.242027
0.241143
0.240466
0.240079
0.240084
0.252976
0.252547
0.251678
0.250471
0.249071
0.247654
0.246384
0.245382
0.244722
0.244448
0.261432
0.260217
0.258802
0.257061
0.255125
0.253203
0.25148
0.250082
0.249042
0.248291
0.270766
0.268259
0.266029
0.263638
0.26111
0.258659
0.256457
0.254608
0.253068
0.251595
0.281075
0.276336
0.273018
0.269941
0.266868
0.263976
0.261366
0.259072
0.256915
0.254396
0.29201
0.283681
0.279065
0.27545
0.272085
0.269046
0.266272
0.263655
0.260807
0.256858
0.303458
0.289305
0.283004
0.279229
0.276158
0.273608
0.271217
0.26862
0.265112
0.259319
0.314992
0.289869
0.281683
0.279117
0.277825
0.277088
0.27615
0.274302
0.27039
0.262371
0.253632
0.262322
0.267844
0.272035
0.275618
0.278861
0.281047
0.281177
0.277482
0.26699
0.224539
0.240582
0.251951
0.26155
0.270628
0.279244
0.286262
0.290015
0.287642
0.274731
0.207171
0.222641
0.236067
0.249567
0.263987
0.278894
0.292462
0.301942
0.302687
0.28804
0.193677
0.207547
0.221722
0.238081
0.257427
0.279159
0.300922
0.318695
0.325298
0.310856
0.183784
0.196361
0.210912
0.229517
0.25336
0.282187
0.313688
0.34284
0.359451
0.349658
0.177779
0.189943
0.205225
0.226058
0.25427
0.290472
0.333295
0.377698
0.41075
0.414591
0.17552
0.188355
0.205152
0.228721
0.261646
0.305842
0.361922
0.426556
0.485776
0.520043
0.17616
0.190437
0.209354
0.236112
0.274203
0.327309
0.39913
0.489736
0.58964
0.69326
0.178036
0.193475
0.213835
0.242636
0.284335
0.344862
0.432566
0.555701
0.724465
1.00424
0.179519
0.194427
0.213611
0.240446
0.279649
0.338609
0.431353
0.585433
0.871684
1.48873
0.253962
0.261843
0.267715
0.272023
0.275615
0.278869
0.281051
0.281211
0.277677
0.266878
0.224971
0.240528
0.251893
0.261517
0.270606
0.279239
0.286255
0.290052
0.287905
0.274578
0.207432
0.222662
0.236038
0.249528
0.263949
0.278868
0.292433
0.301977
0.303028
0.287844
0.193769
0.207533
0.221672
0.238014
0.257355
0.279094
0.300849
0.318713
0.325711
0.310616
0.183812
0.196329
0.210843
0.229421
0.253246
0.282066
0.31355
0.342818
0.359887
0.3494
0.177787
0.189906
0.205146
0.225939
0.254112
0.290272
0.333052
0.377581
0.411109
0.414539
0.175534
0.188332
0.205084
0.228598
0.261449
0.305529
0.36149
0.426229
0.485746
0.520524
0.176204
0.190471
0.209375
0.236113
0.27415
0.327108
0.398762
0.489437
0.58828
0.692928
0.178106
0.193588
0.214018
0.242926
0.284765
0.345422
0.433311
0.556307
0.721214
1.00194
0.17957
0.194468
0.213632
0.240452
0.279665
0.338687
0.431714
0.585871
0.867993
1.49798
0.253962
0.261843
0.267715
0.272023
0.275615
0.278869
0.281051
0.281211
0.277677
0.266878
0.224971
0.240528
0.251893
0.261517
0.270606
0.279239
0.286255
0.290052
0.287905
0.274578
0.207432
0.222662
0.236038
0.249528
0.263949
0.278868
0.292433
0.301977
0.303028
0.287844
0.193769
0.207533
0.221672
0.238014
0.257355
0.279094
0.300849
0.318713
0.325711
0.310616
0.183812
0.196329
0.210843
0.229421
0.253246
0.282066
0.31355
0.342818
0.359887
0.3494
0.177787
0.189907
0.205146
0.22594
0.254112
0.290272
0.333052
0.377581
0.411109
0.414539
0.175534
0.188332
0.205084
0.228598
0.261449
0.305529
0.36149
0.426229
0.485746
0.520524
0.176204
0.190471
0.209375
0.236113
0.27415
0.327108
0.398762
0.489437
0.58828
0.692928
0.178106
0.193588
0.214018
0.242926
0.284765
0.345422
0.433311
0.556307
0.721214
1.00194
0.17957
0.194468
0.213632
0.240452
0.279666
0.338687
0.431714
0.585871
0.867993
1.49798
0.253632
0.262322
0.267844
0.272035
0.275618
0.278861
0.281047
0.281177
0.277482
0.26699
0.224539
0.240582
0.251952
0.26155
0.270628
0.279244
0.286262
0.290015
0.287642
0.274731
0.207171
0.222641
0.236067
0.249567
0.263987
0.278894
0.292462
0.301942
0.302687
0.28804
0.193677
0.207547
0.221722
0.238081
0.257427
0.27916
0.300922
0.318696
0.325298
0.310856
0.183785
0.196361
0.210912
0.229517
0.25336
0.282187
0.313688
0.34284
0.359451
0.349658
0.177779
0.189943
0.205225
0.226058
0.25427
0.290472
0.333295
0.377698
0.41075
0.414591
0.17552
0.188355
0.205152
0.228721
0.261646
0.305842
0.361922
0.426556
0.485776
0.520043
0.17616
0.190437
0.209354
0.236112
0.274203
0.327309
0.39913
0.489736
0.58964
0.69326
0.178036
0.193475
0.213835
0.242636
0.284335
0.344862
0.432566
0.555701
0.724465
1.00424
0.179519
0.194428
0.213611
0.240446
0.279649
0.338609
0.431353
0.585433
0.871685
1.48873
-0.152022
-0.131475
-0.113602
-0.0970749
-0.0805338
-0.0637864
-0.0468333
-0.0297154
-0.0124971
0.00474727
0.0219386
0.0390038
0.0558626
0.0724705
0.0888451
0.105167
0.121911
0.140105
0.163036
0.200674
-0.138426
-0.124961
-0.11049
-0.0952805
-0.0793885
-0.0630229
-0.0463187
-0.0293736
-0.0122734
0.00490563
0.0220959
0.0392339
0.0562839
0.0732393
0.090171
0.107284
0.124978
0.14388
0.165516
0.193453
-0.135392
-0.123369
-0.10967
-0.0948245
-0.0791494
-0.0629041
-0.0462591
-0.0293355
-0.0122269
0.00499124
0.0222569
0.0395187
0.0567425
0.073919
0.0910861
0.108361
0.125963
0.144195
0.163634
0.185243
-0.136695
-0.124338
-0.110437
-0.095441
-0.0796501
-0.0632995
-0.0465547
-0.0295336
-0.0123232
0.00501055
0.0224141
0.0398416
0.0572514
0.0746071
0.0918812
0.109063
0.126156
0.143169
0.160169
0.177282
-0.13954
-0.126467
-0.112045
-0.0966471
-0.0805489
-0.0639585
-0.047022
-0.0298406
-0.0124848
0.00499335
0.0225508
0.040144
0.05772
0.0752073
0.0925071
0.109487
0.125975
0.141765
0.156685
0.170697
-0.142157
-0.128419
-0.113491
-0.097703
-0.0813093
-0.064495
-0.0473863
-0.0300664
-0.0125907
0.00500053
0.0226711
0.040376
0.0580484
0.075584
0.0928269
0.109559
0.125505
0.140364
0.153918
0.166218
-0.142866
-0.128842
-0.11374
-0.0978414
-0.0813775
-0.064517
-0.0473751
-0.0300275
-0.0125245
0.0050961
0.0227965
0.0405253
0.0582016
0.0756983
0.0928274
0.109334
0.124914
0.139272
0.152253
0.164062
-0.140759
-0.127057
-0.112303
-0.0967246
-0.0805288
-0.0638808
-0.0469009
-0.0296735
-0.012259
0.00529469
0.0229392
0.0406112
0.0582177
0.0756201
0.0926229
0.108975
0.124396
0.138653
0.151696
0.163871
-0.135837
-0.123242
-0.109434
-0.0946169
-0.0790087
-0.0627992
-0.0461394
-0.0291431
-0.0118961
0.00553291
0.0230808
0.0406699
0.0581982
0.0755261
0.0924649
0.108783
0.124239
0.138654
0.152048
0.164834
-0.127764
-0.11743
-0.105342
-0.0917918
-0.0770909
-0.0615163
-0.0452934
-0.0285947
-0.0115492
0.00574418
0.0232004
0.0407397
0.058261
0.0756281
0.0926632
0.109147
0.124844
0.139565
0.153285
0.166316
-0.152376
-0.131352
-0.113586
-0.0970965
-0.0805462
-0.0637939
-0.0468386
-0.0297188
-0.0124988
0.00474696
0.0219391
0.0390046
0.0558627
0.0724678
0.0888356
0.105146
0.121888
0.140057
0.162703
0.200038
-0.138369
-0.124795
-0.110415
-0.0952444
-0.0793623
-0.0630046
-0.0463061
-0.0293651
-0.012268
0.00490889
0.0220981
0.0392365
0.056289
0.0732499
0.0901902
0.107317
0.125039
0.143955
0.16542
0.19319
-0.13545
-0.123343
-0.109646
-0.0948062
-0.0791346
-0.0628936
-0.0462518
-0.0293303
-0.0122233
0.0049936
0.0222584
0.0395197
0.0567432
0.0739192