/*--------------------------------*- C++ -*----------------------------------*\
| =========                 |                                                 |
| \\      /  F ield         | OpenFOAM: The Open Source CFD Toolbox           |
|  \\    /   O peration     | Version:  2.4.0                                 |
|   \\  /    A nd           | Web:      www.OpenFOAM.org                      |
|    \\/     M anipulation  |                                                 |
\*---------------------------------------------------------------------------*/
FoamFile
{
    version     2.0;
    format      ascii;
    class       surfaceScalarField;
    location    "1.8";
    object      phi;
}
// * * * * * * * * * * * * * * * * * * * * * * * * * * * * * * * * * * * * * //

dimensions      [0 3 -1 0 0 0 0];

internalField   nonuniform List<scalar> 
12720
(
1.30631e-07
-1.3056e-07
1.52568e-10
-5.65086e-07
6.93996e-07
1.72226e-09
-2.06106e-06
1.49344e-06
2.53414e-09
-4.11451e-06
2.05022e-06
3.23338e-09
-6.49741e-06
2.37925e-06
3.64898e-09
-9.02298e-06
2.52175e-06
3.82315e-09
-1.15376e-05
2.51073e-06
3.85663e-09
-1.39077e-05
2.36665e-06
3.49055e-09
-1.60173e-05
2.10626e-06
3.35348e-09
1.75752e-06
2.76986e-09
-1.77776e-05
-7.23485e-07
5.94298e-07
-1.37411e-09
-3.23407e-06
3.20419e-06
3.93602e-10
-7.30741e-06
5.56825e-06
-1.48279e-09
-1.2531e-05
7.27615e-06
-2.32811e-09
-1.84737e-05
8.32466e-06
-2.74332e-09
-2.47345e-05
8.78552e-06
-3.00028e-09
-3.09503e-05
8.7296e-06
-2.99371e-09
-3.67937e-05
8.21277e-06
-2.75999e-09
-4.19819e-05
7.29692e-06
-2.43678e-09
6.08596e-06
-2.11174e-09
-4.63083e-05
-1.64668e-06
2.2434e-06
-2.42147e-09
-5.93187e-06
7.48718e-06
2.19881e-09
-1.22691e-05
1.19054e-05
1.05327e-10
-2.00837e-05
1.50908e-05
-8.59056e-11
-2.88147e-05
1.70556e-05
1.21902e-10
-3.79302e-05
1.79008e-05
1.16881e-10
-4.69272e-05
1.77265e-05
1.30808e-10
-5.53346e-05
1.662e-05
1.88973e-10
-6.27362e-05
1.46983e-05
2.46651e-10
1.21742e-05
1.4622e-10
-6.88247e-05
-2.39189e-06
4.63879e-06
-3.49974e-09
-8.15954e-06
1.32518e-05
3.06583e-09
-1.63523e-05
2.00981e-05
-1.59356e-12
-2.62208e-05
2.49595e-05
-2.53612e-10
-3.70992e-05
2.79339e-05
1.0492e-10
-4.8366e-05
2.91675e-05
1.48489e-10
-5.94193e-05
2.87796e-05
1.88772e-10
-6.96718e-05
2.68723e-05
2.89179e-10
-7.85796e-05
2.36056e-05
4.74412e-10
1.93149e-05
4.12098e-10
-8.57206e-05
-2.9101e-06
7.55314e-06
-4.24961e-09
-9.74627e-06
2.00844e-05
3.57878e-09
-1.9279e-05
2.96313e-05
-3.96076e-10
-3.06149e-05
3.62963e-05
-8.61271e-10
-4.30085e-05
4.0328e-05
-5.04957e-10
-5.57777e-05
4.19372e-05
-4.76393e-10
-6.82488e-05
4.1251e-05
-4.19369e-10
-7.97319e-05
3.83556e-05
-2.32127e-10
-8.95403e-05
3.34137e-05
3.16532e-10
2.68579e-05
5.82105e-10
-9.7084e-05
-3.18452e-06
1.07423e-05
-4.60801e-09
-1.06078e-05
2.75037e-05
3.94385e-09
-2.08852e-05
3.99092e-05
-5.15402e-10
-3.30372e-05
4.84495e-05
-1.09069e-09
-4.62734e-05
5.35649e-05
-7.41162e-10
-5.98813e-05
5.55458e-05
-7.32354e-10
-7.31439e-05
5.45143e-05
-7.12221e-10
-8.52849e-05
5.04972e-05
-5.6441e-10
-9.5452e-05
4.35803e-05
5.31016e-10
3.4185e-05
1.58596e-09
-0.000102781
-3.21068e-06
1.39576e-05
-4.60548e-09
-1.0708e-05
3.4997e-05
4.03221e-09
-2.10828e-05
5.02845e-05
-5.48958e-10
-3.33354e-05
6.07033e-05
-1.19041e-09
-4.66685e-05
6.68989e-05
-8.95632e-10
-6.03726e-05
6.92508e-05
-9.29129e-10
-7.37264e-05
6.78691e-05
-1.03033e-09
-8.5905e-05
6.26771e-05
-1.24061e-09
-9.5892e-05
5.35665e-05
6.93659e-10
4.0679e-05
3.99548e-09
-0.00010239
-2.99699e-06
1.69588e-05
-4.24088e-09
-1.00592e-05
4.20554e-05
3.86024e-09
-1.98683e-05
6.0094e-05
-5.00838e-10
-3.14601e-05
7.22963e-05
-1.15883e-09
-4.40573e-05
7.94971e-05
-9.42355e-10
-5.69766e-05
8.21711e-05
-9.61596e-10
-6.95337e-05
8.04272e-05
-1.08854e-09
-8.09254e-05
7.40707e-05
-1.93866e-09
-9.00529e-05
6.26921e-05
2.01036e-09
4.56229e-05
1.39569e-08
-9.50107e-05
-2.57294e-06
1.95353e-05
-3.53935e-09
-8.74278e-06
4.82217e-05
3.49221e-09
-1.73663e-05
6.87179e-05
-3.47085e-10
-2.75446e-05
8.24756e-05
-9.76616e-10
-3.85166e-05
9.047e-05
-9.04396e-10
-4.9608e-05
9.32636e-05
-1.0013e-09
-6.01706e-05
9.09912e-05
-1.36697e-09
-6.94754e-05
8.33802e-05
-4.71296e-09
-7.6554e-05
6.9772e-05
-1.34067e-09
4.79598e-05
3.13331e-08
-7.89223e-05
-1.99807e-06
-2.57747e-09
2.15359e-05
-6.93472e-06
3.01638e-09
5.31553e-05
-1.38869e-05
-5.51158e-11
7.56701e-05
-2.20212e-05
-5.57714e-10
9.06104e-05
-3.05467e-05
-6.11581e-10
9.89961e-05
-3.86969e-05
-9.38984e-10
0.000101415
-4.57048e-05
-2.0298e-09
9.80011e-05
-5.06953e-05
-1.19447e-08
8.83826e-05
-5.25825e-05
-2.76983e-08
7.1687e-05
8.98227e-09
-5.01611e-05
4.55293e-05
1.32118e-07
-1.31987e-07
2.16323e-11
-5.65682e-07
6.99509e-07
1.30254e-11
-2.06179e-06
1.49863e-06
7.59985e-12
-4.11463e-06
2.05607e-06
5.23008e-12
-6.49726e-06
2.38627e-06
3.57583e-12
-9.02279e-06
2.52935e-06
2.65568e-12
-1.15374e-05
2.51844e-06
2.49178e-12
-1.39079e-05
2.37401e-06
2.48534e-12
-1.60177e-05
2.1131e-06
1.8463e-12
1.76324e-06
1.45763e-12
-1.77781e-05
-7.2834e-07
5.94965e-07
1.3862e-11
-3.23949e-06
3.21104e-06
1.01948e-11
-7.31217e-06
5.56982e-06
7.04308e-12
-1.25343e-05
7.27585e-06
5.53372e-12
-1.84752e-05
8.32446e-06
4.24127e-12
-2.47345e-05
8.78561e-06
3.37116e-12
-3.09491e-05
8.7301e-06
3.10219e-12
-3.67917e-05
8.2138e-06
2.83268e-12
-4.19795e-05
7.29853e-06
2.33979e-12
6.08743e-06
1.89954e-12
-4.63058e-05
-1.65198e-06
2.24452e-06
8.69976e-12
-5.93261e-06
7.49386e-06
7.60804e-12
-1.22699e-05
1.19072e-05
6.13052e-12
-2.00846e-05
1.50905e-05
5.35648e-12
-2.88152e-05
1.70551e-05
4.40395e-12
-3.79301e-05
1.79006e-05
3.6465e-12
-4.69266e-05
1.77268e-05
3.39062e-12
-5.53339e-05
1.66212e-05
3.07141e-12
-6.27357e-05
1.47006e-05
2.55028e-12
1.21763e-05
2.08274e-12
-6.88244e-05
-2.39846e-06
4.63947e-06
6.65187e-12
-8.15845e-06
1.32569e-05
6.19249e-12
-1.63511e-05
2.00998e-05
5.4147e-12
-2.62205e-05
2.49596e-05
5.10462e-12
-3.7099e-05
2.79338e-05
4.42066e-12
-4.83658e-05
2.91676e-05
3.79845e-12
-5.94189e-05
2.87801e-05
3.55198e-12
-6.96714e-05
2.68739e-05
3.2294e-12
-7.85797e-05
2.36094e-05
2.67942e-12
1.93187e-05
2.16248e-12
-8.57217e-05
-2.91824e-06
7.55346e-06
6.20639e-12
-9.74492e-06
2.00872e-05
5.80074e-12
-1.92774e-05
2.96319e-05
5.36985e-12
-3.06145e-05
3.62958e-05
5.25641e-12
-4.30084e-05
4.03272e-05
4.7016e-12
-5.57776e-05
4.19363e-05
4.11607e-12
-6.82485e-05
4.12505e-05
3.81309e-12
-7.97312e-05
3.83564e-05
3.38984e-12
-8.95404e-05
3.3419e-05
2.74379e-12
2.68648e-05
2.18877e-12
-9.7086e-05
-3.19349e-06
1.07423e-05
6.0267e-12
-1.06064e-05
2.7504e-05
5.71806e-12
-2.08836e-05
3.99086e-05
5.47038e-12
-3.30371e-05
4.84482e-05
5.35958e-12
-4.62738e-05
5.35631e-05
4.83285e-12
-5.98819e-05
5.55437e-05
4.25457e-12
-7.31442e-05
5.45121e-05
3.85218e-12
-8.52841e-05
5.04958e-05
3.31232e-12
-9.54519e-05
4.35872e-05
2.61735e-12
3.41991e-05
2.07732e-12
-0.000102785
-3.21971e-06
1.39574e-05
5.68101e-12
-1.07067e-05
3.4995e-05
5.45516e-12
-2.10814e-05
5.02829e-05
5.29304e-12
-3.33358e-05
6.07013e-05
5.13751e-12
-4.66698e-05
6.68963e-05
4.58112e-12
-6.03746e-05
6.92475e-05
4.0159e-12
-7.37282e-05
6.78647e-05
3.59814e-12
-8.59048e-05
6.26711e-05
3.07299e-12
-9.58907e-05
5.35739e-05
2.33991e-12
4.07103e-05
1.78084e-12
-0.000102398
-3.00536e-06
1.69585e-05
5.33647e-12
-1.0058e-05
4.20515e-05
5.17106e-12
-1.98673e-05
6.00916e-05
5.04347e-12
-3.14612e-05
7.2294e-05
4.76875e-12
-4.40598e-05
7.9494e-05
4.20661e-12
-5.69803e-05
8.21671e-05
3.71194e-12
-6.95377e-05
8.0421e-05
3.37861e-12
-8.09251e-05
7.40565e-05
2.98824e-12
-9.00405e-05
6.26913e-05
2.30216e-12
4.57031e-05
1.67647e-12
-9.50193e-05
-2.57998e-06
1.9535e-05
4.97538e-12
-8.74163e-06
4.82166e-05
4.84885e-12
-1.73656e-05
6.87153e-05
4.75121e-12
-2.75464e-05
8.24738e-05
4.40121e-12
-3.85211e-05
9.04678e-05
3.84921e-12
-4.96161e-05
9.3261e-05
3.41893e-12
-6.01843e-05
9.09878e-05
3.25303e-12
-6.9494e-05
8.33615e-05
3.08422e-12
-7.65304e-05
6.97263e-05
2.53285e-12
4.80742e-05
1.96247e-12
-7.88701e-05
-2.00322e-06
4.46421e-12
2.15356e-05
-6.9333e-06
4.41605e-12
5.31497e-05
-1.38857e-05
4.33106e-12
7.56676e-05
-2.20221e-05
3.9437e-12
9.06096e-05
-3.05513e-05
3.435e-12
9.89964e-05
-3.87085e-05
3.10587e-12
0.000101417
-4.57327e-05
3.0394e-12
9.80101e-05
-5.07807e-05
3.03266e-12
8.83975e-05
-5.27184e-05
2.61962e-12
7.16364e-05
2.16429e-12
-4.99398e-05
4.53046e-05
1.32104e-07
-1.32e-07
-8.23816e-11
-5.65689e-07
6.99503e-07
-1.69668e-09
-2.06179e-06
1.49863e-06
-2.52201e-09
-4.11463e-06
2.05607e-06
-3.22638e-09
-6.49725e-06
2.38627e-06
-3.64373e-09
-9.02278e-06
2.52935e-06
-3.81916e-09
-1.15374e-05
2.51844e-06
-3.85358e-09
-1.39079e-05
2.37401e-06
-3.48582e-09
-1.60176e-05
2.1131e-06
-3.351e-09
1.76324e-06
-2.76781e-09
-1.77781e-05
-7.28345e-07
5.94957e-07
1.40099e-09
-3.23949e-06
3.21103e-06
-3.77065e-10
-7.31216e-06
5.56981e-06
1.49361e-09
-1.25343e-05
7.27584e-06
2.33551e-09
-1.84752e-05
8.32445e-06
2.74923e-09
-2.47344e-05
8.7856e-06
3.00527e-09
-3.09491e-05
8.73009e-06
2.99789e-09
-3.67916e-05
8.2138e-06
2.76365e-09
-4.19795e-05
7.29853e-06
2.43992e-09
6.08743e-06
2.11438e-09
-4.63058e-05
-1.65198e-06
2.24451e-06
2.43598e-09
-5.93261e-06
7.49385e-06
-2.18729e-09
-1.22698e-05
1.19071e-05
-9.61457e-11
-2.00846e-05
1.50905e-05
9.29474e-11
-2.88151e-05
1.70551e-05
-1.15743e-10
-3.793e-05
1.79006e-05
-1.11448e-10
-4.69266e-05
1.77268e-05
-1.26153e-10
-5.53338e-05
1.66212e-05
-1.84814e-10
-6.27356e-05
1.47006e-05
-2.43019e-10
1.21763e-05
-1.43184e-10
-6.88243e-05
-2.39846e-06
4.63947e-06
3.51047e-09
-8.15844e-06
1.32569e-05
-3.05612e-09
-1.63511e-05
2.00998e-05
1.0102e-11
-2.62204e-05
2.49596e-05
2.60705e-10
-3.70989e-05
2.79337e-05
-9.83349e-11
-4.83657e-05
2.91675e-05
-1.42567e-10
-5.94188e-05
2.87801e-05
-1.83604e-10
-6.96713e-05
2.68739e-05
-2.84579e-10
-7.85796e-05
2.36094e-05
-4.70393e-10
1.93187e-05
-4.08761e-10
-8.57216e-05
-2.91824e-06
7.55345e-06
4.25883e-09
-9.74491e-06
2.00871e-05
-3.57011e-09
-1.92774e-05
2.96319e-05
4.03959e-10
-3.06144e-05
3.62957e-05
8.68176e-10
-4.30083e-05
4.03271e-05
5.11588e-10
-5.57776e-05
4.19363e-05
4.82427e-10
-6.82484e-05
4.12505e-05
4.24596e-10
-7.97311e-05
3.83564e-05
2.3677e-10
-8.95403e-05
3.3419e-05
-3.1245e-10
2.68648e-05
-5.78746e-10
-9.70859e-05
-3.19348e-06
1.07423e-05
4.61675e-09
-1.06063e-05
2.75039e-05
-3.93567e-09
-2.08836e-05
3.99086e-05
5.23018e-10
-3.3037e-05
4.84481e-05
1.09763e-09
-4.62737e-05
5.35631e-05
7.47857e-10
-5.98818e-05
5.55437e-05
7.38408e-10
-7.31441e-05
5.4512e-05
7.17447e-10
-8.5284e-05
5.04957e-05
5.69029e-10
-9.54518e-05
4.35872e-05
-5.26986e-10
3.41991e-05
-1.58267e-09
-0.000102784
-3.2197e-06
1.39574e-05
4.61392e-09
-1.07066e-05
3.49949e-05
-4.02425e-09
-2.10814e-05
5.02828e-05
5.56472e-10
-3.33358e-05
6.07013e-05
1.19732e-09
-4.66698e-05
6.68962e-05
9.02272e-10
-6.03745e-05
6.92475e-05
9.35048e-10
-7.37282e-05
6.78646e-05
1.03538e-09
-8.59047e-05
6.2671e-05
1.245e-09
-9.58906e-05
5.35739e-05
-6.89809e-10
4.07103e-05
-3.99236e-09
-0.000102398
-3.00535e-06
1.69585e-05
4.24873e-09
-1.0058e-05
4.20514e-05
-3.85267e-09
-1.98673e-05
6.00916e-05
5.07962e-10
-3.14611e-05
7.22939e-05
1.16546e-09
-4.40598e-05
7.94939e-05
9.4859e-10
-5.69803e-05
8.2167e-05
9.67082e-10
-6.95376e-05
8.04209e-05
1.09323e-09
-8.0925e-05
7.40565e-05
1.94264e-09
-9.00405e-05
6.26913e-05
-2.00689e-09
4.57031e-05
-1.3954e-08
-9.50192e-05
-2.57998e-06
1.95349e-05
3.54651e-09
-8.74162e-06
4.82165e-05
-3.48514e-09
-1.73656e-05
6.87152e-05
3.53713e-10
-2.75464e-05
8.24737e-05
9.82799e-10
-3.85211e-05
9.04677e-05
9.10157e-10
-4.96161e-05
9.3261e-05
1.00644e-09
-6.01843e-05
9.09878e-05
1.37136e-09
-6.9494e-05
8.33614e-05
4.71655e-09
-7.65303e-05
6.97263e-05
1.34366e-09
4.80742e-05
-3.13307e-08
-7.88701e-05
-2.00321e-06
2.58391e-09
2.15356e-05
-6.93329e-06
-3.00993e-09
5.31496e-05
-1.38857e-05
6.1176e-11
7.56676e-05
-2.20221e-05
5.63428e-10
9.06096e-05
-3.05513e-05
6.16956e-10
9.89963e-05
-3.87084e-05
9.43918e-10
0.000101417
-4.57327e-05
2.0342e-09
9.801e-05
-5.07807e-05
1.19482e-08
8.83974e-05
-5.27184e-05
2.77012e-08
7.16364e-05
-8.97989e-09
-4.99398e-05
4.53046e-05
1.30552e-07
-1.30635e-07
-5.65115e-07
6.93975e-07
-2.06106e-06
1.49343e-06
-4.1145e-06
2.05021e-06
-6.49739e-06
2.37924e-06
-9.02295e-06
2.52174e-06
-1.15375e-05
2.51073e-06
-1.39077e-05
2.36665e-06
-1.60173e-05
2.10626e-06
1.75752e-06
-1.77776e-05
-7.23504e-07
5.94267e-07
-3.23408e-06
3.20417e-06
-7.30739e-06
5.56823e-06
-1.2531e-05
7.27613e-06
-1.84736e-05
8.32464e-06
-2.47344e-05
8.7855e-06
-3.09502e-05
8.72959e-06
-3.67936e-05
8.21276e-06
-4.19818e-05
7.29691e-06
6.08595e-06
-4.63081e-05
-1.64668e-06
2.24339e-06
-5.93185e-06
7.48715e-06
-1.22691e-05
1.19053e-05
-2.00836e-05
1.50908e-05
-2.88146e-05
1.70555e-05
-3.793e-05
1.79008e-05
-4.6927e-05
1.77264e-05
-5.53345e-05
1.662e-05
-6.2736e-05
1.46982e-05
1.21742e-05
-6.88245e-05
-2.39188e-06
4.63877e-06
-8.1595e-06
1.32517e-05
-1.63522e-05
2.00981e-05
-2.62207e-05
2.49595e-05
-3.7099e-05
2.79338e-05
-4.83658e-05
2.91674e-05
-5.94191e-05
2.87795e-05
-6.96716e-05
2.68722e-05
-7.85793e-05
2.36055e-05
1.93149e-05
-8.57204e-05
-2.91008e-06
7.55311e-06
-9.74622e-06
2.00843e-05
-1.92789e-05
2.96312e-05
-3.06148e-05
3.62962e-05
-4.30084e-05
4.03279e-05
-5.57776e-05
4.19371e-05
-6.82486e-05
4.1251e-05
-7.97317e-05
3.83555e-05
-8.95401e-05
3.34137e-05
2.68579e-05
-9.70837e-05
-3.1845e-06
1.07422e-05
-1.06077e-05
2.75036e-05
-2.08851e-05
3.99091e-05
-3.30371e-05
4.84493e-05
-4.62733e-05
5.35648e-05
-5.98811e-05
5.55457e-05
-7.31437e-05
5.45142e-05
-8.52846e-05
5.04971e-05
-9.54517e-05
4.35802e-05
3.41849e-05
-0.00010278
-3.21066e-06
1.39575e-05
-1.0708e-05
3.49969e-05
-2.10827e-05
5.02844e-05
-3.33353e-05
6.07031e-05
-4.66684e-05
6.68988e-05
-6.03725e-05
6.92507e-05
-7.37262e-05
6.7869e-05
-8.59049e-05
6.2677e-05
-9.58918e-05
5.35665e-05
4.0679e-05
-0.00010239
-2.99698e-06
1.69587e-05
-1.00592e-05
4.20552e-05
-1.98682e-05
6.00939e-05
-3.146e-05
7.22961e-05
-4.40572e-05
7.94969e-05
-5.69765e-05
8.2171e-05
-6.95336e-05
8.04271e-05
-8.09253e-05
7.40706e-05
-9.00528e-05
6.2692e-05
4.56228e-05
-9.50106e-05
-2.57293e-06
1.95352e-05
-8.74274e-06
4.82216e-05
-1.73662e-05
6.87177e-05
-2.75445e-05
8.24754e-05
-3.85165e-05
9.04698e-05
-4.9608e-05
9.32634e-05
-6.01706e-05
9.09911e-05
-6.94753e-05
8.33801e-05
-7.65539e-05
6.9772e-05
4.79598e-05
-7.89222e-05
-1.99806e-06
2.15359e-05
-6.93469e-06
5.31552e-05
-1.38869e-05
7.56699e-05
-2.20212e-05
9.06103e-05
-3.05467e-05
9.89959e-05
-3.86969e-05
0.000101415
-4.57047e-05
9.8001e-05
-5.06952e-05
8.83826e-05
-5.25825e-05
7.1687e-05
-5.01611e-05
4.55293e-05
-1.91492e-05
1.3695e-06
2.06867e-09
-2.01534e-05
1.00276e-06
1.43776e-09
-2.08516e-05
6.97288e-07
9.45112e-10
-2.1319e-05
4.66757e-07
5.91333e-10
-2.16264e-05
3.0711e-07
3.58389e-10
-2.18329e-05
2.06236e-07
2.18642e-10
-2.19839e-05
1.50828e-07
1.46015e-10
-2.21137e-05
1.29752e-07
1.20759e-10
-2.22486e-05
1.34759e-07
1.29552e-10
-2.24085e-05
1.59702e-07
1.64234e-10
-2.26077e-05
1.98996e-07
2.19194e-10
-2.28537e-05
2.45716e-07
2.88766e-10
-2.31436e-05
2.89495e-07
3.64244e-10
-2.34585e-05
3.14475e-07
4.30648e-10
-2.37568e-05
2.97853e-07
4.63538e-10
-2.39673e-05
2.10118e-07
4.25384e-10
-2.39854e-05
1.78201e-08
2.62429e-10
-2.36781e-05
-3.07208e-07
-6.91909e-11
-2.2902e-05
-7.75509e-07
-6.4832e-10
-1.36276e-06
-1.51377e-09
-2.15377e-05
-4.96882e-05
4.75128e-06
-1.87093e-09
-5.21804e-05
3.49655e-06
-1.56001e-09
-5.39344e-05
2.45247e-06
-1.22949e-09
-5.51283e-05
1.66168e-06
-9.342e-10
-5.59297e-05
1.10918e-06
-6.9327e-10
-5.64771e-05
7.5416e-07
-5.15801e-10
-5.68778e-05
5.51881e-07
-4.00754e-10
-5.72119e-05
4.64174e-07
-3.40351e-10
-5.75384e-05
4.61633e-07
-3.24285e-10
-5.78995e-05
5.21154e-07
-3.40643e-10
-5.83213e-05
6.21192e-07
-3.75396e-10
-5.88111e-05
7.35914e-07
-4.10307e-10
-5.93502e-05
8.28981e-07
-4.20485e-10
-5.98832e-05
8.47819e-07
-3.72951e-10
-6.03051e-05
7.20032e-07
-2.27848e-10
-6.04501e-05
3.5504e-07
5.34557e-11
-6.00881e-05
-3.44677e-07
5.02323e-10
-5.89374e-05
-1.45906e-06
1.10911e-09
-5.67051e-05
-3.00965e-06
1.83677e-09
-4.91037e-06
2.51808e-09
-5.316e-05
-7.34863e-05
9.4132e-06
-2.36956e-10
-7.68481e-05
6.85868e-06
-4.06277e-10
-7.91657e-05
4.77059e-06
-4.41496e-10
-8.07168e-05
3.21312e-06
-4.17151e-10
-8.1744e-05
2.13673e-06
-3.54725e-10
-8.24376e-05
1.44807e-06
-2.82121e-10
-8.29381e-05
1.05262e-06
-2.16798e-10
-8.33463e-05
8.72581e-07
-1.65169e-10
-8.37336e-05
8.49004e-07
-1.27891e-10
-8.41482e-05
9.35906e-07
-1.0233e-10
-8.46179e-05
1.09089e-06
-8.40516e-11
-8.51461e-05
1.26427e-06
-6.73738e-11
-8.57048e-05
1.38765e-06
-4.56087e-11
-8.62205e-05
1.36352e-06
-1.04145e-11
-8.65587e-05
1.05822e-06
4.87795e-11
-8.65077e-05
3.03939e-07
1.36484e-10
-8.57707e-05
-1.08199e-06
2.48237e-10
-8.39756e-05
-3.25455e-06
3.81135e-10
-8.07218e-05
-6.26395e-06
5.15913e-10
-9.9559e-06
4.37073e-10
-7.56767e-05
-9.09512e-05
1.46441e-05
-3.6508e-10
-9.45273e-05
1.04353e-05
-5.86799e-10
-9.6863e-05
7.1069e-06
-5.79257e-10
-9.83489e-05
4.69957e-06
-5.13394e-10
-9.92895e-05
3.0777e-06
-4.0774e-10
-9.99e-05
2.05885e-06
-3.01337e-10
-0.000100325
1.47832e-06
-2.13554e-10
-0.000100662
1.20958e-06
-1.47263e-10
-0.000100974
1.16127e-06
-1.00083e-10
-0.000101303
1.26491e-06
-6.79782e-11
-0.000101672
1.45948e-06
-4.67975e-11
-0.000102083
1.67496e-06
-3.25828e-11
-0.00010251
1.8154e-06
-2.17503e-11
-0.000102889
1.74266e-06
-8.10007e-12
-0.000103095
1.26333e-06
2.55219e-11
-0.000102916
1.25615e-07
9.07773e-11
-0.000102041
-1.95736e-06
1.54513e-10
-0.000100039
-5.25727e-06
2.75569e-10
-9.63945e-05
-9.9087e-06
5.08628e-10
-1.5733e-05
4.45041e-10
-9.06178e-05
-0.000102153
1.97137e-05
-9.93052e-10
-0.000105251
1.35347e-05
-1.10638e-09
-0.000107041
8.8977e-06
-8.89103e-10
-0.000108044
5.70311e-06
-6.932e-10
-0.000108603
3.63747e-06
-4.86817e-10
-0.000108924
2.38063e-06
-3.19111e-10
-0.000109125
1.67954e-06
-2.03468e-10
-0.000109272
1.35672e-06
-1.2897e-10
-0.000109404
1.293e-06
-8.40873e-11
-0.000109544
1.40466e-06
-5.98712e-11
-0.000109705
1.62101e-06
-5.01104e-11
-0.000109893
1.86291e-06
-5.04836e-11
-0.000110099
2.02101e-06
-5.81916e-11
-0.000110289
1.9331e-06
-6.54485e-11
-0.000110388
1.36199e-06
-3.54858e-11
-0.000110238
-2.38057e-08
6.33659e-11
-0.000109568
-2.62734e-06
1.06316e-10
-0.000107924
-6.9016e-06
2.78549e-10
-0.000104657
-1.3177e-05
8.81689e-10
-2.13882e-05
1.23703e-09
-9.90029e-05
-0.000106874
2.38095e-05
-2.14064e-09
-0.000108743
1.5405e-05
-1.80538e-09
-0.000109433
9.58957e-06
-1.11733e-09
-0.000109593
5.86364e-06
-7.46556e-10
-0.000109551
3.59597e-06
-4.38386e-10
-0.000109451
2.2809e-06
-2.3047e-10
-0.000109345
1.57308e-06
-1.13954e-10
-0.000109244
1.25555e-06
-5.23849e-11
-0.000109146
1.19556e-06
-2.23482e-11
-0.000109049
1.30766e-06
-1.07994e-11
-0.000108953
1.525e-06
-1.13178e-11
-0.000108865
1.77508e-06
-2.16238e-11
-0.0001088
1.95572e-06
-4.22952e-11
-0.000108775
1.90779e-06
-7.08419e-11
-0.000108796
1.38313e-06
-7.15788e-11
-0.000108816
-3.3157e-09
-7.03457e-12
-0.000108682
-2.7614e-06
4.15646e-12
-0.000107992
-7.59156e-06
1.64172e-10
-0.000105973
-1.51973e-05
1.49656e-09
-2.59453e-05
3.11019e-09
-0.000101419
-0.000104502
2.59274e-05
-5.71979e-09
-0.000104323
1.52296e-05
-3.7311e-09
-0.000103446
8.71459e-06
-1.70194e-09
-0.000102551
4.96911e-06
-8.86125e-10
-0.000101836
2.88128e-06
-3.7577e-10
-0.000101307
1.75198e-06
-1.15071e-10
-0.00010091
1.17625e-06
-1.32978e-11
-0.000100586
9.30964e-07
2.0053e-11
-0.000100284
8.94378e-07
2.44336e-11
-9.99731e-05
9.96413e-07
1.55389e-11
-9.96358e-05
1.1877e-06
-1.58104e-12
-9.92778e-05
1.41704e-06
-2.64979e-11
-9.89318e-05
1.60986e-06
-5.96098e-11
-9.86656e-05
1.64165e-06
-1.05327e-10
-9.85814e-05
1.29908e-06
-1.59823e-10
-9.88028e-05
2.18253e-07
-1.292e-10
-9.93749e-05
-2.18937e-06
8.14399e-11
-0.000100121
-6.8463e-06
4.69295e-10
-0.000100273
-1.50484e-05
3.58302e-09
-2.82252e-05
8.53493e-09
-9.80018e-05
-9.37145e-05
2.46409e-05
-9.73854e-09
-9.07075e-05
1.22265e-05
-3.89735e-09
-8.80908e-05
6.09865e-06
-7.69207e-10
-8.62419e-05
3.12047e-06
-2.99034e-10
-8.50259e-05
1.66533e-06
3.55462e-11
-8.42307e-05
9.56631e-07
1.5448e-10
-8.36793e-05
6.2466e-07
1.45504e-10
-8.32449e-05
4.96432e-07
1.19123e-10
-8.28412e-05
4.90589e-07
9.8498e-11
-8.24117e-05
5.668e-07
8.40475e-11
-8.19247e-05
7.00712e-07
7.18933e-11
-8.13766e-05
8.68818e-07
5.60528e-11
-8.08017e-05
1.03497e-06
2.78414e-11
-8.02921e-05
1.13207e-06
-3.859e-11
-8.00227e-05
1.0298e-06
-1.46856e-10
-8.02738e-05
4.6951e-07
-8.94229e-11
-8.13938e-05
-1.06948e-06
7.90041e-11
-8.36735e-05
-4.56613e-06
-4.44302e-10
-8.67868e-05
-1.19384e-05
3.18672e-09
-2.66481e-05
1.36854e-08
-8.83776e-05
-7.1705e-05
1.74358e-05
-1.22041e-08
-6.56791e-05
6.19522e-06
5.37959e-09
-6.19845e-05
2.39816e-06
5.96399e-09
-5.98708e-05
1.0042e-06
2.51001e-09
-5.86661e-05
4.59373e-07
1.28406e-09
-5.79507e-05
2.40478e-07
7.7089e-10
-5.74811e-05
1.5456e-07
4.75382e-10
-5.71149e-05
1.29883e-07
3.53002e-10
-5.67646e-05
1.3995e-07
3.35624e-10
-5.6373e-05
1.74865e-07
3.76981e-10
-5.59033e-05
2.30568e-07
4.53306e-10
-5.5339e-05
3.03967e-07
5.4431e-10
-5.46939e-05
3.89235e-07
6.14609e-10
-5.40344e-05
4.72016e-07
5.72235e-10
-5.35213e-05
5.16374e-07
2.95959e-10
-5.34892e-05
4.37571e-07
-1.58057e-10
-5.44896e-05
-6.7478e-08
-1.64781e-09
-5.75006e-05
-1.54774e-06
-7.35648e-09
-6.35576e-05
-5.87149e-06
-9.83387e-09
-1.85452e-05
1.49997e-08
-7.16755e-05
-3.26581e-05
-6.71157e-08
-2.64518e-05
-1.11245e-08
-2.40529e-05
-7.2805e-10
-2.30469e-05
-1.79245e-09
-2.25864e-05
-1.15721e-09
-2.23453e-05
-5.33068e-10
-2.21905e-05
-2.95889e-10
-2.20604e-05
-2.05748e-10
-2.19203e-05
-1.79204e-10
-2.17452e-05
-1.95702e-10
-2.15144e-05
-2.42444e-10
-2.12101e-05
-3.0705e-10
-2.08205e-05
-3.72043e-10
-2.03481e-05
-4.06236e-10
-1.98314e-05
-2.94885e-10
-1.93941e-05
2.76666e-10
-1.94624e-05
8.13672e-10
-2.10078e-05
-2.38468e-09
-2.68843e-05
5.02077e-09
8.38709e-08
-4.55134e-05
-1.91497e-05
1.37361e-06
1.27091e-12
-2.01538e-05
1.00552e-06
1.13653e-12
-2.08519e-05
6.99063e-07
9.3649e-13
-2.13191e-05
4.67835e-07
6.48661e-13
-2.16265e-05
3.07746e-07
3.59534e-13
-2.18329e-05
2.06622e-07
1.769e-13
-2.19839e-05
1.51099e-07
8.15498e-14
-2.21138e-05
1.29999e-07
5.41441e-15
-2.22487e-05
1.35047e-07
-6.04212e-15
-2.24086e-05
1.60074e-07
-3.70272e-14
-2.26078e-05
1.99485e-07
-8.68376e-14
-2.28539e-05
2.46339e-07
-1.21198e-13
-2.31438e-05
2.90244e-07
-1.37741e-13
-2.34587e-05
3.15312e-07
-1.03661e-13
-2.37569e-05
2.98693e-07
3.76098e-14
-2.39673e-05
2.10803e-07
3.503e-13
-2.39851e-05
1.81121e-08
7.95124e-13
-2.36777e-05
-3.07496e-07
1.34861e-12
-2.29015e-05
-7.76807e-07
1.97728e-12
-1.36567e-06
2.58433e-12
-2.15374e-05
-4.96856e-05
4.75148e-06
1.64262e-12
-5.21778e-05
3.49618e-06
1.42173e-12
-5.3932e-05
2.45202e-06
1.16512e-12
-5.51264e-05
1.66129e-06
8.50762e-13
-5.59282e-05
1.1089e-06
5.13858e-13
-5.64761e-05
7.53977e-07
2.96055e-13
-5.68772e-05
5.51767e-07
2.12214e-13
-5.72116e-05
4.64096e-07
1.51697e-13
-5.75384e-05
4.61554e-07
8.88842e-14
-5.78997e-05
5.21041e-07
1.47693e-14
-5.83216e-05
6.21009e-07
-3.80314e-14
-5.88113e-05
7.35628e-07
-4.69755e-14
-5.93501e-05
8.28572e-07
-4.43109e-14
-5.98825e-05
8.47298e-07
8.69355e-15
-6.03035e-05
7.19479e-07
1.72942e-13
-6.04472e-05
3.54617e-07
4.42202e-13
-6.00839e-05
-3.44722e-07
7.96657e-13
-5.8932e-05
-1.45829e-06
1.22431e-12
-5.66992e-05
-3.00777e-06
1.69451e-12
-4.90801e-06
2.15562e-12
-5.31543e-05
-7.34854e-05
9.41226e-06
1.76834e-12
-7.68465e-05
6.85684e-06
1.50091e-12
-7.91639e-05
4.769e-06
1.26826e-12
-8.0715e-05
3.21196e-06
9.97292e-13
-8.17424e-05
2.13598e-06
7.15091e-13
-8.24364e-05
1.44765e-06
5.12832e-13
-8.29372e-05
1.0524e-06
3.55217e-13
-8.33458e-05
8.72466e-07
2.56443e-13
-8.37333e-05
8.4891e-07
1.47575e-13
-8.41481e-05
9.35762e-07
4.6003e-14
-8.46178e-05
1.09064e-06
-3.87042e-14
-8.51461e-05
1.26383e-06
-7.27739e-14
-8.57045e-05
1.387e-06
-6.80291e-14
-8.62199e-05
1.36264e-06
-3.46518e-14
-8.65576e-05
1.05724e-06
6.34825e-14
-8.65059e-05
3.03099e-07
2.18905e-13
-8.57681e-05
-1.08234e-06
4.74675e-13
-8.39724e-05
-3.25363e-06
7.98238e-13
-8.07187e-05
-6.26096e-06
1.17628e-12
-9.95205e-06
1.56699e-12
-7.56742e-05
-9.09507e-05
1.46409e-05
1.78539e-12
-9.45255e-05
1.04311e-05
1.47416e-12
-9.68608e-05
7.10373e-06
1.25889e-12
-9.83468e-05
4.69745e-06
1.04553e-12
-9.92877e-05
3.07645e-06
8.29003e-13
-9.98986e-05
2.05821e-06
6.34724e-13
-0.000100324
1.47804e-06
4.29213e-13
-0.000100662
1.20947e-06
3.28417e-13
-0.000100974
1.1612e-06
1.97539e-13
-0.000101303
1.2648e-06
4.93319e-14
-0.000101672
1.45925e-06
-7.12614e-14
-0.000102082
1.67452e-06
-1.27874e-13
-0.00010251
1.81467e-06
-1.08513e-13
-0.000102889
1.7416e-06
-2.36543e-14
-0.000103094
1.26206e-06
9.33687e-14
-0.000102915
1.24606e-07
2.92908e-13
-0.000102039
-1.95813e-06
5.24966e-13
-0.000100036
-5.2564e-06
7.40388e-13
-9.63925e-05
-9.9043e-06
9.30468e-13
-1.57271e-05
1.15217e-12
-9.0617e-05
-0.000102151
1.97053e-05
1.80002e-12
-0.000105248
1.35263e-05
1.44896e-12
-0.000107037
8.89257e-06
1.21048e-12
-0.000108041
5.70012e-06
1.01744e-12
-0.000108601
3.63591e-06
8.0101e-13
-0.000108923
2.37994e-06
6.07977e-13
-0.000109124
1.67929e-06
3.64634e-13
-0.000109272
1.35666e-06
2.77123e-13
-0.000109403
1.29299e-06
2.27506e-13
-0.000109543
1.40459e-06
1.07777e-13
-0.000109705
1.6208e-06
-3.29753e-14
-0.000109893
1.86246e-06
-1.38488e-13
-0.000110098
2.02021e-06
-1.65628e-13
-0.000110289
1.93185e-06
-1.2216e-13
-0.000110387
1.36031e-06
-5.27751e-14
-0.000110238
-2.46515e-08
2.83884e-14
-0.000109567
-2.6289e-06
3.66786e-14
-0.000107922
-6.90119e-06
-1.02472e-14
-0.000104655
-1.31704e-05
-4.31684e-14
-2.13775e-05
8.61342e-14
-9.90032e-05
-0.000106871
2.37899e-05
1.73674e-12
-0.000108737
1.53903e-05
1.41864e-12
-0.000109429
9.58303e-06
1.18024e-12
-0.00010959
5.86059e-06
1.0326e-12
-0.000109549
3.59473e-06
8.26278e-13
-0.00010945
2.28054e-06
5.6667e-13
-0.000109344
1.57307e-06
2.70134e-13
-0.000109243
1.25565e-06
1.51e-13
-0.000109146
1.19565e-06
1.34945e-13
-0.000109049
1.30766e-06
6.32799e-14
-0.000108953
1.52485e-06
-7.47139e-14
-0.000108865
1.7747e-06
-2.10656e-13
-0.0001088
1.95496e-06
-2.61922e-13
-0.000108775
1.90649e-06
-2.54951e-13
-0.000108795
1.38101e-06
-3.04024e-13
-0.000108816
-3.97445e-09
-5.20879e-13
-0.000108681
-2.7643e-06
-7.3094e-13
-0.000107989
-7.59258e-06
-9.77186e-13
-0.000105971
-1.51873e-05
-1.12828e-12
-2.59231e-05
-9.70437e-13
-0.000101422
-0.000104495
2.58811e-05
1.57017e-12
-0.000104313
1.52048e-05
1.30399e-12
-0.00010344
8.70809e-06
1.07609e-12
-0.000102548
4.96735e-06
9.86169e-13
-0.000101834
2.88106e-06
8.70998e-13
-0.000101306
1.75226e-06
6.15133e-13
-0.00010091
1.17656e-06
2.83978e-13
-0.000100585
9.31192e-07
1.28859e-13
-0.000100284
8.94507e-07
7.8e-14
-9.99727e-05
9.96432e-07
-1.75799e-14
-9.96355e-05
1.18757e-06
-1.52275e-13
-9.92775e-05
1.41669e-06
-2.58352e-13
-9.89317e-05
1.60916e-06
-3.24397e-13
-9.86657e-05
1.64037e-06
-4.03445e-13
-9.85819e-05
1.29705e-06
-6.17237e-13
-9.88022e-05
2.16159e-07
-9.10479e-13
-9.93733e-05
-2.19312e-06
-1.17376e-12
-0.000100116
-6.84905e-06
-1.37018e-12
-0.000100269
-1.50314e-05
-1.5958e-12
-2.81725e-05
-1.54834e-12
-9.80107e-05
-9.37007e-05
2.45527e-05
1.41526e-12
-9.06976e-05
1.21978e-05
1.09407e-12
-8.80875e-05
6.09726e-06
8.27914e-13
-8.62416e-05
3.12116e-06
7.79897e-13
-8.50264e-05
1.66594e-06
7.61556e-13
-8.42312e-05
9.57155e-07
6.49932e-13
-8.36795e-05
6.24991e-07
4.27815e-13
-8.32448e-05
4.96611e-07
2.4375e-13
-8.28408e-05
4.90674e-07
1.20088e-13
-8.24111e-05
5.66817e-07
4.97209e-15
-8.19241e-05
7.00656e-07
-1.20984e-13
-8.13761e-05
8.68656e-07
-2.55316e-13
-8.08015e-05
1.03462e-06
-4.05312e-13
-8.02925e-05
1.13137e-06
-6.36927e-13
-8.00241e-05
1.02846e-06
-1.02125e-12
-8.02755e-05
4.67499e-07
-1.35477e-12
-8.13969e-05
-1.07162e-06
-1.48903e-12
-8.36756e-05
-4.57083e-06
-1.58077e-12
-8.67841e-05
-1.19197e-05
-2.01841e-12
-2.65504e-05
-2.2316e-12
-8.83924e-05
-7.16876e-05
1.7358e-05
1.47312e-12
-6.56866e-05
6.20222e-06
1.01766e-12
-6.1993e-05
2.40958e-06
7.43636e-13
-5.98769e-05
1.00759e-06
7.75558e-13
-5.86697e-05
4.59985e-07
6.9406e-13
-5.79524e-05
2.40656e-07
5.06156e-13
-5.74816e-05
1.54708e-07
3.3343e-13
-5.71148e-05
1.30082e-07
2.37654e-13
-5.6764e-05
1.40247e-07
1.66986e-13
-5.63721e-05
1.75308e-07
7.75729e-14
-5.59022e-05
2.31214e-07
-2.3737e-14
-5.53379e-05
3.0489e-07
-1.73201e-13
-5.46932e-05
3.90522e-07
-4.25118e-13
-5.4035e-05
4.73784e-07
-8.50971e-13
-5.35249e-05
5.18598e-07
-1.35076e-12
-5.34953e-05
4.3778e-07
-1.71124e-12
-5.45037e-05
-6.49307e-08
-1.97737e-12
-5.75254e-05
-1.55643e-06
-2.39834e-12
-6.35718e-05
-5.88312e-06
-3.33367e-12
-1.84824e-05
-4.04972e-12
-7.16249e-05
-3.26489e-05
1.06783e-12
-2.64578e-05
9.49065e-13
-2.4049e-05
8.64255e-13
-2.30432e-05
6.6009e-13
-2.25843e-05
5.82862e-13
-2.23442e-05
4.757e-13
-2.21898e-05
3.73003e-13
-2.20599e-05
2.84223e-13
-2.19199e-05
1.95689e-13
-2.17447e-05
1.17757e-13
-2.15138e-05
1.89811e-14
-2.12092e-05
-1.42659e-13
-2.0819e-05
-4.93858e-13
-2.03457e-05
-9.52458e-13
-1.98274e-05
-1.3334e-12
-1.93893e-05
-1.57354e-12
-1.94534e-05
-1.96649e-12
-2.10122e-05
-3.12448e-12
-2.68903e-05
-4.64568e-12
-6.1943e-12
-4.52888e-05
-1.91497e-05
1.37361e-06
-2.06698e-09
-2.01537e-05
1.00552e-06
-1.43626e-09
-2.08519e-05
6.99062e-07
-9.43801e-10
-2.13191e-05
4.67835e-07
-5.90332e-10
-2.16265e-05
3.07746e-07
-3.57759e-10
-2.18329e-05
2.06622e-07
-2.18345e-10
-2.19838e-05
1.51099e-07
-1.4593e-10
-2.21137e-05
1.29999e-07
-1.2083e-10
-2.22486e-05
1.35046e-07
-1.29785e-10
-2.24086e-05
1.60073e-07
-1.64524e-10
-2.26078e-05
1.99484e-07
-2.19476e-10
-2.28539e-05
2.46337e-07
-2.89015e-10
-2.31437e-05
2.90243e-07
-3.6441e-10
-2.34586e-05
3.15311e-07
-4.30694e-10
-2.37569e-05
2.98692e-07
-4.63351e-10
-2.39672e-05
2.10803e-07
-4.24807e-10
-2.39851e-05
1.81128e-08
-2.61227e-10
-2.36777e-05
-3.07494e-07
7.11688e-11
-2.29015e-05
-7.76803e-07
6.51149e-10
-1.36566e-06
1.51746e-09
-2.15374e-05
-4.96855e-05
4.75148e-06
1.87317e-09
-5.21778e-05
3.49618e-06
1.56194e-09
-5.39319e-05
2.45202e-06
1.23107e-09
-5.51263e-05
1.66129e-06
9.35392e-10
-5.59282e-05
1.1089e-06
6.94103e-10
-5.6476e-05
7.53976e-07
5.16277e-10
-5.68771e-05
5.51766e-07
4.0097e-10
-5.72115e-05
4.64094e-07
3.40428e-10
-5.75384e-05
4.61552e-07
3.24285e-10
-5.78997e-05