/*--------------------------------*- C++ -*----------------------------------*\
| =========                 |                                                 |
| \\      /  F ield         | OpenFOAM: The Open Source CFD Toolbox           |
|  \\    /   O peration     | Version:  2.4.0                                 |
|   \\  /    A nd           | Web:      www.OpenFOAM.org                      |
|    \\/     M anipulation  |                                                 |
\*---------------------------------------------------------------------------*/
FoamFile
{
    version     2.0;
    format      ascii;
    class       volVectorField;
    location    "1.8";
    object      U;
}
// * * * * * * * * * * * * * * * * * * * * * * * * * * * * * * * * * * * * * //

dimensions      [0 1 -1 0 0 0 0];

internalField   nonuniform List<vector> 
4800
(
(0.000284904 -0.000288024 2.3095e-07)
(-2.94634e-05 0.000170735 0.000210395)
(-0.00186954 0.000661035 0.000423518)
(-0.00478935 0.00098896 0.000575106)
(-0.00840682 0.00117324 0.000622972)
(-0.0123937 0.00125106 0.000547741)
(-0.0164783 0.00124894 0.000343719)
(-0.0204318 0.00118017 1.18817e-05)
(-0.0240526 0.0010518 -0.000441333)
(-0.027171 0.000875776 -0.00100274)
(-0.000194863 2.95263e-05 -0.000209181)
(-0.00246229 0.00237936 5.09101e-06)
(-0.00789566 0.00464067 0.000161912)
(-0.0155172 0.0062582 0.000248104)
(-0.0246083 0.0072369 0.000246415)
(-0.0345184 0.00766972 0.000141532)
(-0.0446349 0.00764034 -7.27385e-05)
(-0.0544025 0.00720635 -0.000398186)
(-0.0633246 0.00642108 -0.000832834)
(-0.0709928 0.00537131 -0.00136954)
(-0.000765983 0.0019889 -0.000426804)
(-0.00506779 0.00792161 -0.00014528)
(-0.0138289 0.013148 1.21729e-05)
(-0.025416 0.0169465 7.76848e-05)
(-0.0388662 0.0192962 5.9328e-05)
(-0.0533482 0.0203292 -5.16211e-05)
(-0.0680339 0.0201839 -0.000259149)
(-0.0821368 0.0189773 -0.000566436)
(-0.0949314 0.0168503 -0.000975698)
(-0.105807 0.0140435 -0.00148562)
(-0.00121522 0.00529471 -0.000567597)
(-0.00720721 0.0161144 -0.000204561)
(-0.018744 0.0249895 -2.46418e-05)
(-0.03353 0.0313613 4.26365e-05)
(-0.0503806 0.0352873 2.60441e-05)
(-0.0683414 0.036957 -7.75495e-05)
(-0.0864396 0.0365483 -0.000270552)
(-0.103716 0.0342216 -0.000558569)
(-0.119245 0.0302059 -0.000949649)
(-0.132198 0.024935 -0.00145059)
(-0.0015175 0.00961867 -0.000561193)
(-0.00871242 0.0263581 -0.000127837)
(-0.0222624 0.0393814 7.57634e-05)
(-0.0393506 0.0485605 0.000154412)
(-0.0586153 0.0541508 0.000151716)
(-0.0790181 0.056431 6.778e-05)
(-0.0994895 0.0556031 -0.000100622)
(-0.118937 0.0518321 -0.000364225)
(-0.136241 0.0453978 -0.000740501)
(-0.150285 0.0369259 -0.00125081)
(-0.00167126 0.0145839 -0.00036211)
(-0.00951635 0.0379446 0.000123474)
(-0.0241832 0.0554665 0.000346438)
(-0.0425541 0.0676122 0.000443082)
(-0.0631619 0.0749227 0.000465674)
(-0.0849259 0.0777951 0.000415004)
(-0.106728 0.0764349 0.000283987)
(-0.127389 0.0709523 5.31037e-05)
(-0.145608 0.0615877 -0.000309846)
(-0.159861 0.049072 -0.000854998)
(-0.00167939 0.0197904 5.08036e-05)
(-0.00959694 0.0500664 0.000568058)
(-0.0244129 0.0722405 0.00080316)
(-0.0429514 0.0874213 0.000922488)
(-0.0637209 0.0964796 0.000981385)
(-0.0856428 0.0999493 0.000979413)
(-0.107605 0.0980187 0.000902822)
(-0.128414 0.0906662 0.000719619)
(-0.14667 0.0779333 0.000377245)
(-0.160301 0.0603899 -0.000232617)
(-0.00154985 0.0248408 0.00067688)
(-0.00897547 0.061891 0.00120555)
(-0.0229673 0.0886371 0.00144451)
(-0.0405132 0.106793 0.00158992)
(-0.0601613 0.117557 0.00169576)
(-0.0808602 0.121611 0.00175988)
(-0.101545 0.119125 0.00176055)
(-0.121099 0.109877 0.00165132)
(-0.13825 0.0935028 0.0013584)
(-0.150337 0.0698102 0.000661413)
(-0.00130174 0.0293659 0.00149463)
(-0.00773714 0.0726252 0.00201717)
(-0.0200184 0.103604 0.00225172)
(-0.0354636 0.124489 0.00242464)
(-0.0526823 0.136758 0.00258559)
(-0.0706212 0.141254 0.00273207)
(-0.0882282 0.138172 0.00283516)
(-0.104479 0.127134 0.0028332)
(-0.118601 0.107305 0.00264199)
(-0.127763 0.0769037 0.00184247)
(-0.000971504 0.0330654 0.00246402)
(-0.00605461 0.0816038 0.0029681)
(-0.015952 0.116213 0.00319031)
(-0.0284058 0.139341 0.0033886)
(-0.0420575 0.152633 0.00360745)
(-0.0557379 0.157053 0.00384894)
(-0.0681941 0.152873 0.00408633)
(-0.0781185 0.139685 0.00425457)
(-0.0852266 0.116486 0.00432334)
(-0.0884767 0.0804842 0.00368884)
(0.00028967 -0.000292498 1.25292e-07)
(-2.26354e-05 0.000164938 1.35171e-06)
(-0.00186594 0.000647354 1.97974e-06)
(-0.00478685 0.000969764 2.52246e-06)
(-0.00840542 0.00115105 2.84497e-06)
(-0.0123932 0.00122745 2.97997e-06)
(-0.0164784 0.00122533 3.00588e-06)
(-0.0204329 0.00115778 2.9673e-06)
(-0.0240549 0.00103184 2.61349e-06)
(-0.0271742 0.000858793 2.15862e-06)
(-0.000187769 2.23181e-05 -1.05959e-06)
(-0.00245945 0.00237733 3.13856e-07)
(-0.00790297 0.00462973 -1.148e-06)
(-0.0155218 0.00624235 -1.80679e-06)
(-0.0246105 0.00721936 -2.13069e-06)
(-0.034519 0.00765142 -2.33114e-06)
(-0.0446339 0.00762221 -2.32625e-06)
(-0.0544005 0.0071893 -2.14468e-06)
(-0.0633226 0.0064061 -1.89361e-06)
(-0.0709915 0.00535839 -1.64112e-06)
(-0.000750503 0.00198354 -1.87955e-06)
(-0.00505688 0.00792793 1.71583e-06)
(-0.0138355 0.0131512 8.64211e-08)
(-0.025418 0.0169498 -6.302e-08)
(-0.0388662 0.0193013 9.79462e-08)
(-0.0533479 0.0203354 9.35398e-08)
(-0.068033 0.0201905 1.04145e-07)
(-0.0821356 0.0189841 1.4915e-07)
(-0.0949311 0.0168572 1.93655e-07)
(-0.105809 0.0140491 1.1521e-07)
(-0.00119314 0.00529014 -2.72111e-06)
(-0.00719142 0.0161182 2.38909e-06)
(-0.0187527 0.0249887 2.72923e-09)
(-0.0335317 0.0313588 -1.93626e-07)
(-0.0503795 0.0352854 8.47945e-08)
(-0.0683405 0.0369554 1.18278e-07)
(-0.0864381 0.0365472 1.49376e-07)
(-0.103714 0.0342215 2.27222e-07)
(-0.119244 0.0302078 3.70915e-07)
(-0.132202 0.0249371 3.22087e-07)
(-0.00149119 0.00961583 -3.3057e-06)
(-0.00869457 0.0263602 2.78767e-06)
(-0.0222742 0.0393795 -3.04206e-07)
(-0.0393534 0.0485566 -6.66179e-07)
(-0.0586142 0.0541465 -3.8939e-07)
(-0.0790169 0.0564266 -3.67567e-07)
(-0.0994871 0.0555988 -3.23473e-07)
(-0.118933 0.0518291 -1.78147e-07)
(-0.136238 0.0453991 2.48156e-07)
(-0.150292 0.0369292 4.54329e-07)
(-0.00164265 0.014583 -3.58506e-06)
(-0.00949757 0.0379457 3.07151e-06)
(-0.0241972 0.0554654 -3.96989e-07)
(-0.0425579 0.0676097 -8.44565e-07)
(-0.0631611 0.0749197 -5.73035e-07)
(-0.0849248 0.0777916 -5.66578e-07)
(-0.106725 0.0764308 -5.51234e-07)
(-0.127382 0.0709488 -4.36649e-07)
(-0.145602 0.061592 4.14896e-07)
(-0.159875 0.0490834 1.23504e-06)
(-0.00165056 0.0197915 -3.58331e-06)
(-0.00957845 0.0500665 3.14007e-06)
(-0.0244279 0.0722401 -4.23197e-07)
(-0.0429559 0.0874204 -9.22248e-07)
(-0.0637208 0.0964779 -6.9333e-07)
(-0.0856424 0.0999468 -7.19781e-07)
(-0.107603 0.098015 -7.9882e-07)
(-0.128401 0.0906614 -9.62737e-07)
(-0.146653 0.0779435 5.41221e-07)
(-0.160329 0.0604267 3.10892e-06)
(-0.00152283 0.0248439 -3.29957e-06)
(-0.00895847 0.0618902 3.00612e-06)
(-0.0229821 0.0886377 -3.85951e-07)
(-0.0405183 0.106794 -8.97935e-07)
(-0.0601619 0.117556 -7.29928e-07)
(-0.080861 0.12161 -7.45251e-07)
(-0.101544 0.119119 -8.44259e-07)
(-0.121077 0.109862 -1.50575e-06)
(-0.1382 0.0934983 1.56526e-06)
(-0.150383 0.0698687 1.08566e-05)
(-0.00127824 0.0293706 -2.75339e-06)
(-0.00772256 0.0726239 2.71963e-06)
(-0.0200319 0.103605 -2.66587e-07)
(-0.035469 0.124492 -7.56466e-07)
(-0.0526842 0.136761 -7.00656e-07)
(-0.0706256 0.141257 -7.76341e-07)
(-0.0882389 0.138169 -1.06091e-06)
(-0.104462 0.127101 -3.6635e-06)
(-0.118499 0.107231 -1.04099e-06)
(-0.12781 0.0768727 2.43715e-05)
(-0.000952674 0.033071 -2.0045e-06)
(-0.00604282 0.0816023 2.34923e-06)
(-0.0159626 0.116216 -3.97974e-08)
(-0.0284097 0.139348 -4.30962e-07)
(-0.042059 0.152644 -4.73185e-07)
(-0.0557448 0.157074 -7.28069e-07)
(-0.0682265 0.152915 -1.57657e-06)
(-0.0781588 0.139748 -9.28819e-06)
(-0.0851413 0.116546 -2.15413e-05)
(-0.0885538 0.0805979 6.9877e-06)
(0.000289658 -0.000292508 -3.63847e-08)
(-2.26544e-05 0.000164934 -1.31147e-06)
(-0.00186595 0.000647352 -1.95874e-06)
(-0.00478685 0.000969763 -2.50936e-06)
(-0.00840541 0.00115105 -2.83566e-06)
(-0.0123932 0.00122745 -2.97299e-06)
(-0.0164784 0.00122533 -2.99997e-06)
(-0.0204328 0.00115778 -2.96191e-06)
(-0.0240549 0.00103184 -2.60895e-06)
(-0.0271742 0.000858792 -2.15494e-06)
(-0.000187773 2.23007e-05 1.10207e-06)
(-0.00245945 0.00237732 -2.85551e-07)
(-0.00790296 0.00462972 1.16698e-06)
(-0.0155217 0.00624235 1.82047e-06)
(-0.0246105 0.00721935 2.14129e-06)
(-0.034519 0.00765142 2.33984e-06)
(-0.0446339 0.0076222 2.33388e-06)
(-0.0544004 0.0071893 2.15149e-06)
(-0.0633225 0.0064061 1.89938e-06)
(-0.0709914 0.00535839 1.64586e-06)
(-0.000750502 0.00198353 1.90414e-06)
(-0.00505688 0.00792791 -1.69558e-06)
(-0.0138355 0.0131512 -7.02797e-08)
(-0.025418 0.0169498 7.6088e-08)
(-0.0388661 0.0193013 -8.68886e-08)
(-0.0533479 0.0203354 -8.40497e-08)
(-0.0680329 0.0201905 -9.57138e-08)
(-0.0821355 0.018984 -1.41573e-07)
(-0.0949309 0.0168572 -1.872e-07)
(-0.105809 0.0140491 -1.09882e-07)
(-0.00119314 0.00529013 2.73947e-06)
(-0.0071914 0.0161181 -2.37243e-06)
(-0.0187526 0.0249886 1.18258e-08)
(-0.0335317 0.0313588 2.06398e-07)
(-0.0503794 0.0352853 -7.32924e-08)
(-0.0683404 0.0369553 -1.08098e-07)
(-0.086438 0.0365472 -1.4025e-07)
(-0.103714 0.0342215 -2.19035e-07)
(-0.119244 0.0302077 -3.63933e-07)
(-0.132202 0.0249371 -3.16359e-07)
(-0.00149118 0.00961581 3.32192e-06)
(-0.00869456 0.0263602 -2.77257e-06)
(-0.0222742 0.0393794 3.18043e-07)
(-0.0393533 0.0485566 6.78946e-07)
(-0.0586141 0.0541465 4.01256e-07)
(-0.0790168 0.0564266 3.78182e-07)
(-0.099487 0.0555988 3.32945e-07)
(-0.118933 0.0518291 1.86551e-07)
(-0.136238 0.0453991 -2.41052e-07)
(-0.150292 0.0369292 -4.48555e-07)
(-0.00164265 0.014583 3.60054e-06)
(-0.00949755 0.0379457 -3.05701e-06)
(-0.0241972 0.0554653 4.10671e-07)
(-0.0425578 0.0676097 8.57459e-07)
(-0.063161 0.0749196 5.85092e-07)
(-0.0849247 0.0777915 5.77348e-07)
(-0.106725 0.0764308 5.6073e-07)
(-0.127382 0.0709488 4.44915e-07)
(-0.145601 0.061592 -4.07994e-07)
(-0.159875 0.0490833 -1.22946e-06)
(-0.00165056 0.0197915 3.59811e-06)
(-0.00957843 0.0500664 -3.12607e-06)
(-0.0244278 0.0722401 4.36582e-07)
(-0.0429559 0.0874203 9.34877e-07)
(-0.0637207 0.0964778 7.0504e-07)
(-0.0856423 0.0999467 7.30134e-07)
(-0.107603 0.0980149 8.07844e-07)
(-0.128401 0.0906613 9.7051e-07)
(-0.146652 0.0779434 -5.34809e-07)
(-0.160329 0.0604267 -3.10384e-06)
(-0.00152283 0.0248438 3.31339e-06)
(-0.00895846 0.0618901 -2.99282e-06)
(-0.022982 0.0886376 3.9867e-07)
(-0.0405182 0.106794 9.09846e-07)
(-0.0601619 0.117556 7.40807e-07)
(-0.0808609 0.12161 7.54832e-07)
(-0.101544 0.119119 8.52669e-07)
(-0.121077 0.109862 1.51304e-06)
(-0.1382 0.0934982 -1.55926e-06)
(-0.150383 0.0698687 -1.08519e-05)
(-0.00127824 0.0293706 2.76612e-06)
(-0.00772255 0.0726238 -2.7072e-06)
(-0.0200318 0.103605 2.78478e-07)
(-0.0354689 0.124492 7.67524e-07)
(-0.0526842 0.136761 7.10664e-07)
(-0.0706256 0.141257 7.8523e-07)
(-0.0882388 0.138169 1.0689e-06)
(-0.104462 0.127101 3.67056e-06)
(-0.118499 0.107231 1.04683e-06)
(-0.12781 0.0768727 -2.4367e-05)
(-0.000952671 0.033071 2.01594e-06)
(-0.00604281 0.0816022 -2.3379e-06)
(-0.0159626 0.116216 5.06518e-08)
(-0.0284097 0.139348 4.41038e-07)
(-0.0420589 0.152644 4.82343e-07)
(-0.0557447 0.157074 7.36411e-07)
(-0.0682265 0.152915 1.58432e-06)
(-0.0781588 0.139748 9.29516e-06)
(-0.0851413 0.116546 2.15472e-05)
(-0.0885538 0.0805979 -6.98288e-06)
(0.000284839 -0.000288085 -3.24417e-07)
(-2.95593e-05 0.000170719 -0.000210438)
(-0.00186956 0.000661029 -0.00042354)
(-0.00478935 0.000988957 -0.00057512)
(-0.0084068 0.00117323 -0.000622982)
(-0.0123937 0.00125106 -0.000547748)
(-0.0164782 0.00124894 -0.000343725)
(-0.0204317 0.00118017 -1.18874e-05)
(-0.0240526 0.0010518 0.000441328)
(-0.0271709 0.000875776 0.00100273)
(-0.000194879 2.94352e-05 0.000209136)
(-0.00246231 0.00237932 -5.12093e-06)
(-0.00789565 0.00464064 -0.000161932)
(-0.0155172 0.00625818 -0.000248118)
(-0.0246083 0.00723689 -0.000246426)
(-0.0345183 0.00766971 -0.000141541)
(-0.0446348 0.00764032 7.27304e-05)
(-0.0544024 0.00720633 0.000398179)
(-0.0633244 0.00642107 0.000832828)
(-0.0709926 0.00537131 0.00136954)
(-0.000765984 0.00198886 0.000426778)
(-0.00506778 0.00792157 0.000145258)
(-0.0138288 0.013148 -1.219e-05)
(-0.0254159 0.0169464 -7.76986e-05)
(-0.0388661 0.0192961 -5.93397e-05)
(-0.053348 0.0203292 5.16111e-05)
(-0.0680337 0.0201839 0.00025914)
(-0.0821366 0.0189773 0.000566428)
(-0.0949311 0.0168503 0.000975691)
(-0.105807 0.0140435 0.00148562)
(-0.00121522 0.00529468 0.000567578)
(-0.00720718 0.0161143 0.000204543)
(-0.0187439 0.0249894 2.46264e-05)
(-0.0335299 0.0313612 -4.265e-05)
(-0.0503804 0.0352873 -2.60563e-05)
(-0.0683412 0.0369569 7.75387e-05)
(-0.0864393 0.0365483 0.000270542)
(-0.103716 0.0342216 0.00055856)
(-0.119245 0.0302058 0.000949642)
(-0.132197 0.024935 0.00145058)
(-0.00151749 0.00961863 0.000561176)
(-0.00871238 0.026358 0.000127821)
(-0.0222623 0.0393813 -7.57781e-05)
(-0.0393504 0.0485604 -0.000154425)
(-0.0586151 0.0541507 -0.000151729)
(-0.0790179 0.0564309 -6.77913e-05)
(-0.0994892 0.055603 0.000100612)
(-0.118937 0.051832 0.000364216)
(-0.136241 0.0453978 0.000740493)
(-0.150285 0.0369258 0.0012508)
(-0.00167125 0.0145838 0.000362093)
(-0.0095163 0.0379445 -0.000123489)
(-0.0241831 0.0554663 -0.000346452)
(-0.042554 0.067612 -0.000443096)
(-0.0631617 0.0749225 -0.000465687)
(-0.0849257 0.077795 -0.000415016)
(-0.106728 0.0764347 -0.000283997)
(-0.127389 0.0709522 -5.31124e-05)
(-0.145608 0.0615876 0.000309839)
(-0.15986 0.0490719 0.000854992)
(-0.00167937 0.0197903 -5.08192e-05)
(-0.00959689 0.0500663 -0.000568073)
(-0.0244128 0.0722403 -0.000803174)
(-0.0429512 0.0874211 -0.000922501)
(-0.0637207 0.0964794 -0.000981397)
(-0.0856425 0.0999491 -0.000979424)
(-0.107605 0.0980186 -0.000902832)
(-0.128414 0.0906661 -0.000719627)
(-0.14667 0.0779332 -0.000377252)
(-0.1603 0.0603898 0.000232612)
(-0.00154984 0.0248407 -0.000676895)
(-0.00897543 0.0618908 -0.00120556)
(-0.0229672 0.0886368 -0.00144453)
(-0.0405131 0.106793 -0.00158993)
(-0.0601611 0.117556 -0.00169577)
(-0.08086 0.121611 -0.00175989)
(-0.101545 0.119125 -0.00176056)
(-0.121099 0.109877 -0.00165133)
(-0.13825 0.0935027 -0.00135841)
(-0.150337 0.0698101 -0.000661418)
(-0.00130173 0.0293658 -0.00149465)
(-0.0077371 0.072625 -0.00201719)
(-0.0200183 0.103603 -0.00225174)
(-0.0354635 0.124488 -0.00242465)
(-0.0526821 0.136758 -0.0025856)
(-0.0706211 0.141254 -0.00273208)
(-0.0882281 0.138172 -0.00283517)
(-0.104478 0.127134 -0.00283321)
(-0.118601 0.107305 -0.00264199)
(-0.127763 0.0769037 -0.00184247)
(-0.000971496 0.0330653 -0.00246404)
(-0.00605458 0.0816035 -0.00296811)
(-0.015952 0.116213 -0.00319032)
(-0.0284057 0.139341 -0.00338861)
(-0.0420574 0.152632 -0.00360746)
(-0.0557378 0.157053 -0.00384895)
(-0.068194 0.152873 -0.00408634)
(-0.0781184 0.139685 -0.00425458)
(-0.0852266 0.116486 -0.00432334)
(-0.0884767 0.0804843 -0.00368884)
(-0.0296788 0.000676863 -0.00165163)
(-0.0315638 0.000488232 -0.00236279)
(-0.0329009 0.000332049 -0.00311362)
(-0.033807 0.000215755 -0.0038872)
(-0.0344037 0.000136946 -0.00467236)
(-0.0347962 8.88601e-05 -0.00546267)
(-0.0350679 6.42992e-05 -0.00625509)
(-0.0352819 5.75252e-05 -0.00704892)
(-0.0354858 6.46333e-05 -0.00784518)
(-0.0357159 8.30814e-05 -0.00864633)
(-0.0359999 0.000110789 -0.00945638)
(-0.0363559 0.000144992 -0.0102809)
(-0.0367893 0.000180939 -0.0111272)
(-0.0372845 0.00021053 -0.012004)
(-0.0377955 0.000221165 -0.0129207)
(-0.0382335 0.000195484 -0.0138856)
(-0.0384575 0.000112967 -0.0149037)
(-0.0382731 -4.61934e-05 -0.0159721)
(-0.0374502 -0.000291964 -0.017076)
(-0.0357644 -0.000613587 -0.0181853)
(-0.0771591 0.00420393 -0.00199422)
(-0.0818108 0.00309764 -0.00268702)
(-0.08514 0.00217118 -0.00342954)
(-0.0874298 0.00146681 -0.00420668)
(-0.088967 0.000974485 -0.00500691)
(-0.0899994 0.000659589 -0.00582224)
(-0.0907229 0.000482994 -0.00664767)
(-0.091285 0.000411167 -0.00748066)
(-0.091795 0.000418561 -0.00832064)
(-0.0923327 0.000485528 -0.00916877)
(-0.0929531 0.000593949 -0.0100278)
(-0.0936848 0.00072168 -0.0109018)
(-0.094522 0.000836522 -0.0117963)
(-0.09541 0.000890504 -0.0127176)
(-0.0962253 0.000816069 -0.0136721)
(-0.0967542 0.000527213 -0.0146651)
(-0.0966787 -7.01279e-05 -0.0156982)
(-0.0955793 -0.00105532 -0.0167672)
(-0.0929748 -0.00245348 -0.0178584)
(-0.0884118 -0.00418883 -0.018946)
(-0.114397 0.0109542 -0.00208635)
(-0.120729 0.00805825 -0.00275755)
(-0.12516 0.00565441 -0.00348178)
(-0.12815 0.00383611 -0.0042446)
(-0.130129 0.00256547 -0.00503437)
(-0.131442 0.00174691 -0.00584257)
(-0.132352 0.00127683 -0.0066635)
(-0.133047 0.00106701 -0.00749382)
(-0.133661 0.00104919 -0.00833214)
(-0.134289 0.00116939 -0.00917872)
(-0.134991 0.00137714 -0.0100353)
(-0.135794 0.0016126 -0.0109047)
(-0.136682 0.00179273 -0.0117911)
(-0.137582 0.00179893 -0.0126994)
(-0.138332 0.0014693 -0.0136345)
(-0.13866 0.000602636 -0.014601)
(-0.138161 -0.00101621 -0.0156011)
(-0.136289 -0.00356282 -0.0166329)
(-0.132398 -0.00708279 -0.0176872)
(-0.125849 -0.0113825 -0.0187442)
(-0.142058 0.0191758 -0.00205499)
(-0.14895 0.0138883 -0.002733)
(-0.15351 0.00960614 -0.00346432)
(-0.15643 0.00643933 -0.00423362)
(-0.158272 0.00426585 -0.00502863)
(-0.159445 0.00288152 -0.00584075)
(-0.160229 0.00208668 -0.00666433)
(-0.16081 0.0017203 -0.00749601)
(-0.161309 0.00166182 -0.00833415)
(-0.16181 0.0018181 -0.00917851)
(-0.162364 0.00210404 -0.01003)
(-0.162991 0.00242077 -0.0108904)
(-0.163679 0.00263311 -0.0117627)
(-0.164362 0.00254853 -0.0126505)
(-0.164894 0.0019027 -0.0135582)
(-0.165017 0.000361566 -0.014491)
(-0.164321 -0.00244203 -0.0154538)
(-0.162208 -0.00682767 -0.01645)
(-0.157898 -0.0129123 -0.0174784)
(-0.150507 -0.0204047 -0.0185292)
(-0.160286 0.0276958 -0.00189463)
(-0.166553 0.0194912 -0.00261325)
(-0.17022 0.013114 -0.00337961)
(-0.172289 0.00857714 -0.00417705)
(-0.173437 0.00556421 -0.00499295)
(-0.174084 0.00369271 -0.00581967)
(-0.17447 0.00263373 -0.00665281)
(-0.174729 0.00214282 -0.00748995)
(-0.174941 0.00204805 -0.0083299)
(-0.175152 0.00222348 -0.00917228)
(-0.175389 0.002559 -0.0100173)
(-0.17567 0.00292953 -0.0108658)
(-0.175992 0.00316357 -0.0117192)
(-0.17633 0.0030121 -0.0125797)
(-0.176606 0.00212187 -0.0134512)
(-0.176648 2.44896e-05 -0.01434)
(-0.176135 -0.00383357 -0.015254)
(-0.174504 -0.00999499 -0.0162051)
(-0.170868 -0.0187762 -0.0172044)
(-0.16399 -0.029913 -0.0182608)
(-0.168811 0.035357 -0.00159933)
(-0.17312 0.0237574 -0.00240598)
(-0.174831 0.0152957 -0.00323999)
(-0.175338 0.00962094 -0.00408744)
(-0.175353 0.00603762 -0.00493789)
(-0.175209 0.00389923 -0.00578736)
(-0.175035 0.00272348 -0.00663477)
(-0.174868 0.00218698 -0.00747994)
(-0.174711 0.0020808 -0.00832288)
(-0.174556 0.0022634 -0.00916349)
(-0.1744 0.002619 -0.0100014)
(-0.174249 0.0030196 -0.0108363)
(-0.17412 0.00328697 -0.0116677)
(-0.174043 0.00315166 -0.0124962)
(-0.174047 0.00220955 -0.0133241)
(-0.174118 -0.000118353 -0.0141581)
(-0.174132 -0.00460218 -0.0150087)
(-0.173702 -0.0121084 -0.015898)
(-0.171951 -0.0233873 -0.0168542)
(-0.167164 -0.0385188 -0.0179227)
(-0.166787 0.0407367 -0.00118838)
(-0.167552 0.0254165 -0.00214801)
(-0.166288 0.0152916 -0.00308207)
(-0.16474 0.00907183 -0.00399487)
(-0.163432 0.00542345 -0.00488552)
(-0.162452 0.00337144 -0.00575894)
(-0.161736 0.0022934 -0.00662025)
(-0.16118 0.0018202 -0.00747276)
(-0.160695 0.00173742 -0.00831819)
(-0.160214 0.00191406 -0.0091568)
(-0.159697 0.00225246 -0.00998766)
(-0.159133 0.00264872 -0.0108089)
(-0.158551 0.00295399 -0.011618)
(-0.158029 0.00292867 -0.0124127)
(-0.157707 0.00218235 -0.0131924)
(-0.157783 9.28392e-05 -0.0139605)
(-0.158432 -0.004286 -0.0147341)
(-0.15966 -0.0122344 -0.0155388)
(-0.160924 -0.0252676 -0.0164251)
(-0.160076 -0.044496 -0.017507)
(-0.152294 0.0417484 -0.00071558)
(-0.14763 0.022927 -0.0019073)
(-0.142741 0.0123779 -0.00296161)
(-0.13919 0.00671883 -0.00393961)
(-0.136821 0.00374248 -0.00486217)
(-0.135286 0.00220875 -0.00575061)
(-0.134265 0.00145727 -0.00661901)
(-0.133514 0.00115051 -0.0074745)
(-0.13287 0.00111704 -0.00832014)
(-0.132219 0.00126524 -0.00915621)
(-0.131492 0.0015354 -0.00998083)
(-0.130658 0.0018677 -0.0107904)
(-0.129737 0.00217248 -0.0115799)
(-0.12882 0.00229144 -0.0123435)
(-0.128114 0.00193467 -0.0130762)
(-0.127984 0.000570078 -0.0137769)
(-0.128945 -0.00275628 -0.0144605)
(-0.131637 -0.0096514 -0.0151576)
(-0.136508 -0.022693 -0.015934)
(-0.141695 -0.0453833 -0.017011)
(-0.121005 0.0359507 -0.000459304)
(-0.109216 0.0153942 -0.00190581)
(-0.101389 0.00676408 -0.00300182)
(-0.0970477 0.0031136 -0.00398476)
(-0.0945944 0.00152707 -0.00489891)
(-0.0931688 0.000829304 -0.00577737)
(-0.0922859 0.000530964 -0.00663866)
(-0.0916569 0.000429774 -0.0074899)
(-0.0911089 0.000442353 -0.00833299)
(-0.0905318 0.000533295 -0.00916688)
(-0.0898519 0.000685022 -0.00998814)
(-0.0890247 0.000882351 -0.0107911)
(-0.088042 0.00109979 -0.0115677)
(-0.0869569 0.00128262 -0.0123075)
(-0.0859356 0.00130809 -0.0129984)
(-0.0853446 0.000897331 -0.0136301)
(-0.0858281 -0.000595447 -0.0142103)
(-0.0886203 -0.00471019 -0.0147457)
(-0.0960704 -0.0148589 -0.0152771)
(-0.109185 -0.0387151 -0.0161823)
(-0.0618068 0.0221061 -0.00108765)
(-0.046058 0.00634622 -0.00251267)
(-0.0396527 0.00191972 -0.00325646)
(-0.0373605 0.000606865 -0.00400042)
(-0.0363809 0.000202387 -0.00476239)
(-0.0358909 8.02118e-05 -0.00553814)
(-0.0356064 4.82694e-05 -0.00632505)
(-0.0353957 4.80071e-05 -0.00711781)
(-0.0351903 6.32596e-05 -0.00791151)
(-0.0349458 9.09331e-05 -0.0087014)
(-0.0346268 0.000131906 -0.00948175)
(-0.034202 0.000188165 -0.0102447)
(-0.0336454 0.000261278 -0.0109791)
(-0.0329443 0.000349223 -0.0116685)
(-0.0321191 0.000436343 -0.0122895)
(-0.0312733 0.000462661 -0.012809)
(-0.0307276 0.000213598 -0.0131829)
(-0.0313998 -0.00112275 -0.013375)
(-0.036814 -0.00616015 -0.0132742)
(-0.0546763 -0.0245953 -0.0134917)
(-0.0296823 0.000662977 1.61228e-06)
(-0.0315667 0.0004775 1.12074e-06)
(-0.0329029 0.00032416 7.3686e-07)
(-0.0338084 0.00021016 4.61084e-07)
(-0.0344044 0.000133057 2.79431e-07)
(-0.0347965 8.61354e-05 1.70438e-07)
(-0.035068 6.22814e-05 1.13788e-07)
(-0.0352818 5.58499e-05 9.4068e-08)
(-0.0354855 6.30194e-05 1.00907e-07)
(-0.0357155 8.13198e-05 1.27891e-07)
(-0.0359994 0.000108742 1.7066e-07)
(-0.0363554 0.000142606 2.24833e-07)
(-0.0367886 0.00017828 2.83622e-07)
(-0.0372839 0.000207829 3.35377e-07)
(-0.037795 0.000218877 3.61106e-07)
(-0.0382334 0.000194323 3.31606e-07)
(-0.0384581 0.000113923 2.04991e-07)
(-0.038275 -4.19814e-05 -5.29259e-08)
(-0.0374537 -0.000283315 -5.03588e-07)
(-0.0357695 -0.000599823 -1.17729e-06)
(-0.077158 0.00419248 -1.45401e-06)
(-0.0818091 0.00308829 -1.21234e-06)
(-0.0851379 0.00216407 -9.5545e-07)
(-0.0874277 0.00146164 -7.26e-07)
(-0.0889651 0.00097085 -5.38843e-07)
(-0.089998 0.000657059 -4.00966e-07)
(-0.0907218 0.000481185 -3.11553e-07)
(-0.0912843 0.000409764 -2.64619e-07)
(-0.0917945 0.000417314 -2.52162e-07)
(-0.0923324 0.000484247 -2.64932e-07)
(-0.0929528 0.000592494 -2.92005e-07)
(-0.0936843 0.000719969 -3.19165e-07)
(-0.0945211 0.000834554 -3.2708e-07)
(-0.0954085 0.000888395 -2.90066e-07)
(-0.0962228 0.000814119 -1.77097e-07)
(-0.0967508 0.000525932 4.18764e-08)
(-0.0966742 -6.99948e-05 3.91243e-07)
(-0.0955744 -0.0010528 8.63498e-07)
(-0.0929705 -0.00244759 1.42979e-06)
(-0.0884092 -0.00417952 1.96003e-06)
(-0.114399 0.0109562 -1.83042e-07)
(-0.120729 0.0080587 -3.14924e-07)
(-0.125159 0.00565443 -3.4249e-07)
(-0.128149 0.00383604 -3.23755e-07)
(-0.130127 0.00256548 -2.75398e-07)
(-0.131441 0.00174706 -2.19067e-07)
(-0.132351 0.00127712 -1.68374e-07)
(-0.133046 0.00106745 -1.28289e-07)
(-0.133661 0.0010498 -9.93636e-08)
(-0.134288 0.00117015 -7.95504e-08)
(-0.13499 0.00137804 -6.53996e-08)
(-0.135793 0.00161355 -5.24494e-08)
(-0.136682 0.00179363 -3.55137e-08)
(-0.13758 0.00179958 -8.11522e-09)
(-0.13833 0.0014695 3.79904e-08)
(-0.138658 0.000602162 1.06332e-07)
(-0.138158 -0.00101766 1.93443e-07)
(-0.136286 -0.00356519 2.97042e-07)
(-0.132397 -0.00708594 4.02137e-07)
(-0.125851 -0.0113879 3.41091e-07)
(-0.142062 0.0191725 -2.8266e-07)
(-0.148951 0.0138846 -4.55335e-07)
(-0.153509 0.00960374 -4.49639e-07)
(-0.156428 0.00643801 -3.98575e-07)
(-0.158269 0.00426535 -3.16554e-07)
(-0.159443 0.00288152 -2.33929e-07)
(-0.160228 0.00208695 -1.65793e-07)
(-0.160808 0.00172068 -1.14306e-07)
(-0.161308 0.00166224 -7.76934e-08)
(-0.16181 0.00181852 -5.28325e-08)
(-0.162363 0.00210442 -3.64442e-08)
(-0.162991 0.00242105 -2.54204e-08)
(-0.163679 0.0026332 -1.69866e-08)
(-0.16436 0.00254837 -6.32473e-09)
(-0.164892 0.0019023 1.99103e-08)
(-0.165015 0.000361036 7.0792e-08)
(-0.164319 -0.00244267 1.2052e-07)
(-0.162205 -0.00682757 2.14821e-07)
(-0.157897 -0.01291 3.96226e-07)
(-0.150513 -0.0204019 3.4693e-07)
(-0.160294 0.0276871 -7.71078e-07)
(-0.166553 0.0194838 -8.59474e-07)
(-0.170216 0.0131105 -6.90661e-07)
(-0.172285 0.00857585 -5.38439e-07)
(-0.173434 0.00556416 -3.78077e-07)
(-0.174082 0.00369323 -2.47772e-07)
(-0.174468 0.00263441 -1.57997e-07)
(-0.174728 0.00214346 -1.00123e-07)
(-0.17494 0.00204859 -6.52483e-08)
(-0.175151 0.0022239 -4.64921e-08)
(-0.175389 0.00255929 -3.89982e-08)
(-0.175669 0.00292966 -3.93692e-08)
(-0.175992 0.00316349 -4.53966e-08)
(-0.176329 0.00301175 -5.10112e-08)
(-0.176604 0.00212132 -2.76423e-08)
(-0.176646 2.39815e-05 4.93073e-08)
(-0.176132 -0.00383365 8.27194e-08)
(-0.174498 -0.00999297 2.16639e-07)
(-0.170865 -0.018768 6.85724e-07)
(-0.163999 -0.0299007 9.622e-07)
(-0.168826 0.0353395 -1.6637e-06)
(-0.173115 0.0237455 -1.40318e-06)
(-0.174824 0.0152921 -8.68198e-07)
(-0.175333 0.00962067 -5.7992e-07)
(-0.175349 0.00603866 -3.4038e-07)
(-0.175206 0.00390058 -1.78839e-07)
(-0.175033 0.00272469 -8.84038e-08)
(-0.174867 0.00218794 -4.06129e-08)
(-0.17471 0.00208153 -1.72832e-08)
(-0.174555 0.00226395 -8.35346e-09)
(-0.1744 0.0026194 -8.86149e-09)
(-0.174249 0.00301986 -1.69782e-08)
(-0.17412 0.00328704 -3.31013e-08)
(-0.174043 0.00315144 -5.53079e-08)
(-0.174045 0.00220892 -5.59048e-08)
(-0.174116 -0.000119128 -5.84841e-09)
(-0.174127 -0.00460192 2.72078e-09)
(-0.173691 -0.0121048 1.27029e-07)
(-0.171941 -0.0233718 1.16325e-06)
(-0.16718 -0.0384926 2.41839e-06)
(-0.166818 0.0407123 -4.4476e-06)
(-0.167537 0.0254086 -2.90104e-06)
(-0.166273 0.015295 -1.32297e-06)
(-0.164732 0.00907591 -6.8852e-07)
(-0.163427 0.00542677 -2.9166e-07)
(-0.16245 0.00337388 -8.90606e-08)
(-0.161734 0.00229507 -1.01061e-08)
(-0.161179 0.00182136 1.57126e-08)
(-0.160694 0.00173832 1.90663e-08)
(-0.160213 0.00191485 1.20784e-08)
(-0.159697 0.00225323 -1.33222e-09)
(-0.159133 0.00264949 -2.07911e-08)
(-0.158551 0.00295468 -4.65979e-08)
(-0.158029 0.00292905 -8.22228e-08)
(-0.157706 0.00218207 -1.24765e-07)
(-0.15778 9.18498e-05 -1.01152e-07)
(-0.158425 -0.00428778 6.24861e-08)
(-0.15964 -0.0122369 3.64002e-07)
(-0.160899 -0.0252566 2.78565e-06)
(-0.160107 -0.0444619 6.63718e-06)
(-0.152352 0.041708 -7.57342e-06)
(-0.147599 0.0229368 -3.03049e-06)
(-0.142722 0.0123987 -5.97659e-07)
(-0.139185 0.00673055 -2.32025e-07)
(-0.136819 0.00374841 2.81732e-08)
(-0.135286 0.00221192 1.20594e-07)
(-0.134264 0.00145905 1.13465e-07)
(-0.133514 0.00115171 9.2826e-08)
(-0.132869 0.00111812 7.67028e-08)
(-0.132219 0.00126647 6.53789e-08)
(-0.131492 0.0015369 5.58362e-08)
(-0.130658 0.00186953 4.342e-08)
(-0.129737 0.00217455 2.13663e-08)
(-0.12882 0.00229336 -3.04712e-08)
(-0.128114 0.00193565 -1.14944e-07)
(-0.127984 0.000568703 -7.05097e-08)
(-0.128944 -0.00276446 6.03405e-08)
(-0.131616 -0.00967286 -3.46836e-07)
(-0.136464 -0.0227053 2.477e-06)
(-0.141753 -0.0453293 1.06425e-05)
(-0.121075 0.0357595 -9.49106e-06)
(-0.109149 0.0153369 4.18486e-06)
(-0.101378 0.00675364 4.63923e-06)
(-0.0970567 0.0031068 1.95278e-06)
(-0.0945994 0.00152204 9.99201e-07)
(-0.0931711 0.000826209 5.99947e-07)
(-0.092287 0.00052896 3.69994e-07)
(-0.0916571 0.000428299 2.74738e-07)
(-0.0911086 0.000441088 2.61164e-07)
(-0.0905312 0.000532028 2.93263e-07)
(-0.0898513 0.000683617 3.52547e-07)
(-0.0890242 0.000880766 4.23221e-07)
(-0.0880422 0.00109811 4.77727e-07)
(-0.0869583 0.00128122 4.44482e-07)
(-0.085939 0.00130774 2.29264e-07)
(-0.0853528 0.000899031 -1.24116e-07)
(-0.0858459 -0.000591803 -1.28304e-06)
(-0.0886162 -0.00470292 -5.72348e-06)
(-0.0959838 -0.0147969 -7.65097e-06)
(-0.109235 -0.0384696 1.16636e-05)
(-0.0618465 0.0219653 -5.22788e-05)
(-0.0459032 0.00628005 -8.66472e-06)
(-0.0396095 0.00189323 -5.66522e-07)
(-0.0373564 0.000591971 -1.39576e-06)
(-0.036378 0.000193784 -9.00997e-07)
(-0.0358888 7.5434e-05 -4.14889e-07)
(-0.0356054 4.54116e-05 -2.30212e-07)
(-0.0353953 4.59652e-05 -1.60064e-07)
(-0.0351901 6.14308e-05 -1.39454e-07)
(-0.0349458 8.89586e-05 -1.52361e-07)
(-0.034627 0.000129567 -1.88836e-07)
(-0.0342022 0.000185376 -2.39287e-07)
(-0.0336457 0.000258166 -2.90147e-07)
(-0.0329442 0.000346348 -3.17092e-07)
(-0.0321179 0.000435011 -2.30622e-07)
(-0.0312722 0.000465042 2.14387e-07)
(-0.0307298 0.000222981 6.32367e-07)
(-0.0313595 -0.00109992 -1.8598e-06)
(-0.0366073 -0.00608919 3.90757e-06)
(-0.0546648 -0.024409 6.53265e-05)
(-0.0296823 0.000662976 -1.60917e-06)
(-0.0315667 0.0004775 -1.11796e-06)
(-0.0329029 0.00032416 -7.34503e-07)
(-0.0338083 0.00021016 -4.5937e-07)
(-0.0344043 0.000133057 -2.7841e-07)
(-0.0347964 8.61353e-05 -1.69952e-07)
(-0.0350679 6.22813e-05 -1.13622e-07)
(-0.0352817 5.58497e-05 -9.41173e-08)
(-0.0354855 6.30189e-05 -1.01103e-07)
(-0.0357155 8.13193e-05 -1.28194e-07)
(-0.0359993 0.000108741 -1.7104e-07)
(-0.0363553 0.000142605 -2.25227e-07)
(-0.0367886 0.000178279 -2.83961e-07)
(-0.0372838 0.000207828 -3.35563e-07)
(-0.037795 0.000218876 -3.60892e-07)
(-0.0382334 0.000194323 -3.30647e-07)
(-0.0384581 0.000113923 -2.0291e-07)
(-0.0382749 -4.19804e-05 5.6407e-08)
(-0.0374537 -0.000283313 5.0863e-07)
(-0.0357695 -0.00059982 1.18388e-06)
(-0.077158 0.00419248 1.45806e-06)
(-0.081809 0.00308829 1.21584e-06)
(-0.0851378 0.00216407 9.58318e-07)
(-0.0874276 0.00146164 7.28127e-07)
(-0.088965 0.00097085 5.40224e-07)