/*--------------------------------*- C++ -*----------------------------------*\
| =========                 |                                                 |
| \\      /  F ield         | OpenFOAM: The Open Source CFD Toolbox           |
|  \\    /   O peration     | Version:  2.4.0                                 |
|   \\  /    A nd           | Web:      www.OpenFOAM.org                      |
|    \\/     M anipulation  |                                                 |
\*---------------------------------------------------------------------------*/
FoamFile
{
    version     2.0;
    format      ascii;
    class       volScalarField;
    location    "0.0015";
    object      T;
}
// * * * * * * * * * * * * * * * * * * * * * * * * * * * * * * * * * * * * * //

dimensions      [0 0 0 1 0 0 0];

internalField   nonuniform List<scalar> 
4800
(
100.131
100.397
100.67
100.954
101.252
101.562
101.883
102.208
102.529
102.837
100.397
101.198
102.023
102.883
103.784
104.725
105.697
106.682
107.656
108.589
100.67
102.023
103.417
104.871
106.398
107.996
109.65
111.329
112.989
114.577
100.954
102.883
104.871
106.95
109.138
111.436
113.822
116.251
118.656
120.953
101.252
103.783
106.397
109.138
112.033
115.087
118.275
121.537
124.775
127.864
101.562
104.724
107.995
111.435
115.086
118.963
123.04
127.245
131.446
135.456
101.883
105.695
109.648
113.82
118.273
123.038
128.103
133.393
138.743
143.878
102.207
106.68
111.326
116.248
121.533
127.241
133.391
139.931
146.693
153.302
102.528
107.653
112.984
118.651
124.769
131.441
138.739
146.69
155.21
163.914
102.835
108.585
114.571
120.945
127.855
135.447
143.871
153.297
163.911
175.768
100.131
100.397
100.67
100.954
101.252
101.562
101.883
102.208
102.529
102.837
100.397
101.198
102.023
102.883
103.784
104.725
105.697
106.682
107.656
108.589
100.67
102.023
103.417
104.871
106.398
107.996
109.65
111.329
112.988
114.577
100.954
102.883
104.871
106.95
109.138
111.436
113.822
116.251
118.656
120.953
101.252
103.783
106.397
109.138
112.033
115.087
118.275
121.537
124.775
127.864
101.562
104.724
107.995
111.435
115.086
118.963
123.04
127.245
131.446
135.456
101.883
105.695
109.648
113.82
118.273
123.038
128.103
133.393
138.743
143.878
102.207
106.68
111.326
116.248
121.533
127.242
133.391
139.931
146.693
153.302
102.528
107.653
112.984
118.651
124.77
131.441
138.739
146.691
155.21
163.914
102.835
108.585
114.571
120.945
127.856
135.447
143.871
153.297
163.912
175.769
100.131
100.397
100.67
100.954
101.252
101.562
101.883
102.208
102.529
102.837
100.397
101.198
102.023
102.883
103.784
104.725
105.697
106.682
107.656
108.589
100.67
102.023
103.417
104.871
106.398
107.996
109.65
111.329
112.988
114.577
100.954
102.883
104.871
106.95
109.138
111.436
113.822
116.251
118.656
120.953
101.252
103.783
106.397
109.138
112.033
115.087
118.275
121.537
124.775
127.864
101.562
104.724
107.995
111.435
115.086
118.963
123.04
127.245
131.446
135.455
101.883
105.695
109.648
113.82
118.273
123.038
128.103
133.393
138.743
143.878
102.207
106.68
111.326
116.248
121.533
127.242
133.391
139.931
146.693
153.302
102.528
107.653
112.984
118.651
124.77
131.441
138.739
146.691
155.21
163.914
102.835
108.585
114.571
120.945
127.856
135.447
143.871
153.297
163.912
175.769
100.131
100.397
100.67
100.954
101.252
101.562
101.883
102.208
102.529
102.837
100.397
101.198
102.023
102.883
103.784
104.725
105.697
106.682
107.656
108.589
100.67
102.023
103.417
104.871
106.398
107.996
109.65
111.329
112.989
114.577
100.954
102.883
104.871
106.95
109.138
111.436
113.822
116.251
118.656
120.953
101.252
103.783
106.397
109.138
112.033
115.087
118.275
121.537
124.775
127.864
101.562
104.724
107.995
111.435
115.086
118.963
123.04
127.245
131.446
135.456
101.883
105.695
109.648
113.82
118.273
123.038
128.103
133.393
138.743
143.878
102.207
106.68
111.326
116.248
121.533
127.241
133.391
139.931
146.693
153.302
102.528
107.653
112.984
118.651
124.769
131.441
138.739
146.69
155.21
163.914
102.835
108.585
114.571
120.945
127.855
135.447
143.871
153.297
163.911
175.768
103.122
103.378
103.6
103.785
103.936
104.054
104.142
104.206
104.246
104.266
104.266
104.246
104.205
104.142
104.053
103.935
103.785
103.599
103.378
103.122
109.453
110.225
110.89
111.445
111.892
112.242
112.504
112.69
112.809
112.866
112.866
112.808
112.69
112.503
112.241
111.891
111.444
110.889
110.224
109.452
116.042
117.341
118.451
119.368
120.101
120.668
121.091
121.389
121.578
121.67
121.67
121.578
121.388
121.09
120.667
120.099
119.366
118.449
117.339
116.04
123.057
124.903
126.457
127.72
128.715
129.475
130.035
130.426
130.673
130.793
130.792
130.672
130.425
130.033
129.472
128.712
127.718
126.455
124.9
123.055
130.669
133.086
135.075
136.653
137.868
138.779
139.44
139.897
140.183
140.32
140.32
140.182
139.895
139.438
138.776
137.865
136.649
135.071
133.083
130.666
139.054
142.07
144.464
146.297
147.664
148.664
149.375
149.859
150.16
150.303
150.303
150.159
149.858
149.373
148.661
147.661
146.293
144.46
142.066
139.051
148.426
152.059
154.782
156.759
158.172
159.17
159.863
160.328
160.613
160.748
160.748
160.612
160.326
159.861
159.168
158.169
156.756
154.779
152.056
148.423
159.099
163.319
166.187
168.11
169.405
170.283
170.876
171.267
171.503
171.615
171.615
171.503
171.266
170.875
170.281
169.403
168.107
166.185
163.316
159.097
171.683
176.231
178.815
180.348
181.304
181.922
182.328
182.59
182.748
182.822
182.821
182.747
182.59
182.327
181.921
181.303
180.347
178.814
176.23
171.682
187.731
191.313
192.679
193.334
193.702
193.929
194.074
194.167
194.223
194.249
194.249
194.223
194.167
194.074
193.929
193.702
193.334
192.679
191.313
187.731
103.122
103.378
103.6
103.785
103.936
104.053
104.142
104.205
104.246
104.265
104.265
104.245
104.205
104.142
104.053
103.935
103.784
103.599
103.377
103.121
109.453
110.225
110.89
111.445
111.892
112.242
112.504
112.69
112.808
112.866
112.866
112.808
112.689
112.503
112.24
111.89
111.443
110.888
110.223
109.451
116.042
117.341
118.451
119.368
120.1
120.668
121.091
121.389
121.578
121.669
121.669
121.577
121.387
121.089
120.666
120.098
119.365
118.448
117.338
116.039
123.057
124.903
126.457
127.72
128.714
129.474
130.034
130.425
130.673
130.792
130.791
130.672
130.424
130.032
129.471
128.711
127.716
126.453
124.899
123.054
130.669
133.086
135.075
136.652
137.867
138.778
139.439
139.896
140.182
140.32
140.319
140.181
139.894
139.437
138.775
137.864
136.648
135.07
133.081
130.665
139.054
142.069
144.464
146.296
147.664
148.663
149.374
149.859
150.159
150.303
150.302
150.158
149.857
149.372
148.66
147.66
146.292
144.459
142.065
139.05
148.426
152.059
154.782
156.759
158.171
159.169
159.863
160.327
160.612
160.747
160.747
160.611
160.325
159.86
159.166
158.168
156.755
154.778
152.054
148.422
159.099
163.318
166.187
168.109
169.404
170.282
170.876
171.266
171.502
171.614
171.614
171.501
171.264
170.874
170.28
169.401
168.106
166.183
163.315
159.095
171.683
176.231
178.815
180.348
181.304
181.922
182.327
182.589
182.747
182.821
182.82
182.746
182.589
182.326
181.92
181.302
180.346
178.813
176.228
171.68
187.732
191.313
192.679
193.334
193.702
193.929
194.074
194.167
194.222
194.248
194.248
194.222
194.166
194.074
193.928
193.701
193.333
192.678
191.312
187.73
103.122
103.378
103.6
103.785
103.936
104.053
104.142
104.205
104.246
104.265
104.265
104.245
104.205
104.142
104.053
103.935
103.784
103.599
103.377
103.121
109.453
110.225
110.89
111.444
111.892
112.242
112.504
112.69
112.808
112.866
112.866
112.808
112.689
112.503
112.24
111.89
111.443
110.888
110.223
109.451
116.042
117.341
118.451
119.368
120.1
120.668
121.091
121.389
121.578
121.669
121.669
121.577
121.387
121.089
120.666
120.098
119.365
118.448
117.338
116.039
123.057
124.903
126.457
127.72
128.714
129.474
130.034
130.425
130.673
130.792
130.791
130.672
130.424
130.032
129.471
128.711
127.716
126.453
124.899
123.054
130.669
133.086
135.075
136.652
137.867
138.778
139.439
139.896
140.182
140.32
140.319
140.181
139.894
139.437
138.775
137.864
136.648
135.07
133.081
130.665
139.054
142.069
144.464
146.296
147.664
148.663
149.374
149.859
150.159
150.303
150.302
150.158
149.857
149.372
148.66
147.66
146.292
144.459
142.065
139.05
148.426
152.059
154.782
156.759
158.171
159.169
159.863
160.327
160.612
160.747
160.747
160.611
160.325
159.86
159.166
158.168
156.755
154.778
152.054
148.422
159.099
163.318
166.187
168.109
169.404
170.282
170.876
171.266
171.502
171.614
171.614
171.501
171.264
170.874
170.28
169.401
168.106
166.183
163.315
159.095
171.683
176.231
178.815
180.348
181.304
181.922
182.327
182.589
182.747
182.821
182.82
182.746
182.589
182.326
181.92
181.302
180.346
178.813
176.228
171.68
187.732
191.313
192.679
193.334
193.702
193.929
194.074
194.167
194.222
194.248
194.248
194.222
194.166
194.074
193.928
193.701
193.333
192.678
191.312
187.73
103.122
103.378
103.6
103.785
103.936
104.054
104.142
104.206
104.246
104.266
104.266
104.246
104.205
104.142
104.053
103.935
103.785
103.599
103.378
103.122
109.453
110.225
110.89
111.445
111.892
112.242
112.504
112.69
112.809
112.866
112.866
112.808
112.69
112.503
112.241
111.891
111.444
110.889
110.224
109.452
116.042
117.341
118.451
119.368
120.101
120.668
121.091
121.389
121.578
121.67
121.67
121.578
121.388
121.09
120.667
120.099
119.366
118.449
117.339
116.04
123.057
124.903
126.457
127.72
128.715
129.475
130.035
130.426
130.673
130.793
130.792
130.672
130.425
130.033
129.472
128.712
127.718
126.455
124.9
123.055
130.669
133.086
135.075
136.653
137.868
138.778
139.44
139.897
140.183
140.32
140.32
140.182
139.895
139.438
138.776
137.865
136.649
135.071
133.083
130.666
139.054
142.07
144.464
146.297
147.664
148.664
149.375
149.859
150.16
150.303
150.303
150.159
149.858
149.373
148.661
147.661
146.293
144.46
142.066
139.051
148.426
152.059
154.782
156.759
158.172
159.17
159.863
160.328
160.613
160.748
160.748
160.612
160.326
159.861
159.168
158.169
156.756
154.779
152.056
148.423
159.099
163.319
166.187
168.109
169.405
170.283
170.876
171.267
171.503
171.615
171.615
171.503
171.266
170.875
170.281
169.403
168.107
166.185
163.316
159.097
171.683
176.231
178.815
180.348
181.304
181.922
182.328
182.59
182.748
182.822
182.821
182.747
182.59
182.327
181.921
181.303
180.347
178.814
176.23
171.682
187.731
191.313
192.679
193.334
193.702
193.929
194.074
194.167
194.223
194.249
194.249
194.223
194.167
194.074
193.929
193.702
193.334
192.679
191.313
187.731
102.837
102.529
102.208
101.883
101.563
101.252
100.954
100.67
100.397
100.132
108.588
107.655
106.682
105.697
104.725
103.784
102.883
102.024
101.199
100.397
114.576
112.988
111.328
109.649
107.996
106.398
104.872
103.417
102.024
100.67
120.951
118.655
116.251
113.822
111.436
109.139
106.951
104.872
102.883
100.954
127.862
124.774
121.536
118.275
115.088
112.034
109.139
106.398
103.784
101.252
135.453
131.445
127.244
123.04
118.963
115.087
111.436
107.996
104.725
101.563
143.876
138.742
133.393
128.104
123.04
118.275
113.822
109.649
105.697
101.883
153.301
146.693
139.932
133.392
127.244
121.536
116.25
111.328
106.681
102.208
163.914
155.211
146.692
138.741
131.444
124.773
118.654
112.987
107.655
102.529
175.769
163.913
153.3
143.874
135.451
127.859
120.949
114.574
108.587
102.836
102.836
102.528
102.207
101.882
101.562
101.251
100.954
100.669
100.396
100.131
108.587
107.654
106.68
105.695
104.724
103.783
102.882
102.022
101.198
100.396
114.574
112.986
111.327
109.648
107.994
106.397
104.87
103.416
102.022
100.669
120.95
118.653
116.249
113.82
111.435
109.137
106.949
104.87
102.882
100.954
127.86
124.772
121.535
118.273
115.086
112.032
109.137
106.397
103.783
101.251
135.452
131.443
127.242
123.038
118.962
115.086
111.435
107.994
104.724
101.562
143.875
138.74
133.391
128.102
123.038
118.273
113.82
109.648
105.695
101.882
153.299
146.691
139.93
133.391
127.242
121.534
116.248
111.326
106.68
102.207
163.913
155.209
146.69
138.739
131.442
124.771
118.652
112.985
107.653
102.528
175.768
163.911
153.298
143.872
135.449
127.857
120.947
114.572
108.585
102.835
102.836
102.528
102.207
101.882
101.562
101.251
100.954
100.669
100.396
100.131
108.587
107.654
106.68
105.695
104.724
103.783
102.882
102.022
101.198
100.396
114.574
112.986
111.327
109.648
107.994
106.397
104.87
103.416
102.022
100.669
120.95
118.653
116.249
113.82
111.435
109.137
106.949
104.87
102.882
100.954
127.86
124.772
121.535
118.273
115.086
112.032
109.137
106.397
103.783
101.251
135.452
131.443
127.242
123.038
118.962
115.086
111.435
107.994
104.724
101.562
143.875
138.74
133.391
128.102
123.038
118.273
113.82
109.648
105.695
101.882
153.299
146.691
139.93
133.391
127.242
121.534
116.248
111.326
106.68
102.207
163.913
155.209
146.69
138.739
131.442
124.771
118.652
112.985
107.653
102.528
175.768
163.911
153.298
143.872
135.449
127.857
120.947
114.572
108.585
102.835
102.837
102.529
102.208
101.883
101.563
101.252
100.954
100.67
100.397
100.132
108.588
107.655
106.682
105.697
104.725
103.784
102.883
102.024
101.199
100.397
114.576
112.988
111.328
109.649
107.996
106.398
104.872
103.417
102.024
100.67
120.951
118.655
116.251
113.822
111.436
109.139
106.951
104.872
102.883
100.954
127.862
124.774
121.536
118.275
115.088
112.034
109.139
106.398
103.784
101.252
135.453
131.445
127.244
123.04
118.963
115.087
111.436
107.996
104.725
101.563
143.876
138.742
133.393
128.104
123.04
118.275
113.822
109.649
105.697
101.883
153.301
146.693
139.932
133.392
127.244
121.536
116.25
111.328
106.681
102.208
163.914
155.211
146.692
138.741
131.444
124.773
118.654
112.987
107.655
102.529
175.769
163.913
153.3
143.874
135.451
127.859
120.949
114.574
108.587
102.836
187.731
171.68
159.094
148.42
139.047
130.661
123.051
116.036
109.45
103.121
191.312
176.226
163.311
152.049
142.058
133.074
124.893
117.333
110.22
103.377
192.677
178.808
166.175
154.767
144.447
135.058
126.442
118.439
110.882
103.597
193.331
180.337
168.092
156.737
146.272
136.628
127.698
119.35
111.434
103.782
193.697
181.288
169.379
158.139
147.629
137.832
128.683
120.075
111.876
103.93
193.922
181.899
170.247
159.124
148.613
138.728
129.429
120.632
112.219
104.046
194.064
182.295
170.825
159.798
149.303
139.368
129.97
121.04
112.472
104.131
194.152
182.544
171.194
160.237
149.759
139.796
130.336
121.318
112.645
104.19
194.201
182.683
171.403
160.486
150.02
140.044
130.548
121.48
112.746
104.224
194.218
182.732
171.475
160.572
150.11
140.128
130.62
121.534
112.779
104.236
194.206
182.697
171.422
160.506
150.037
140.056
130.556
121.484
112.747
104.225
194.164
182.576
171.237
160.281
149.796
139.823
130.351
121.325
112.647
104.191
194.086
182.355
170.903
159.875
149.364
139.409
129.992
121.048
112.473
104.131
193.963
182.005
170.38
159.249
148.707
138.784
129.453
120.636
112.215
104.044
193.776
181.481
169.609
158.341
147.768
137.905
128.704
120.067
111.861
103.923
193.49
180.699
168.489
157.058
146.473
136.715
127.704
119.316
111.396
103.766
193.037
179.512
166.866
155.269
144.723
135.146
126.409
118.356
110.807
103.568
192.248
177.645
164.496
152.801
142.407
133.129
124.78
117.165
110.083
103.325
190.64
174.554
161.012
149.443
139.414
130.612
122.792
115.733
109.22
103.037
186.506
169.199
155.954
145.016
135.682
127.58
120.45
114.07
108.226
102.706
187.73
171.678
159.092
148.417
139.045
130.659
123.049
116.035
109.448
103.12
191.31
176.224
163.308
152.046
142.056
133.072
124.891
117.331
110.218
103.376
192.676
178.806
166.173
154.764
144.444
135.055
126.44
118.437
110.881
103.596
193.329
180.335
168.089
156.734
146.269
136.625
127.696
119.348
111.432
103.781
193.695
181.285
169.377
158.137
147.626
137.829
128.68
120.073
111.874
103.929
193.92
181.896
170.244
159.121
148.61
138.725
129.426
120.63
112.217
104.045
194.062
182.292
170.822
159.796
149.3
139.365
129.968
121.038
112.47
104.13
194.15
182.541
171.191
160.234
149.756
139.794
130.333
121.316
112.643
104.189
194.199
182.68
171.399
160.483
150.017
140.041
130.546
121.477
112.744
104.223
194.216
182.729
171.472
160.569
150.107
140.125
130.617
121.532
112.777
104.235
194.204
182.694
171.418
160.503
150.034
140.053
130.554
121.481
112.745
104.224
194.161
182.573
171.234
160.277
149.792
139.82
130.349
121.323
112.645
104.19
194.084
182.351
170.899
159.871
149.361
139.406
129.989
121.046
112.471
104.13
193.961
182.002
170.377
159.246
148.704
138.781
129.451
120.634
112.213
104.042
193.773
181.477
169.605
158.337
147.765
137.902
128.701
120.065
111.859
103.922
193.488
180.695
168.485
157.054
146.469
136.711
127.701
119.313
111.394
103.765
193.034
179.509
166.863
155.266
144.72
135.142
126.406
118.353
110.805
103.567
192.246
177.641
164.492
152.797
142.403
133.126
124.777
117.162
110.08
103.324
190.637
174.55
161.008
149.44
139.41
130.609
122.789
115.73
109.218
103.035
186.503
169.196
155.951
145.012
135.679
127.577
120.448
114.067
108.224
102.705
187.73
171.678
159.092
148.417
139.045
130.659
123.049
116.035
109.448
103.12
191.31
176.224
163.308
152.046
142.056
133.072
124.891
117.331
110.218
103.376
192.676
178.806
166.173
154.764
144.444
135.055
126.44
118.437
110.881
103.596
193.329
180.335
168.089
156.734
146.269
136.625
127.696
119.348
111.432
103.781
193.695
181.285
169.377
158.137
147.626
137.829
128.68
120.073
111.874
103.929
193.92
181.896
170.244
159.121
148.61
138.725
129.426
120.63
112.217
104.045
194.062
182.292
170.822
159.796
149.3
139.365
129.968
121.038
112.47
104.13
194.15
182.541
171.191
160.234
149.756
139.794
130.333
121.316
112.643
104.189
194.199
182.68
171.399
160.483
150.017
140.041
130.546
121.477
112.744
104.223
194.216
182.729
171.472
160.569
150.107
140.125
130.617
121.532
112.777
104.235
194.204
182.694
171.418
160.503
150.034
140.053
130.554
121.481
112.745
104.224
194.161
182.573
171.234
160.277
149.792
139.82
130.349
121.323
112.645
104.189
194.084
182.351
170.899
159.871
149.361
139.406
129.989
121.046
112.471
104.13
193.961
182.002
170.377
159.246
148.704
138.781
129.451
120.634
112.213
104.042
193.773
181.477
169.605
158.337
147.765
137.902
128.701
120.065
111.859
103.922
193.488
180.695
168.485
157.054
146.469
136.711
127.701
119.313
111.394
103.765
193.034
179.509
166.863
155.266
144.72
135.142
126.406
118.353
110.805
103.567
192.246
177.641
164.492
152.797
142.403
133.126
124.777
117.162
110.08
103.324
190.637
174.55
161.008
149.44
139.41
130.609
122.789
115.73
109.218
103.035
186.503
169.196
155.951
145.012
135.679
127.577
120.448
114.067
108.224
102.705
187.731
171.68
159.094
148.42
139.047
130.661
123.051
116.036
109.45
103.121
191.312
176.226
163.311
152.049
142.058
133.074
124.893
117.333
110.22
103.377
192.677
178.808
166.175
154.767
144.447
135.058
126.442
118.439
110.882
103.597
193.331
180.337
168.092
156.737
146.272
136.628
127.698
119.35
111.434
103.782
193.697
181.288
169.379
158.139
147.629
137.832
128.683
120.075
111.876
103.93
193.922
181.899
170.247
159.124
148.613
138.728
129.429
120.632
112.219
104.046
194.064
182.295
170.825
159.798
149.303
139.368
129.97
121.04
112.472
104.131
194.152
182.544
171.194
160.237
149.759
139.796
130.336
121.318
112.645
104.19
194.201
182.683
171.403
160.486
150.02
140.044
130.548
121.48
112.746
104.224
194.218
182.732
171.475
160.572
150.11
140.128
130.62
121.534
112.779
104.236
194.206
182.697
171.422
160.506
150.037
140.056
130.556
121.484
112.747
104.225
194.164
182.576
171.237
160.281
149.796
139.823
130.351
121.325
112.647
104.191
194.086
182.355
170.903
159.875
149.364
139.409
129.992
121.048
112.473
104.131
193.963
182.005
170.38
159.249
148.707
138.784
129.453
120.636
112.215
104.044
193.776
181.481
169.609
158.341
147.768
137.905
128.704
120.067
111.861
103.923
193.49
180.699
168.489
157.058
146.473
136.715
127.704
119.316
111.396
103.766
193.037
179.512
166.866
155.269
144.723
135.146
126.409
118.356
110.807
103.568
192.248
177.645
164.496
152.801
142.407
133.129
124.78
117.165
110.083
103.325
190.64
174.554
161.012
149.443
139.414
130.612
122.792
115.733
109.22
103.037
186.506
169.199
155.954
145.016
135.682
127.58
120.45
114.07
108.226
102.706
172.861
160.154
149.076
139.527
131.272
124.096
117.806
112.213
107.124
102.341
159.163
150.003
141.271
133.382
126.41
120.305
114.956
110.224
105.948
101.952
146.912
140.119
133.364
127.063
121.395
116.398
112.026
108.186
104.746
101.554
136.221
131.071
125.881
120.967
116.508
112.573
109.153
106.185
103.566
101.164
127.045
123.097
119.135
115.38
111.98
109.006
106.464
104.309
102.458
100.798
119.361
116.321
113.314
110.498
107.987
105.84
104.068
102.633
101.467
100.47
113.174
110.818
108.542
106.46
104.66
103.188
102.052
101.22
100.63
100.193
108.505
106.644
104.899
103.359
102.092
101.133
100.485
100.119
99.976
99.9766
105.377
103.839
102.442
101.259
100.346
99.7319
99.4152
99.3662
99.5279
99.8284
103.808
102.429
101.204
100.199
99.4637
99.022
98.8721
98.9837
99.3006
99.7571
172.858
160.151
149.072
139.523
131.269
124.093
117.803
112.21
107.121
102.339
159.16
150
141.268
133.379
126.407
120.302
114.953
110.221
105.946
101.95
146.909
140.117
133.361
127.06
121.392
116.395
112.023
108.183
104.743
101.552
136.219
131.068
125.879
120.965
116.505
112.57
109.151
106.183
103.563
101.162
127.043
123.095
119.132
115.377
111.977
109.003
106.461
104.306
102.455
100.796
119.359
116.319
113.312
110.496
107.985
105.838
104.065
102.63
101.463
100.468
113.173
110.816
108.54
106.458
104.657
103.185
102.049
101.216
100.626
100.19
108.504
106.642
104.897
103.357
102.089
101.13
100.482
100.115
99.9714
99.9733
105.375
103.837
102.44
101.257
100.344
99.7288
99.4114
99.3615
99.5225
99.8239
103.806
102.428
101.203
100.197
99.4612
99.019
98.8683
98.9789
99.2945
99.7512
172.858
160.151
149.072
139.523
131.269
124.093
117.803
112.21
107.121
102.339
159.16
150
141.268
133.379
126.407
120.302
114.953
110.221
105.946
101.95
146.909
140.117
133.361
127.06
121.392
116.395
112.023
108.183
104.743
101.552
136.219
131.068
125.879
120.965
116.505
112.57
109.151
106.183
103.563
101.162
127.043
123.095
119.132
115.377
111.977
109.003
106.461
104.306
102.455
100.796
119.359
116.319
113.312
110.496
107.985
105.838
104.065
102.63
101.463
100.468
113.173
110.816
108.54
106.458
104.657
103.185
102.049
101.216
100.626
100.19
108.504
106.642
104.897
103.357
102.089
101.13
100.482
100.115
99.9714
99.9733
105.375
103.837
102.44
101.257
100.344
99.7287
99.4114
99.3615
99.5225
99.8239
103.806
102.428
101.202
100.197
99.4612
99.019
98.8683
98.9789
99.2945
99.7512
172.861
160.154
149.076
139.527
131.272
124.096
117.806
112.213
107.124
102.341
159.163
150.003
141.271
133.382
126.41
120.305
114.956
110.224
105.948
101.952
146.912
140.119
133.364
127.063
121.395
116.398
112.026
108.186
104.746
101.554
136.221
131.071
125.881
120.967
116.508
112.573
109.153
106.185
103.566
101.164
127.045
123.097
119.135
115.38
111.98
109.006
106.464
104.309
102.458
100.798
119.361
116.321
113.314
110.498
107.987
105.84
104.068
102.633
101.467
100.47
113.174
110.818
108.542
106.46
104.66
103.188
102.052
101.22
100.629
100.193
108.505
106.644
104.899
103.359
102.092
101.133
100.485
100.119
99.9759
99.9766
105.377
103.839
102.442
101.259
100.346
99.7319
99.4152
99.3662
99.5279
99.8284
103.808
102.429
101.204
100.199
99.4636
99.022
98.8721
98.9837
99.3006
99.7571
186.019
189.927
191.407
192.112
192.509
192.757
192.917
193.021
193.084
193.114
193.114
193.084
193.021
192.917
192.756
192.509
192.111
191.405
189.924
186.012
167.515
172.391
175.158
176.802
177.834
178.51
178.961
179.257
179.437
179.523
179.523
179.437
179.256
178.96
178.508
177.831
176.797
175.151
172.38
167.5
153.006
157.459
160.506
162.567
163.974
164.945
165.613
166.062
166.338
166.47
166.47
166.337
166.06
165.611
164.941
163.968
162.559
160.495
157.444
152.986
140.917
144.711
147.601
149.736
151.295
152.423
153.227
153.778
154.123
154.289
154.288
154.121
153.776
153.223
152.418
151.288
149.726
147.588
144.694
140.895
130.733
133.889
136.464
138.493
140.054
141.233
142.099
142.707
143.093
143.28
143.28
143.092
142.705
142.096
141.228
140.047
138.483
136.451
133.872
130.711
122.278
124.88
127.111
128.956
130.439
131.599
132.477
133.105
133.509
133.707
133.707
133.508
133.103
132.474
131.595
130.433
128.947
127.099
124.864
122.258
115.501
117.65
119.568
121.216
122.589
123.696
124.554
125.179
125.587
125.788
125.788
125.586
125.178
124.552
123.693
122.585
121.21
119.558
117.637
115.484
110.399
112.205
113.869
115.346
116.611
117.657
118.482
119.094
119.497
119.697
119.697
119.497
119.094
118.482
117.655
116.609
115.341
113.862
112.194
110.386
106.985
108.56
110.048
111.4
112.583
113.577
114.374
114.971
115.367
115.565
115.565
115.368
114.972
114.375
113.577
112.582
111.397
110.043
108.552
106.974
105.274
106.732
108.13
109.417
110.556
111.522
112.302
112.889
113.281
113.478
113.478
113.282
112.891
112.304
111.523
110.556
109.416
108.127
106.726
105.264
186.021
189.929
191.408
192.113
192.511
192.757
192.918
193.022
193.084
193.114
193.114
193.084
193.021
192.916
192.755
192.508
192.11
191.403
189.922
186.01
167.518
172.393
175.16
176.804
177.836
178.512
178.962
179.258
179.438
179.523
179.523
179.436
179.255
178.959
178.507
177.83
176.795
175.149
172.378
167.497
153.009
157.462
160.508
162.569
163.975
164.946
165.614
166.062
166.338
166.47
166.469
166.336
166.059
165.61
164.939
163.967
162.557
160.493
157.442
152.984
140.92
144.714
147.603
149.738
151.296
152.424
153.228
153.778
154.123
154.288
154.288
154.121
153.775
153.222
152.417
151.286
149.725
147.586
144.692
140.893
130.735
133.891
136.466
138.494
140.056
141.234
142.1
142.708
143.093
143.28
143.28
143.091
142.704
142.095
141.227
140.046
138.481
136.449
133.87
130.709
122.28
124.882
127.113
128.958
130.441
131.601
132.477
133.105
133.509
133.707
133.707
133.508
133.102
132.473
131.594
130.432
128.946
127.097
124.862
122.257
115.504
117.652
119.569
121.218
122.591
123.697
124.554
125.179
125.587
125.788
125.788
125.586
125.177
124.551
123.692
122.584
121.208
119.556
117.636
115.483
110.401
112.207
113.87
115.347
116.613
117.658
118.483
119.094
119.497
119.697
119.697
119.497
119.093
118.481
117.654
116.608
115.34
113.86
112.193
110.384
106.987
108.561
110.049
111.401
112.584
113.578
114.375
114.971
115.367
115.565
115.565
115.367
114.971
114.374
113.577
112.581
111.396
110.042
108.55
106.973
105.276
106.734
108.132
109.418
110.557
111.523
112.303
112.89
113.282
113.478
113.478
113.282
112.89
112.303
111.522
110.555
109.415
108.126
106.725
105.263
186.021
189.929
191.408
192.113
192.511
192.757
192.918
193.022
193.084
193.114
193.114
193.084
193.021
192.916
192.755
192.508
192.11
191.403
189.922
186.01
167.518
172.393
175.16
176.804
177.836
178.512
178.962
179.258
179.438
179.523
179.522
179.436
179.255
178.959
178.507
177.83
176.795
175.149
172.378
167.497
153.009
157.462
160.508
162.569
163.975
164.946
165.614
166.062
166.338
166.47
166.469
166.336
166.059
165.61
164.939
163.967
162.557
160.493
157.442
152.984
140.92
144.714
147.603
149.738
151.296
152.424
153.228
153.778
154.123
154.288
154.288
154.121
153.775
153.222
152.417
151.286
149.725
147.586
144.692
140.893
130.735
133.891
136.466
138.494
140.056
141.234
142.1
142.708
143.093
143.28
143.28
143.091
142.704
142.095
141.227
140.046
138.481
136.449
133.87
130.709
122.28
124.882
127.113
128.958
130.441
131.601
132.477
133.105
133.509
133.707
133.707
133.508
133.102
132.473
131.594
130.432
128.946
127.097
124.862
122.256
115.504
117.652
119.569
121.218
122.591
123.697
124.554
125.179
125.587
125.788
125.788
125.586
125.177
124.551
123.692
122.584
121.208
119.556
117.636
115.483
110.401
112.207
113.87
115.347
116.613
117.658
118.483
119.094
119.497
119.697
119.697
119.497
119.093
118.481
117.654
116.607
115.34
113.86
112.193
110.384
106.987
108.561
110.049
111.401
112.584
113.578
114.375
114.971
115.367
115.565
115.565
115.367
114.971
114.374
113.577
112.581
111.396
110.042
108.55
106.973
105.276
106.734
108.132
109.418
110.557
111.523
112.303
112.89
113.282
113.478
113.478
113.282
112.89
112.303
111.522
110.555
109.415
108.126
106.725
105.263
186.019
189.927
191.407
192.112
192.509
192.757
192.917
193.021
193.084
193.114
193.114
193.084
193.021
192.917
192.756
192.509
192.111
191.405
189.924
186.012
167.515
172.391
175.158
176.802
177.834
178.51
178.961
179.257
179.437
179.523
179.523
179.437
179.256
178.96
178.508
177.831
176.797
175.151
172.38
167.5
153.006
157.459
160.506
162.567
163.974
164.945
165.613
166.062
166.338
166.47
166.47
166.337
166.06
165.611
164.941
163.968
162.559
160.495
157.444
152.986
140.917
144.711
147.601
149.736
151.295
152.423
153.227
153.778
154.123
154.289
154.288
154.121
153.776
153.223
152.418
151.288
149.726
147.588
144.694
140.895
130.733
133.889
136.464
138.493
140.054
141.233
142.099
142.707
143.093
143.28
143.28
143.092
142.705
142.096
141.228
140.047
138.483
136.451
133.872
130.711
122.278
124.88
127.111
128.956
130.439
131.599
132.476
133.104
133.509
133.707
133.707
133.508
133.103
132.474
131.595
130.433
128.947
127.099
124.864
122.258
115.501
117.65
119.568
121.216
122.589
123.696
124.554
125.179
125.587
125.788
125.788
125.586
125.178
124.552
123.693
122.585
121.209
119.558
117.637
115.484
110.399
112.205
113.869
115.346
116.611
117.657
118.482
119.094
119.497
119.697
119.697
119.497
119.094
118.482
117.655
116.609
115.341
113.862
112.194
110.385
106.985
108.56
110.048
111.4
112.583
113.577
114.374
114.971
115.367
115.565
115.565
115.368
114.971
114.375
113.577
112.582
111.397
110.043
108.552
106.974
105.274
106.732
108.13
109.417
110.556
111.522
112.302
112.889
113.281
113.478
113.478
113.282
112.891
112.303
111.523
110.556
109.416
108.127
106.726
105.264
102.344
107.134
112.231
117.831
124.127
131.305
139.56
149.105
160.178
172.876
101.955
105.96
110.244
114.983
120.338
126.447
133.418
141.305
150.032
159.185
101.557
104.757
108.206
112.055
116.432
121.433
127.102
133.4
140.151
146.938
101.167
103.577
106.206
109.182
112.607
116.546
121.006
125.918
131.103
136.248
100.801
102.469
104.33
106.492
109.039
112.016
115.416
119.17
123.129
127.072
100.473
101.478
102.653
104.094
105.872
108.021
110.532
113.346
116.35
119.385
100.195
100.64
101.239
102.077
103.217
104.69
106.49
108.57
110.843
113.195
99.9785
99.9869
100.137
100.508
101.159
102.119
103.386
104.924
106.665
108.523
99.8305
99.5402
99.3824
99.4359
99.7556
100.371
101.283
102.463
103.857