/*--------------------------------*- C++ -*----------------------------------*\
| =========                 |                                                 |
| \\      /  F ield         | OpenFOAM: The Open Source CFD Toolbox           |
|  \\    /   O peration     | Version:  2.4.0                                 |
|   \\  /    A nd           | Web:      www.OpenFOAM.org                      |
|    \\/     M anipulation  |                                                 |
\*---------------------------------------------------------------------------*/
FoamFile
{
    version     2.0;
    format      ascii;
    class       volScalarField;
    location    "0.645";
    object      T;
}
// * * * * * * * * * * * * * * * * * * * * * * * * * * * * * * * * * * * * * //

dimensions      [0 0 0 1 0 0 0];

internalField   nonuniform List<scalar> 
1600
(
101.4
104.199
106.995
109.788
112.575
115.354
118.125
120.885
123.632
126.366
129.085
131.787
134.471
137.136
139.78
142.402
145.002
147.579
150.131
152.659
155.162
157.641
160.094
162.523
164.928
167.309
169.668
172.005
174.322
176.62
178.9
181.165
183.415
185.652
187.878
190.095
192.304
194.507
196.706
198.902
101.401
104.201
107
109.794
112.583
115.364
118.136
120.898
123.648
126.383
129.103
131.807
134.492
137.158
139.803
142.427
145.027
147.605
150.158
152.686
155.189
157.667
160.12
162.548
164.952
167.333
169.69
172.026
174.342
176.639
178.917
181.18
183.429
185.664
187.888
190.103
192.311
194.512
196.709
198.903
101.403
104.207
107.009
109.807
112.599
115.383
118.159
120.924
123.677
126.416
129.139
131.845
134.533
137.201
139.849
142.474
145.076
147.655
150.209
152.738
155.241
157.719
160.172
162.599
165.002
167.381
169.737
172.07
174.383
176.677
178.953
181.212
183.457
185.689
187.91
190.121
192.324
194.522
196.715
198.905
101.405
104.215
107.022
109.825
112.622
115.412
118.193
120.963
123.721
126.464
129.192
131.902
134.594
137.265
139.916
142.544
145.149
147.729
150.284
152.814
155.318
157.796
160.248
162.674
165.076
167.452
169.805
172.136
174.445
176.734
179.006
181.26
183.5
185.726
187.941
190.147
192.345
194.536
196.723
198.908
101.409
104.225
107.039
109.85
112.654
115.451
118.238
121.015
123.778
126.528
129.261
131.977
134.673
137.35
140.004
142.636
145.244
147.827
150.384
152.915
155.42
157.898
160.349
162.774
165.173
167.546
169.896
172.222
174.527
176.811
179.076
181.324
183.557
185.776
187.984
190.182
192.372
194.556
196.735
198.912
101.413
104.238
107.061
109.88
112.693
115.498
118.294
121.078
123.85
126.606
129.346
132.069
134.772
137.453
140.113
142.749
145.361
147.947
150.507
153.039
155.545
158.023
160.473
162.897
165.293
167.664
170.009
172.33
174.628
176.906
179.164
181.404
183.628
185.839
188.037
190.226
192.406
194.58
196.75
198.917
101.418
104.254
107.087
109.917
112.74
115.555
118.36
121.154
123.934
126.7
129.448
132.178
134.888
137.577
140.242
142.884
145.5
148.089
150.652
153.187
155.693
158.172
160.621
163.043
165.436
167.803
170.143
172.459
174.75
177.02
179.269
181.5
183.714
185.914
188.102
190.279
192.448
194.61
196.768
198.923
101.424
104.272
107.118
109.959
112.794
115.62
118.437
121.242
124.033
126.808
129.566
132.305
135.023
137.719
140.391
143.039
145.66
148.254
150.82
153.357
155.865
158.343
160.792
163.212
165.602
167.964
170.299
172.608
174.892
177.152
179.392
181.612
183.814
186.002
188.177
190.341
192.496
194.645
196.789
198.93
101.431
104.293
107.152
110.007
112.855
115.695
118.525
121.342
124.144
126.931
129.699
132.448
135.176
137.88
140.56
143.214
145.841
148.44
151.009
153.549
156.058
158.537
160.985
163.402
165.79
168.147
170.476
172.777
175.053
177.303
179.532
181.74
183.929
186.103
188.263
190.412
192.551
194.684
196.812
198.938
101.439
104.316
107.191
110.061
112.925
115.779
118.623
121.454
124.269
127.068
129.849
132.609
135.346
138.06
140.748
143.409
146.042
148.646
151.22
153.762
156.273
158.753
161.2
163.615
165.998
168.351
170.673
172.967
175.233
177.473
179.689
181.883
184.058
186.216
188.36
190.492
192.614
194.729
196.84
198.947
101.448
104.342
107.234
110.122
113.002
115.872
118.732
121.578
124.408
127.221
130.014
132.786
135.535
138.258
140.955
143.625
146.264
148.874
151.451
153.997
156.51
158.989
161.435
163.848
166.227
168.574
170.89
173.175
175.431
177.66
179.863
182.043
184.202
186.343
188.468
190.581
192.684
194.779
196.87
198.957
101.457
104.371
107.282
110.188
113.087
115.975
118.852
121.715
124.561
127.389
130.196
132.981
135.741
138.476
141.182
143.86
146.507
149.121
151.704
154.252
156.766
159.246
161.691
164.101
166.476
168.818
171.126
173.402
175.648
177.864
180.053
182.218
184.36
186.482
188.588
190.68
192.761
194.835
196.903
198.968
101.468
104.403
107.335
110.262
113.18
116.089
118.984
121.865
124.728
127.572
130.395
133.193
135.967
138.712
141.429
144.115
146.769
149.39
151.976
154.528
157.044
159.523
161.966
164.374
166.745
169.08
171.381
173.648
175.882
178.086
180.26
182.408
184.532
186.634
188.719
190.788
192.847
194.896
196.94
198.98
101.48
104.438
107.393
110.342
113.283
116.212
119.129
122.029
124.911
127.772
130.611
133.425
136.211
138.969
141.696
144.391
147.053
149.68
152.271
154.825
157.342
159.821
162.263
164.667
167.033
169.362
171.654
173.911
176.134
178.324
180.483
182.614
184.718
186.8
188.861
190.907
192.939
194.963
196.98
198.994
101.492
104.476
107.456
110.43
113.394
116.347
119.286
122.208
125.11
127.99
130.846
133.675
136.476
139.247
141.985
144.69
147.359
149.992
152.587
155.144
157.663
160.141
162.581
164.981
167.341
169.663
171.947
174.194
176.404
178.58
180.723
182.835
184.919
186.979
189.016
191.035
193.04
195.035
197.024
199.008
101.506
104.517
107.525
110.526
113.517
116.495
119.458
122.402
125.326
128.226
131.101
133.947
136.764
139.548
142.298
145.012
147.689
150.328
152.928
155.488
158.007
160.485
162.922
165.318
167.673
169.987
172.261
174.496
176.693
178.854
180.979
183.072
185.135
187.171
189.183
191.174
193.15
195.114
197.072
199.024
101.522
104.563
107.601
110.631
113.65
116.656
119.645
122.614
125.561
128.483
131.378
134.242
137.075
139.873
142.635
145.36
148.046
150.692
153.296
155.859
158.379
160.856
163.29
165.681
168.029
170.334
172.598
174.821
177.003
179.147
181.254
183.327
185.367
187.378
189.362
191.325
193.269
195.2
197.124
199.041
101.538
104.613
107.683
110.745
113.796
116.832
119.849
122.846
125.818
128.763
131.679
134.563
137.413
140.226
143.002
145.737
148.432
151.085
153.694
156.26
158.78
161.256
163.687
166.073
168.414
170.71
172.962
175.17
177.337
179.463
181.55
183.6
185.616
187.6
189.556
191.487
193.397
195.293
197.18
199.06
101.557
104.668
107.774
110.871
113.956
117.024
120.072
123.098
126.098
129.068
132.007
134.912
137.78
140.61
143.399
146.147
148.851
151.511
154.125
156.694
159.216
161.69
164.118
166.497
168.83
171.116
173.355
175.549
177.698
179.805
181.87
183.895
185.884
187.839
189.764
191.661
193.536
195.393
197.24
199.08
101.577
104.728
107.873
111.009
114.131
117.235
120.317
123.374
126.403
129.401
132.365
135.292
138.18
141.027
143.832
146.592
149.306
151.974
154.594
157.166
159.689
162.162
164.585
166.959
169.282
171.557
173.782
175.96
178.09
180.175
182.216
184.215
186.175
188.098
189.989
191.85
193.686
195.502
197.307
199.102
101.599
104.794
107.983
111.161
114.323
117.466
120.585
123.677
126.738
129.766
132.756
135.708
138.617
141.483
144.304
147.077
149.803
152.479
155.105
157.68
160.204
162.675
165.094
167.461
169.775
172.037
174.248
176.407
178.517
180.578
182.593
184.562
186.49
188.379
190.233
192.055
193.849
195.621
197.379
199.125
101.623
104.867
108.104
111.328
114.535
117.72
120.88
124.01
127.106
130.165
133.185
136.162
139.095
141.981
144.819
147.607
150.344
153.03
155.662
158.241
160.765
163.235
165.649
168.009
170.312
172.561
174.755
176.895
178.983
181.018
183.004
184.942
186.835
188.685
190.498
192.277
194.026
195.75
197.457
199.151
101.65
104.948
108.237
111.512
114.769
118.001
121.205
124.376
127.51
130.604
133.656
136.661
139.619
142.526
145.383
148.186
150.936
153.631
156.27
158.853
161.378
163.846
166.256
168.607
170.899
173.134
175.31
177.429
179.492
181.5
183.454
185.357
187.212
189.021
190.789
192.52
194.219
195.891
197.544
199.18
101.68
105.037
108.385
111.717
115.028
118.311
121.564
124.78
127.955
131.087
134.173
137.208
140.193
143.124
146
148.82
151.584
154.289
156.935
159.522
162.048
164.514
166.918
169.26
171.541
173.759
175.917
178.013
180.05
182.028
183.948
185.813
187.626
189.389
191.108
192.787
194.431
196.045
197.638
199.211
101.713
105.137
108.549
111.944
115.314
118.655
121.96
125.226
128.447
131.62
134.742
137.81
140.823
143.779
146.677
149.515
152.292
155.008
157.662
160.252
162.78
165.243
167.641
169.974
172.242
174.444
176.581
178.653
180.661
182.606
184.49
186.314
188.081
189.795
191.46
193.082
194.665
196.216
197.743
199.246
101.75
105.247
108.732
112.196
115.633
119.036
122.4
125.719
128.989
132.206
135.368
138.472
141.515
144.498
147.418
150.274
153.067
155.794
158.455
161.051
163.579
166.039
168.431
170.754
173.008
175.193
177.308
179.355
181.332
183.242
185.086
186.866
188.583
190.243
191.849
193.407
194.923
196.403
197.858
199.284
101.792
105.371
108.935
112.477
115.988
119.46
122.888
126.265
129.589
132.854
136.058
139.199
142.276
145.286
148.23
151.106
153.914
156.653
159.322
161.922
164.451
166.908
169.294
171.606
173.846
176.012
178.104
180.123
182.068
183.941
185.742
187.474
189.138
190.738
192.279
193.767
195.209
196.612
197.986
199.327
101.838
105.509
109.164
112.792
116.384
119.932
123.43
126.871
130.252
133.569
136.819
140
143.111
146.151
149.119
152.015
154.839
157.59
160.268
162.872
165.402
167.856
170.234
172.536
174.761
176.907
178.976
180.965
182.876
184.709
186.465
188.144
189.751
191.287
192.757
194.169
195.528
196.844
198.129
199.374
101.891
105.665
109.42
113.144
116.827
120.459
124.033
127.544
130.987
134.358
137.657
140.88
144.027
147.098
150.092
153.009
155.85
158.613
161.299
163.907
166.437
168.888
171.259
173.55
175.759
177.885
179.928
181.888
183.763
185.554
187.261
188.885
190.429
191.896
193.289
194.616
195.884
197.104
198.288
199.427
101.95
105.841
109.71
113.541
117.324
121.048
124.706
128.292
131.801
135.231
138.58
141.847
145.032
148.134
151.155
154.093
156.951
159.726
162.421
165.033
167.564
170.011
172.375
174.654
176.847
178.952
180.969
182.897
184.735
186.482
188.138
189.705
191.182
192.573
193.883
195.117
196.284
197.397
198.467
199.487
102.017
106.041
110.037
113.99
117.884
121.709
125.457
129.123
132.703
136.194
139.596
142.909
146.132
149.267
152.314
155.275
158.149
160.937
163.64
166.257
168.787
171.231
173.587
175.854
178.03
180.115
182.106
184.002
185.801
187.503
189.106
190.611
192.018
193.328
194.547
195.679
196.735
197.727
198.668
199.555
102.094
106.27
110.411
114.499
118.516
122.452
126.298
130.049
133.703
137.258
140.714
144.073
147.336
150.503
153.577
156.559
159.45
162.251
164.961
167.582
170.113
172.553
174.901
177.156
179.316
181.38
183.345
185.208
186.969
188.625
190.174
191.615
192.947
194.172
195.292
196.314
197.246
198.103
198.898
199.633
102.183
106.534
110.841
115.081
119.235
123.29
127.24
131.081
134.811
138.432
141.943
145.349
148.65
151.85
154.95
157.953
160.86
163.673
166.391
169.016
171.547
173.983
176.324
178.567
180.711
182.754
184.693
186.525
188.248
189.857
191.351
192.727
193.983
195.117
196.133
197.033
197.828
198.533
199.161
199.722
102.288
106.842
111.34
115.751
120.055
124.239
128.299
132.232
136.04
139.726
143.292
146.743
150.082
153.313
156.439
159.462
162.385
165.208
167.934
170.563
173.093
175.526
177.86
180.092
182.221
184.245
186.159
187.961
189.646
191.211
192.65
193.961
195.138
196.18
197.085
197.855
198.498
199.03
199.467
199.829
102.413
107.209
111.928
116.531
120.997
125.317
129.49
133.516
137.402
141.151
144.77
148.265
151.64
154.9
158.049
161.091
164.028
166.862
169.595
172.227
174.758
177.188
179.515
181.737
183.852
185.857
187.749
189.522
191.173
192.695
194.083
195.331
196.431
197.378
198.169
198.801
199.278
199.616
199.83
199.957
102.567
107.655
112.631
117.447
122.087
126.548
130.833
134.95
138.909
142.718
146.386
149.921
153.329
156.616
159.786
162.845
165.796
168.639
171.378
174.013
176.545
178.972
181.293
183.507
185.61
187.599
189.47
191.219
192.838
194.322
195.663
196.852
197.879
198.735
199.41
199.898
200.196
200.318
200.27
200.114
102.765
108.218
113.491
118.539
123.357
127.956
132.348
136.549
140.575
144.437
148.149
151.719
155.155
158.465
161.655
164.729
167.691
170.543
173.288
175.926
178.458
180.883
183.2
185.407
187.5
189.476
191.331
193.059
194.652
196.103
197.403
198.541
199.503
200.275
200.842
201.187
201.296
201.175
200.814
200.308
103.038
108.961
114.57
119.855
124.845
129.569
134.056
138.329
142.411
146.319
150.066
153.665
157.125
160.455
163.66
166.747
169.718
172.578
175.328
177.969
180.502
182.927
185.241
187.443
189.529
191.496
193.339
195.05
196.623
198.049
199.318
200.415
201.325
202.029
202.502
202.719
202.644
202.262
201.519
200.569
103.498
110.001
115.945
121.451
126.59
131.417
135.978
140.308
144.432
148.374
152.148
155.769
159.247
162.592
165.809
168.905
171.885
174.751
177.505
180.15
182.685
185.109
187.423
189.622
191.704
193.666
195.5
197.201
198.762
200.171
201.418
202.488
203.361
204.017
204.424
204.546
204.322
203.698
202.531
201.009
104.345
111.586
117.805
123.46
128.69
133.575
138.176
142.534
146.682
150.641
154.429
158.062
161.55
164.902
168.127
171.228
174.212
177.082
179.839
182.486
185.022
187.447
189.759
191.957
194.038
195.996
197.826
199.522
201.076
202.476
203.711
204.766
205.619
206.248
206.618
206.687
206.381
205.62
204.161
202.058
)
;

boundaryField
{
    carasuperior
    {
        type            fixedGradient;
        gradient        uniform 100;
    }
    lateralizquierda
    {
        type            fixedValue;
        value           uniform 100;
    }
    lateralderecha
    {
        type            fixedValue;
        value           uniform 200;
    }
    carainferior
    {
        type            zeroGradient;
    }
    frontAndBack
    {
        type            empty;
    }
}


// ************************************************************************* //
