/*--------------------------------*- C++ -*----------------------------------*\
| =========                 |                                                 |
| \\      /  F ield         | OpenFOAM: The Open Source CFD Toolbox           |
|  \\    /   O peration     | Version:  2.4.0                                 |
|   \\  /    A nd           | Web:      www.OpenFOAM.org                      |
|    \\/     M anipulation  |                                                 |
\*---------------------------------------------------------------------------*/
FoamFile
{
    version     2.0;
    format      ascii;
    class       volScalarField;
    location    "4.6";
    object      p;
}
// * * * * * * * * * * * * * * * * * * * * * * * * * * * * * * * * * * * * * //

dimensions      [0 2 -2 0 0 0 0];

internalField   nonuniform List<scalar> 
4800
(
2.58841e-06
-0.00159856
-0.00328385
-0.00453411
-0.00502444
-0.00460323
-0.00322316
-0.000887842
0.00235806
0.00641883
0.00160099
-3.26761e-05
-0.00123033
-0.00194505
-0.00205304
-0.00144405
-7.03236e-05
0.00208478
0.0050118
0.0086643
0.00332592
0.00111513
-9.05087e-05
-0.000649417
-0.000631007
2.32524e-05
0.00134501
0.00336163
0.00609537
0.00954332
0.00449558
0.00162698
0.000246474
-0.000327889
-0.000325029
0.000269395
0.00147557
0.00333944
0.00592784
0.00929809
0.00455607
0.00116527
-0.000400931
-0.0010651
-0.0011723
-0.000734374
0.000275213
0.00194144
0.00440373
0.00782727
0.00313885
-0.000563427
-0.00228229
-0.00308721
-0.00339264
-0.00321693
-0.0025046
-0.00110442
0.00123751
0.00489938
6.47953e-05
-0.0037078
-0.00552391
-0.00650574
-0.00709376
-0.0072975
-0.00701204
-0.0059937
-0.0038277
0.000296701
-0.00466889
-0.0082714
-0.0101205
-0.011304
-0.0122532
-0.0129638
-0.0132714
-0.0128287
-0.0110442
-0.00625848
-0.010898
-0.014117
-0.0159333
-0.0173262
-0.018693
-0.0200243
-0.0211026
-0.0214813
-0.0204725
-0.0148544
-0.0183073
-0.0209839
-0.0227032
-0.0242833
-0.0260782
-0.0281086
-0.030172
-0.0318262
-0.0328299
-0.0284493
2.73919e-06
-0.00161962
-0.00331534
-0.00457453
-0.0050702
-0.0046512
-0.00327128
-0.000934076
0.00231606
0.00638372
0.00161862
-3.73543e-05
-0.00121301
-0.00191755
-0.00202042
-0.00140821
-3.43782e-05
0.0021182
0.00504111
0.00868959
0.00335638
0.00108901
-9.17449e-05
-0.000648355
-0.000632384
2.19671e-05
0.00134359
0.00335953
0.00609247
0.00954153
0.00453994
0.0015902
0.000246666
-0.000324594
-0.000325986
0.000267947
0.00147364
0.00333629
0.00592236
0.00929325
0.00461039
0.00112205
-0.000395907
-0.00105434
-0.00116577
-0.000728147
0.000280772
0.00194472
0.00440029
0.0078205
0.00319826
-0.000611218
-0.00227569
-0.00307351
-0.00338312
-0.00320748
-0.00249537
-0.001097
0.00123158
0.00488049
0.000125025
-0.00375673
-0.00551683
-0.00649074
-0.00708232
-0.00728565
-0.00699892
-0.005978
-0.0038355
0.000248693
-0.00461398
-0.00831848
-0.010114
-0.0112895
-0.0122413
-0.0129517
-0.0132577
-0.0128044
-0.0110673
-0.00642559
-0.0108524
-0.0141597
-0.0159288
-0.017314
-0.0186819
-0.0200122
-0.0210864
-0.0214246
-0.0204556
-0.0152295
-0.0182742
-0.0210208
-0.0227024
-0.0242763
-0.0260709
-0.0280979
-0.0301492
-0.0316854
-0.0325003
-0.0285627
2.8817e-06
-0.00161954
-0.00331527
-0.00457448
-0.00507016
-0.00465117
-0.00327126
-0.000934057
0.00231608
0.00638373
0.0016187
-3.72835e-05
-0.00121294
-0.00191749
-0.00202038
-0.00140818
-3.43532e-05
0.00211822
0.00504112
0.0086896
0.00335645
0.00108907
-9.16896e-05
-0.00064831
-0.000632347
2.19972e-05
0.00134361
0.00335955
0.00609249
0.00954155
0.00453999
0.00159025
0.00024671
-0.000324556
-0.000325953
0.000267974
0.00147366
0.0033363
0.00592237
0.00929327
0.00461043
0.00112209
-0.000395872
-0.00105431
-0.00116575
-0.000728124
0.000280792
0.00194474
0.00440031
0.00782051
0.00319829
-0.000611189
-0.00227567
-0.00307348
-0.0033831
-0.00320746
-0.00249535
-0.00109698
0.00123159
0.0048805
0.000125049
-0.00375671
-0.00551681
-0.00649072
-0.0070823
-0.00728564
-0.00699891
-0.00597798
-0.00383549
0.000248703
-0.00461396
-0.00831846
-0.010114
-0.0112894
-0.0122413
-0.0129516
-0.0132577
-0.0128044
-0.0110673
-0.00642558
-0.0108524
-0.0141597
-0.0159288
-0.017314
-0.0186818
-0.0200122
-0.0210864
-0.0214246
-0.0204556
-0.0152295
-0.0182742
-0.0210208
-0.0227024
-0.0242763
-0.0260709
-0.0280978
-0.0301492
-0.0316854
-0.0325003
-0.0285627
4.07588e-06
-0.00159811
-0.00328362
-0.00453395
-0.00502433
-0.00460315
-0.0032231
-0.000887792
0.0023581
0.00641886
0.00160143
-3.24096e-05
-0.00123013
-0.00194491
-0.00205294
-0.00144396
-7.02588e-05
0.00208483
0.00501184
0.00866434
0.00332614
0.00111532
-9.03488e-05
-0.000649292
-0.000630908
2.33305e-05
0.00134507
0.00336168
0.00609541
0.00954335
0.00449573
0.00162712
0.000246598
-0.000327786
-0.000324944
0.000269466
0.00147563
0.00333949
0.00592788
0.00929812
0.00455617
0.00116537
-0.000400837
-0.00106502
-0.00117223
-0.000734314
0.000275264
0.00194149
0.00440377
0.0078273
0.00313893
-0.00056335
-0.00228222
-0.00308714
-0.00339258
-0.00321688
-0.00250456
-0.00110439
0.00123755
0.00489941
6.48515e-05
-0.00370774
-0.00552385
-0.00650569
-0.00709371
-0.00729746
-0.007012
-0.00599367
-0.00382767
0.000296725
-0.00466884
-0.00827135
-0.0101204
-0.011304
-0.0122532
-0.0129637
-0.0132714
-0.0128287
-0.0110442
-0.00625845
-0.010898
-0.0141169
-0.0159332
-0.0173262
-0.018693
-0.0200242
-0.0211026
-0.0214813
-0.0204725
-0.0148543
-0.0183072
-0.0209839
-0.0227032
-0.0242833
-0.0260782
-0.0281086
-0.030172
-0.0318262
-0.0328299
-0.0284493
0.0111416
0.0163389
0.0218416
0.0275216
0.0332942
0.0391097
0.0449445
0.0507929
0.056663
0.062575
0.0685616
0.0746687
0.0809559
0.0874945
0.0943612
0.101625
0.109325
0.117443
0.12586
0.134338
0.0129457
0.0177182
0.022852
0.0282392
0.0337972
0.0394681
0.0452155
0.0510211
0.0568812
0.0628051
0.0688144
0.0749417
0.0812296
0.0877275
0.094486
0.101546
0.108925
0.11659
0.124442
0.132289
0.0136405
0.0182487
0.0232447
0.0285253
0.0340064
0.0396258
0.0453418
0.0511297
0.0569796
0.0628941
0.0688867
0.0749806
0.0812074
0.0876051
0.0942133
0.101068
0.108189
0.115563
0.123127
0.130733
0.0134103
0.0180628
0.0231097
0.0284391
0.0339615
0.0396131
0.045352
0.0511529
0.0570038
0.0629032
0.0688581
0.0748833
0.0810007
0.0872389
0.0936329
0.100223
0.107049
0.114141
0.121495
0.12904
0.0122113
0.0171576
0.0224642
0.0280055
0.0336878
0.039453
0.0452676
0.0511131
0.0569804
0.0628665
0.0687732
0.0747063
0.0806766
0.0867021
0.0928119
0.0990532
0.105494
0.112223
0.119335
0.126899
0.00999298
0.0155869
0.0213998
0.0273189
0.0332652
0.0392065
0.0451332
0.0510432
0.0569362
0.0628108
0.0686641
0.0744922
0.0802923
0.0860675
0.091835
0.0976421
0.103584
0.109818
0.116573
0.124196
0.00688724
0.0136186
0.0201883
0.0266048
0.0328603
0.0389881
0.0450248
0.0509945
0.0569094
0.062771
0.0685714
0.0742953
0.0799233
0.0854371
0.0908314
0.0961368
0.101464
0.107028
0.113223
0.120905
0.00331056
0.0117818
0.0192627
0.0261733
0.0326753
0.0389223
0.0450173
0.0510134
0.0569331
0.0627776
0.0685322
0.0741682
0.0796463
0.0849213
0.0899523
0.0947341
0.0993712
0.104091
0.109416
0.117013
0.00131434
0.0117623
0.0195658
0.0265066
0.0329482
0.0391249
0.0451706
0.0511383
0.0570418
0.0628728
0.0686044
0.0741924
0.0795743
0.08467
0.0893843
0.0936395
0.0974859
0.100942
0.104361
0.110665
0.00586557
0.0170969
0.0227439
0.0282769
0.033941
0.0397
0.0455352
0.0514096
0.0572867
0.0631292
0.0688912
0.0745089
0.0798911
0.0849069
0.0893688
0.0930139
0.0954872
0.0964935
0.0952276
0.0967595
0.0111151
0.0163204
0.0218293
0.0275139
0.0332894
0.0391067
0.0449424
0.0507911
0.0566611
0.0625727
0.0685585
0.0746646
0.0809508
0.0874885
0.0943548
0.101619
0.109321
0.117443
0.125868
0.134357
0.0129681
0.0177369
0.0228667
0.0282505
0.0338057
0.0394745
0.0452206
0.0510255
0.0568854
0.0628096
0.0688194
0.0749472
0.0812352
0.0877327
0.0944895
0.101546
0.108919
0.116577
0.12442
0.132258
0.0136433
0.0182535
0.02325
0.0285304
0.0340107
0.0396293
0.0453444
0.0511317
0.0569812
0.0628954
0.0688877
0.0749814
0.0812081
0.0876053
0.094213
0.101066
0.108186
0.115559
0.123121
0.130728
0.0134147
0.0180699
0.0231167
0.0284454
0.0339665
0.0396168
0.0453546
0.0511547
0.057005
0.062904
0.0688587
0.0748837
0.081001
0.0872391
0.0936329
0.100222
0.107048
0.114138
0.12149
0.129035
0.0122232
0.017171
0.022475
0.028014
0.0336938
0.0394569
0.0452701
0.0511147
0.0569814
0.0628673
0.0687738
0.0747069
0.0806774
0.086703
0.0928127
0.0990533
0.105493
0.11222
0.119324
0.126884
0.0100184
0.0156086
0.0214134
0.027328
0.0332706
0.0392093
0.0451346
0.0510439
0.0569365
0.0628109
0.0686642
0.0744925
0.0802929
0.0860684
0.0918361
0.0976428
0.103585
0.109816
0.116555
0.124158
0.00695488
0.0136633
0.0202091
0.0266156
0.0328649
0.0389896
0.045025
0.0509943
0.0569091
0.0627708
0.0685714
0.0742957
0.079924
0.0854385
0.0908331
0.0961377
0.101463
0.107022
0.11318
0.120802
0.00342543
0.0118286
0.0192723
0.026177
0.0326748
0.0389204
0.0450155
0.0510119
0.0569319
0.0627766
0.0685313
0.0741674
0.0796459
0.0849217
0.0899539
0.0947345
0.0993697
0.104096
0.109378
0.116847
0.00145783
0.0116987
0.0194945
0.0264761
0.0329324
0.0391153
0.0451646
0.0511337
0.0570374
0.0628678
0.0685984
0.0741852
0.0795663
0.0846624
0.0893799
0.0936405
0.097505
0.10103
0.104482
0.110486
0.00670659
0.0172404
0.0227544
0.0283
0.033956
0.0397071
0.0455392
0.0514125
0.0572892
0.063132
0.0688946
0.0745132
0.0798964
0.0849127
0.0893732
0.0930114
0.0954778
0.0965246
0.0951659
0.0956945
0.0111151
0.0163204
0.0218293
0.0275139
0.0332894
0.0391067
0.0449424
0.0507911
0.0566611
0.0625727
0.0685585
0.0746646
0.0809508
0.0874885
0.0943548
0.101619
0.109321
0.117443
0.125868
0.134357
0.0129681
0.0177369
0.0228667
0.0282505
0.0338057
0.0394745
0.0452206
0.0510255
0.0568854
0.0628096
0.0688194
0.0749472
0.0812352
0.0877327
0.0944895
0.101546
0.108919
0.116577
0.12442
0.132258
0.0136433
0.0182535
0.02325
0.0285304
0.0340107
0.0396293
0.0453444
0.0511317
0.0569812
0.0628954
0.0688877
0.0749814
0.0812081
0.0876053
0.094213
0.101066
0.108186
0.115559
0.123121
0.130728
0.0134147
0.0180699
0.0231167
0.0284454
0.0339665
0.0396169
0.0453546
0.0511547
0.057005
0.062904
0.0688587
0.0748837
0.081001
0.0872391
0.0936329
0.100222
0.107048
0.114138
0.12149
0.129035
0.0122232
0.017171
0.022475
0.0280141
0.0336938
0.0394569
0.0452701
0.0511147
0.0569814
0.0628673
0.0687738
0.0747069
0.0806774
0.086703
0.0928127
0.0990533
0.105493
0.11222
0.119324
0.126884
0.0100184
0.0156086
0.0214134
0.027328
0.0332706
0.0392093
0.0451346
0.0510439
0.0569365
0.0628109
0.0686642
0.0744925
0.0802929
0.0860684
0.0918361
0.0976428
0.103585
0.109816
0.116555
0.124158
0.00695489
0.0136633
0.0202091
0.0266156
0.0328649
0.0389896
0.045025
0.0509943
0.0569091
0.0627708
0.0685714
0.0742957
0.079924
0.0854385
0.0908331
0.0961377
0.101463
0.107022
0.11318
0.120802
0.00342544
0.0118286
0.0192723
0.026177
0.0326748
0.0389204
0.0450155
0.0510119
0.0569319
0.0627766
0.0685313
0.0741674
0.0796459
0.0849217
0.0899539
0.0947345
0.0993697
0.104096
0.109378
0.116847
0.00145783
0.0116987
0.0194945
0.0264761
0.0329324
0.0391153
0.0451646
0.0511337
0.0570374
0.0628678
0.0685984
0.0741852
0.0795663
0.0846624
0.0893799
0.0936405
0.097505
0.10103
0.104482
0.110486
0.0067066
0.0172404
0.0227544
0.0283
0.033956
0.0397071
0.0455392
0.0514125
0.0572892
0.063132
0.0688946
0.0745132
0.0798964
0.0849127
0.0893732
0.0930114
0.0954778
0.0965246
0.0951659
0.0956945
0.0111416
0.016339
0.0218416
0.0275217
0.0332942
0.0391097
0.0449445
0.0507929
0.056663
0.062575
0.0685616
0.0746687
0.0809559
0.0874945
0.0943612
0.101625
0.109325
0.117443
0.12586
0.134338
0.0129458
0.0177182
0.022852
0.0282392
0.0337972
0.0394681
0.0452156
0.0510211
0.0568812
0.0628051
0.0688144
0.0749417
0.0812296
0.0877275
0.094486
0.101546
0.108925
0.11659
0.124442
0.132289
0.0136406
0.0182487
0.0232447
0.0285254
0.0340064
0.0396258
0.0453418
0.0511297
0.0569796
0.0628941
0.0688867
0.0749806
0.0812074
0.0876051
0.0942133
0.101068
0.108189
0.115563
0.123127
0.130733
0.0134104
0.0180629
0.0231097
0.0284391
0.0339615
0.0396132
0.045352
0.0511529
0.0570038
0.0629032
0.0688581
0.0748833
0.0810007
0.0872389
0.0936329
0.100223
0.107049
0.114141
0.121495
0.12904
0.0122113
0.0171577
0.0224642
0.0280056
0.0336878
0.039453
0.0452676
0.0511131
0.0569804
0.0628665
0.0687732
0.0747063
0.0806766
0.0867021
0.0928119
0.0990532
0.105494
0.112223
0.119335
0.126899
0.00999301
0.0155869
0.0213998
0.0273189
0.0332652
0.0392065
0.0451332
0.0510432
0.0569362
0.0628108
0.0686641
0.0744922
0.0802923
0.0860675
0.091835
0.0976421
0.103584
0.109818
0.116573
0.124196
0.00688726
0.0136186
0.0201883
0.0266048
0.0328603
0.0389881
0.0450248
0.0509945
0.0569094
0.062771
0.0685714
0.0742953
0.0799233
0.0854371
0.0908314
0.0961368
0.101464
0.107028
0.113223
0.120905
0.00331058
0.0117818
0.0192627
0.0261734
0.0326753
0.0389223
0.0450173
0.0510134
0.0569331
0.0627777
0.0685322
0.0741682
0.0796463
0.0849213
0.0899523
0.0947341
0.0993712
0.104091
0.109416
0.117013
0.00131436
0.0117623
0.0195658
0.0265066
0.0329482
0.0391249
0.0451707
0.0511383
0.0570418
0.0628728
0.0686044
0.0741924
0.0795743
0.08467
0.0893843
0.0936395
0.0974859
0.100942
0.104361
0.110665
0.00586559
0.0170969
0.0227439
0.028277
0.033941
0.0397
0.0455352
0.0514096
0.0572867
0.0631292
0.0688912
0.0745089
0.0798911
0.0849069
0.0893688
0.0930139
0.0954872
0.0964935
0.0952276
0.0967595
0.142507
0.149918
0.15615
0.160888
0.163965
0.165386
0.165328
0.164159
0.162434
0.160835
0.139832
0.1467
0.152548
0.157115
0.160262
0.161994
0.162458
0.161947
0.160799
0.159231
0.138113
0.144884
0.150699
0.155298
0.158543
0.160428
0.161077
0.160741
0.159601
0.157545
0.136533
0.143491
0.149515
0.154316
0.157738
0.159764
0.160503
0.160183
0.158887
0.156294
0.134738
0.142123
0.148564
0.153727
0.157432
0.159657
0.160507
0.160203
0.15878
0.155805
0.132707
0.14079
0.147852
0.153522
0.157607
0.160096
0.161104
0.160861
0.159393
0.156229
0.130642
0.139709
0.147541
0.153805
0.158319
0.161106
0.162313
0.162187
0.160773
0.157615
0.128986
0.139326
0.147979
0.154819
0.159718
0.162774
0.164182
0.164211
0.162937
0.15996
0.127981
0.140328
0.149756
0.156981
0.162059
0.165239
0.166777
0.166955
0.165877
0.163221
0.132356
0.145933
0.15453
0.161097
0.165718
0.168667
0.170157
0.170418
0.169548
0.167304
0.14254
0.149963
0.156204
0.160947
0.164024
0.16544
0.165372
0.16419
0.162451
0.160834
0.139795
0.146657
0.152501
0.157066
0.160214
0.161951
0.162421
0.161921
0.160794
0.15921
0.138114
0.144889
0.150705
0.155305
0.15855
0.160433
0.161077
0.16074
0.159618
0.157513
0.13654
0.143503
0.149529
0.154331
0.157752
0.159774
0.160507
0.160184
0.158914
0.156254
0.134745
0.142134
0.148576
0.153738
0.157442
0.159663
0.160506
0.160202
0.158813
0.155759
0.132717
0.140802
0.147864
0.153533
0.157617
0.160102
0.161102
0.160859
0.159429
0.156181
0.130665
0.139725
0.147554
0.153818
0.158328
0.161112
0.162311
0.162186
0.160809
0.157567
0.129127
0.139382
0.148003
0.154835
0.159725
0.162778
0.164179
0.164209
0.16297
0.159914
0.12831
0.140345
0.149733
0.156973
0.162053
0.165236
0.166772
0.166952
0.165906
0.163179
0.132243
0.145559
0.154363
0.161049
0.165699
0.16866
0.170152
0.170416
0.169573
0.167269
0.14254
0.149963
0.156204
0.160947
0.164024
0.16544
0.165372
0.16419
0.162451
0.160834
0.139795
0.146657
0.152501
0.157066
0.160214
0.161951
0.162421
0.161921
0.160794
0.15921
0.138114
0.144889
0.150705
0.155305
0.15855
0.160433
0.161077
0.16074
0.159618
0.157513
0.13654
0.143503
0.149529
0.154331
0.157752
0.159774
0.160507
0.160184
0.158914
0.156254
0.134745
0.142134
0.148576
0.153738
0.157442
0.159663
0.160506
0.160202
0.158813
0.155759
0.132717
0.140802
0.147864
0.153533
0.157617
0.160102
0.161102
0.160859
0.159429
0.156181
0.130665
0.139725
0.147554
0.153818
0.158328
0.161112
0.162311
0.162186
0.160809
0.157567
0.129127
0.139382
0.148003
0.154835
0.159725
0.162778
0.164179
0.164209
0.16297
0.159914
0.12831
0.140345
0.149733
0.156973
0.162053
0.165236
0.166772
0.166952
0.165906
0.163179
0.132243
0.145559
0.154363
0.161049
0.165699
0.16866
0.170152
0.170416
0.169573
0.167269
0.142507
0.149918
0.15615
0.160888
0.163965
0.165386
0.165328
0.164159
0.162434
0.160835
0.139832
0.1467
0.152548
0.157115
0.160262
0.161994
0.162458
0.161947
0.160799
0.159231
0.138113
0.144884
0.150699
0.155298
0.158543
0.160428
0.161077
0.160741
0.159601
0.157545
0.136533
0.143491
0.149515
0.154316
0.157738
0.159764
0.160503
0.160183
0.158887
0.156294
0.134738
0.142123
0.148564
0.153727
0.157432
0.159657
0.160507
0.160203
0.15878
0.155805
0.132707
0.14079
0.147852
0.153522
0.157607
0.160096
0.161104
0.160861
0.159393
0.156229
0.130642
0.139709
0.147541
0.153805
0.158319
0.161106
0.162313
0.162187
0.160773
0.157615
0.128986
0.139326
0.147979
0.154819
0.159718
0.162774
0.164182
0.164211
0.162937
0.15996
0.127981
0.140328
0.149756
0.156981
0.162059
0.165239
0.166777
0.166955
0.165877
0.163221
0.132356
0.145933
0.15453
0.161097
0.165718
0.168667
0.170157
0.170418
0.169548
0.167304
0.166622
0.16207
0.164077
0.167675
0.170808
0.173056
0.174282
0.174534
0.173855
0.172059
0.177792
0.172476
0.17252
0.17439
0.176397
0.178008
0.178949
0.179166
0.17866
0.1773
0.183374
0.180234
0.17997
0.180942
0.182205
0.183321
0.184013
0.184189
0.183832
0.182859
0.188834
0.187129
0.186851
0.187341
0.188119
0.188868
0.189359
0.189496
0.189261
0.188607
0.194421
0.193531
0.193331
0.193585
0.194062
0.194554
0.194892
0.194998
0.194856
0.194453
0.200109
0.199685
0.199576
0.199716
0.200005
0.200318
0.200542
0.20062
0.200548
0.200337
0.205901
0.205747
0.205705
0.20578
0.205942
0.206123
0.206255
0.206304
0.20628
0.206215
0.211785
0.211806
0.211798
0.211819
0.211877
0.211944
0.211989
0.212
0.212001
0.21205
0.217788
0.217917
0.217914
0.217868
0.217817
0.217763
0.217709
0.217664
0.217666
0.217797
0.223947
0.224138
0.224104
0.22396
0.223771
0.223567
0.223383
0.223251
0.223225
0.223406
0.23033
0.230531
0.230416
0.230125
0.229746
0.229342
0.228981
0.228718
0.228624
0.228813
0.237029
0.237163
0.236898
0.236389
0.235748
0.235075
0.234473
0.234024
0.233808
0.233942
0.24416
0.244102
0.24359
0.242771
0.241779
0.240753
0.239835
0.23913
0.238723
0.238707
0.251867
0.251409
0.250515
0.249276
0.247832
0.246365
0.245051
0.244016
0.243329
0.243025
0.260329
0.259093
0.257648
0.255871
0.253883
0.251902
0.250125
0.248686
0.247615
0.246826
0.269655
0.267123
0.264873
0.262448
0.259862
0.257345
0.255083
0.253191
0.251615
0.250095
0.279905
0.275167
0.271848
0.26874
0.26561
0.26265
0.259978
0.257641
0.255451
0.252879
0.290754
0.282464
0.277867
0.274227
0.270808
0.267705
0.264876
0.262225
0.25935
0.25535
0.302195
0.288028
0.28176
0.277962
0.274845
0.272247
0.269819
0.267207
0.263689
0.257856
0.313174
0.288274
0.280329
0.277777
0.276464
0.275707
0.274764
0.272931
0.269038
0.261001
0.167463
0.162214
0.164192
0.167743
0.170834
0.173068
0.174286
0.174537
0.173877
0.172032
0.177935
0.172413
0.172567
0.174435
0.176419
0.178021
0.178956
0.179171
0.178678
0.177281
0.183384
0.180164
0.17998
0.180962
0.182218
0.183331
0.18402
0.184194
0.183846
0.182847
0.188856
0.1871
0.186855
0.187352
0.188128
0.188876
0.189365
0.189501
0.189271
0.188599
0.194435
0.193517
0.193331
0.19359
0.194067
0.19456
0.194897
0.195002
0.194863
0.194449
0.200115
0.199679
0.199574
0.199717
0.200008
0.200322
0.200545
0.200623
0.200552
0.200335
0.205903
0.205745
0.205704
0.20578
0.205943
0.206125
0.206257
0.206306
0.206281
0.206215
0.211784
0.211807
0.211797
0.211818
0.211878
0.211945
0.211991
0.212001
0.212
0.212051
0.217786
0.21792
0.217913
0.217868
0.217817
0.217764
0.21771
0.217664
0.217663
0.2178
0.223944
0.224142
0.224103
0.22396
0.223771
0.223567
0.223384
0.223251
0.223221
0.22341
0.230326
0.230536
0.230416
0.230124
0.229745
0.229342
0.228982
0.228718
0.22862
0.228818
0.237023
0.237167
0.236897
0.236387
0.235747
0.235074
0.234473
0.234024
0.233804
0.233947
0.244154
0.244104
0.243588
0.242769
0.241777
0.240752
0.239835
0.239131
0.238721
0.238712
0.251863
0.251404
0.250511
0.249273
0.24783
0.246364
0.245051
0.244018
0.243331
0.243029
0.260328
0.259075
0.257642
0.255867
0.25388
0.2519
0.250125
0.248689
0.247625
0.246827
0.269668
0.267085
0.264866
0.262445
0.259858
0.257343
0.255083
0.253196
0.251637
0.25009
0.279956
0.275098
0.271842
0.26874
0.265604
0.262648
0.259978
0.25765
0.25549
0.252864
0.29082
0.282289
0.277843
0.274225
0.2708
0.267704
0.264878
0.262238
0.259415
0.255321
0.30231
0.287704
0.281766
0.278005
0.27486
0.272259
0.269828
0.267228
0.263788
0.257807
0.314505
0.288382
0.280623
0.277961
0.276532
0.275741
0.27478
0.272961
0.26918
0.260924
0.167463
0.162214
0.164192
0.167743
0.170834
0.173068
0.174286
0.174537
0.173877
0.172032
0.177935
0.172413
0.172567
0.174435
0.176419
0.178021
0.178956
0.179171
0.178678
0.177281
0.183384
0.180164
0.17998
0.180962
0.182218
0.183331
0.18402
0.184194
0.183846
0.182847
0.188856
0.1871
0.186855
0.187352
0.188128
0.188876
0.189365
0.189501
0.189271
0.188599
0.194435
0.193517
0.193331
0.19359
0.194067
0.19456
0.194897
0.195002
0.194863
0.194449
0.200115
0.199679
0.199574
0.199717
0.200008
0.200322
0.200545
0.200623
0.200552
0.200335
0.205903
0.205745
0.205704
0.20578
0.205943
0.206125
0.206257
0.206306
0.206281
0.206215
0.211784
0.211807
0.211797
0.211818
0.211878
0.211945
0.211991
0.212001
0.212
0.212051
0.217786
0.21792
0.217913
0.217868
0.217817
0.217764
0.21771
0.217664
0.217663
0.2178
0.223944
0.224142
0.224103
0.22396
0.223771
0.223567
0.223384
0.223251
0.223221
0.22341
0.230326
0.230536
0.230416
0.230124
0.229745
0.229342
0.228982
0.228718
0.22862
0.228818
0.237023
0.237167
0.236897
0.236387
0.235747
0.235074
0.234473
0.234024
0.233804
0.233947
0.244154
0.244104
0.243588
0.242769
0.241777
0.240752
0.239835
0.239131
0.238721
0.238712
0.251863
0.251404
0.250511
0.249273
0.24783
0.246364
0.245051
0.244018
0.243331
0.243029
0.260328
0.259075
0.257642
0.255867
0.25388
0.2519
0.250125
0.248689
0.247625
0.246827
0.269668
0.267085
0.264866
0.262445
0.259858
0.257343
0.255083
0.253196
0.251637
0.25009
0.279956
0.275098
0.271842
0.26874
0.265604
0.262648
0.259978
0.25765
0.25549
0.252864
0.29082
0.282289
0.277843
0.274225
0.2708
0.267704
0.264878
0.262238
0.259415
0.255321
0.30231
0.287704
0.281766
0.278005
0.27486
0.272259
0.269828
0.267228
0.263788
0.257807
0.314505
0.288382
0.280623
0.277961
0.276532
0.275741
0.27478
0.272961
0.26918
0.260924
0.166622
0.16207
0.164077
0.167675
0.170808
0.173056
0.174282
0.174534
0.173855
0.172059
0.177792
0.172476
0.17252
0.17439
0.176397
0.178008
0.178949
0.179166
0.17866
0.1773
0.183374
0.180234
0.17997
0.180942
0.182205
0.183321
0.184013
0.184189
0.183832
0.182859
0.188834
0.187129
0.186851
0.187341
0.188119
0.188868
0.189359
0.189496
0.189261
0.188607
0.194421
0.193531
0.193331
0.193585
0.194062
0.194554
0.194892
0.194998
0.194856
0.194453
0.200109
0.199685
0.199576
0.199716
0.200005
0.200318
0.200542
0.20062
0.200548
0.200337
0.205901
0.205747
0.205705
0.20578
0.205942
0.206123
0.206255
0.206304
0.20628
0.206215
0.211785
0.211806
0.211798
0.211819
0.211877
0.211944
0.211989
0.212
0.212001
0.21205
0.217788
0.217917
0.217914
0.217868
0.217817
0.217763
0.217709
0.217664
0.217666
0.217797
0.223947
0.224138
0.224104
0.22396
0.223771
0.223567
0.223383
0.223251
0.223225
0.223406
0.23033
0.230531
0.230416
0.230125
0.229746
0.229342
0.228981
0.228718
0.228624
0.228813
0.237029
0.237163
0.236898
0.236389
0.235748
0.235075
0.234473
0.234024
0.233808
0.233942
0.24416
0.244102
0.24359
0.242771
0.241779
0.240753
0.239835
0.23913
0.238723
0.238707
0.251867
0.251409
0.250515
0.249276
0.247832
0.246365
0.245051
0.244016
0.243329
0.243025
0.260329
0.259093
0.257648
0.255871
0.253883
0.251902
0.250125
0.248686
0.247615
0.246826
0.269655
0.267123
0.264873
0.262448
0.259862
0.257345
0.255083
0.253191
0.251615
0.250095
0.279905
0.275167
0.271848
0.26874
0.26561
0.26265
0.259978
0.257641
0.255451
0.252879
0.290754
0.282464
0.277867
0.274227
0.270808
0.267705
0.264876
0.262225
0.25935
0.25535
0.302195
0.288028
0.28176
0.277962
0.274845
0.272247
0.269819
0.267207
0.263689
0.257856
0.313174
0.288274
0.280329
0.277777
0.276464
0.275707
0.274764
0.272931
0.269038
0.261001
0.252754
0.26136
0.266583
0.27068
0.274241
0.277489
0.279704
0.279886
0.276248
0.265776
0.223629
0.239431
0.250651
0.2602
0.269285
0.277942
0.285024
0.288864
0.286588
0.273751
0.206149
0.221469
0.234829
0.248332
0.262801
0.27778
0.291436
0.301023
0.301896
0.287385
0.19264
0.206478
0.220677
0.237111
0.25656
0.278394
0.300252
0.318126
0.324866
0.310621
0.182816
0.195478
0.210163
0.228937
0.252951
0.281922
0.313523
0.34275
0.359476
0.349921
0.176926
0.189282
0.204804
0.225908
0.254374
0.29078
0.333725
0.378185
0.411311
0.415392
0.17478
0.187885
0.205004
0.228924
0.262187
0.306662
0.362914
0.427635
0.48687
0.521349
0.175492
0.190079
0.20936
0.236514
0.274997
0.328446
0.400523
0.49131
0.591093
0.694958
0.177434
0.19314
0.213859
0.243061
0.285164
0.346061
0.43406
0.557389
0.72623
1.00609
0.178784
0.193998
0.21353
0.240752
0.280355
0.33969
0.432746
0.587047
0.873412
1.49053
0.253094
0.260898
0.266456
0.27067
0.274239
0.277497
0.279708
0.27992
0.276443
0.265663
0.224048
0.239355
0.250585
0.260166
0.269263
0.277936
0.285016
0.288901
0.286851
0.273598
0.206404
0.221487
0.234796
0.248291
0.262761
0.277753
0.291405
0.301056
0.302236
0.287189
0.19273
0.206462
0.220625
0.237043
0.256486
0.278327
0.300178
0.318142
0.325276
0.310382
0.182842
0.195444
0.210092
0.22884
0.252837
0.281799
0.313384
0.342726
0.359909
0.349667
0.176933
0.189244
0.204725
0.225788
0.254215
0.29058
0.333482
0.378067
0.411666
0.415345
0.174795
0.187863
0.204936
0.228801
0.26199
0.306349
0.362482
0.4273
0.486847
0.521839
0.175535
0.190113
0.209381
0.236515
0.274944
0.328245
0.400145
0.490961
0.589797
0.69464
0.177502
0.193253
0.214043
0.243352
0.285595
0.346621
0.434803
0.557992
0.722999
1.0038
0.178834
0.194037
0.213548
0.240755
0.280368
0.339764
0.433103
0.587481
0.869723
1.49979
0.253094
0.260898
0.266456
0.27067
0.274239
0.277497
0.279708
0.27992
0.276443
0.265663
0.224048
0.239355
0.250585
0.260166
0.269263
0.277936
0.285016
0.288901
0.286851
0.273598
0.206404
0.221487
0.234796
0.248291
0.262761
0.277753
0.291405
0.301056
0.302236
0.287189
0.19273
0.206462
0.220625
0.237043
0.256486
0.278327
0.300178
0.318142
0.325276
0.310382
0.182842
0.195444
0.210092
0.22884
0.252837
0.281799
0.313384
0.342726
0.359909
0.349667
0.176933
0.189244
0.204725
0.225788
0.254215
0.29058
0.333482
0.378067
0.411666
0.415345
0.174795
0.187863
0.204936
0.228801
0.26199
0.306349
0.362482
0.4273
0.486847
0.521839
0.175535
0.190113
0.209381
0.236515
0.274944
0.328245
0.400145
0.490961
0.589797
0.69464
0.177502
0.193253
0.214043
0.243352
0.285595
0.346621
0.434803
0.557992
0.722999
1.0038
0.178834
0.194037
0.213548
0.240755
0.280368
0.339764
0.433103
0.587481
0.869723
1.49979
0.252754
0.26136
0.266583
0.27068
0.274241
0.277489
0.279704
0.279886
0.276248
0.265776
0.223629
0.239431
0.250651
0.2602
0.269285
0.277942
0.285024
0.288864
0.286588
0.273751
0.206149
0.221469
0.234829
0.248332
0.262801
0.27778
0.291436
0.301023
0.301896
0.287385
0.19264
0.206478
0.220677
0.237111
0.25656
0.278394
0.300252
0.318126
0.324866
0.310621
0.182816
0.195478
0.210163
0.228937
0.252951
0.281922
0.313523
0.34275
0.359476
0.349921
0.176926
0.189282
0.204804
0.225908
0.254374
0.29078
0.333725
0.378185
0.411311
0.415392
0.17478
0.187885
0.205004
0.228924
0.262187
0.306662
0.362914
0.427635
0.48687
0.521349
0.175492
0.190079
0.20936
0.236514
0.274997
0.328446
0.400523
0.49131
0.591093
0.694958
0.177434
0.19314
0.213859
0.243061
0.285164
0.346061
0.43406
0.557389
0.72623
1.00609
0.178784
0.193998
0.21353
0.240752
0.280355
0.33969
0.432746
0.587047
0.873412
1.49053
-0.153793
-0.133122
-0.115075
-0.0984318
-0.0818134
-0.0650121
-0.0480195
-0.0308705
-0.0136255
0.0036444
0.020863
0.0379583
0.0548644
0.0715327
0.0879901
0.104425
0.12132
0.139716
0.162914
0.200678
-0.139823
-0.126339
-0.111817
-0.0965644
-0.0806327
-0.0642313
-0.0474955
-0.0305222
-0.0133956
0.0038096
0.0210282
0.0382021
0.0552914
0.0722998
0.0892992
0.106496
0.124287
0.143295
0.165029
0.192932
-0.136609
-0.124616
-0.110916
-0.0960579
-0.0803618
-0.0640922
-0.0474223
-0.0304742
-0.0133419
0.00389988
0.0211904
0.0384808
0.0557378
0.0729548
0.0901707
0.107502
0.125161
0.143442
0.162899
0.184432
-0.137796
-0.125496
-0.11162
-0.0966282
-0.0808292
-0.0644631
-0.0476994
-0.0306586
-0.0134285
0.00392399
0.0213459
0.0387922
0.0562225
0.0736013
0.0909014
0.108111
0.125231
0.142262
0.159261
0.176329
-0.140487
-0.127513
-0.113148
-0.0977772
-0.0816861
-0.0650906
-0.0481427
-0.0309473
-0.0135777
0.00391267
0.0214799
0.0390804
0.0566619
0.0741534
0.0914561
0.108444
0.124938
0.140737
0.15567
0.169697
-0.14291
-0.129321
-0.114489
-0.0987578
-0.0823916
-0.0655865
-0.0484767
-0.031151
-0.0136689
0.00392686
0.0215981
0.0392991
0.0569632
0.0744863
0.0917099
0.108451
0.124389
0.139263
0.152859
0.165238
-0.143405
-0.129578
-0.114613
-0.098804
-0.0823926
-0.0655599
-0.0484307
-0.031088
-0.0135872
0.00402993
0.0217231
0.0394394
0.057098
0.0745736
0.0916807
0.108176
0.123755
0.138142
0.151195
0.163132
-0.141096
-0.127627
-0.113047
-0.0975889
-0.081472
-0.0648728
-0.0479216
-0.0307113
-0.0133082
0.00423489
0.0218663
0.0395207
0.057105
0.0744827
0.0914625
0.107801
0.123229
0.137526
0.150659
0.162987
-0.135995
-0.123661
-0.110058
-0.0953915
-0.0798883
-0.0637485
-0.0471333
-0.0301653
-0.0129376
0.00447577
0.0220079
0.0395779
0.0570834
0.0743867
0.0913034
0.10761
0.123075
0.137534
0.151023
0.163973
-0.127732
-0.117695
-0.105851
-0.0924882
-0.0779215
-0.0624383
-0.0462745
-0.0296127
-0.0125906
0.00468564
0.0221257
0.0396474
0.0571476
0.0744908
0.0915028
0.107972
0.123671
0.138425
0.152223
0.165388
-0.154176
-0.133005
-0.11506
-0.0984542
-0.0818261
-0.0650197
-0.0480248
-0.0308738
-0.0136273
0.00364403
0.0208636
0.037959
0.0548643
0.0715297
0.0879804
0.104404
0.121297
0.139667
0.162584
0.200079
-0.139766
-0.126169
-0.111739
-0.0965275
-0.0806062
-0.0642129
-0.0474829
-0.0305136
-0.0133901
0.00381302
0.0210306
0.0382049
0.0552967
0.0723107
0.0893185
0.106528
0.124347
0.143366
0.164928
0.192675
-0.136669
-0.12459
-0.110892
-0.0960396
-0.0803469
-0.0640815
-0.0474149
-0.0304691
-0.0133383
0.00390228
0.0211919
0.0384818
0.0557385
0.0729551
0.0901693
0.107497
0.125155
0.143424