/*--------------------------------*- C++ -*----------------------------------*\
| =========                 |                                                 |
| \\      /  F ield         | OpenFOAM: The Open Source CFD Toolbox           |
|  \\    /   O peration     | Version:  2.4.0                                 |
|   \\  /    A nd           | Web:      www.OpenFOAM.org                      |
|    \\/     M anipulation  |                                                 |
\*---------------------------------------------------------------------------*/
FoamFile
{
    version     2.0;
    format      ascii;
    class       surfaceScalarField;
    location    "4.6";
    object      phi;
}
// * * * * * * * * * * * * * * * * * * * * * * * * * * * * * * * * * * * * * //

dimensions      [0 3 -1 0 0 0 0];

internalField   nonuniform List<scalar> 
12720
(
1.55238e-07
-1.55851e-07
-1.17868e-11
-5.40195e-07
6.93699e-07
1.7335e-09
-2.06845e-06
1.52566e-06
2.59154e-09
-4.18236e-06
2.11059e-06
3.32655e-09
-6.64536e-06
2.45923e-06
3.76602e-09
-9.26243e-06
2.61312e-06
3.94794e-09
-1.1873e-05
2.60664e-06
3.95994e-09
-1.4338e-05
2.46121e-06
3.80475e-09
-1.6536e-05
2.19448e-06
3.45591e-09
1.83528e-06
2.88975e-09
-1.83741e-05
-7.25522e-07
5.71121e-07
-1.45074e-09
-3.29729e-06
3.26506e-06
4.06413e-10
-7.5047e-06
5.73458e-06
-1.50498e-09
-1.29231e-05
7.53134e-06
-2.3897e-09
-1.91032e-05
8.64219e-06
-2.8337e-09
-2.56253e-05
9.13835e-06
-3.11279e-09
-3.21089e-05
9.09334e-06
-3.12267e-09
-3.82108e-05
8.566e-06
-2.90319e-09
-4.36352e-05
7.6214e-06
-2.54624e-09
6.36811e-06
-2.19671e-09
-4.81658e-05
-1.69458e-06
2.26821e-06
-2.5069e-09
-6.13861e-06
7.70681e-06
2.26927e-09
-1.27362e-05
1.23321e-05
1.07392e-10
-2.08908e-05
1.5686e-05
-9.22261e-11
-3.00148e-05
1.77661e-05
1.1964e-10
-3.95489e-05
1.86723e-05
1.11655e-10
-4.89643e-05
1.85086e-05
1.23418e-10
-5.77665e-05
1.7368e-05
1.82753e-10
-6.55198e-05
1.53745e-05
2.51588e-10
1.27521e-05
1.5496e-10
-7.1904e-05
-2.49154e-06
4.7634e-06
-3.65072e-09
-8.52212e-06
1.37342e-05
3.19475e-09
-1.7105e-05
2.0915e-05
-1.66294e-11
-2.74545e-05
2.60358e-05
-2.86168e-10
-3.88683e-05
2.91798e-05
8.30891e-11
-5.06896e-05
3.04936e-05
1.2583e-10
-6.22837e-05
3.01024e-05
1.67245e-10
-7.30335e-05
2.81175e-05
2.74454e-10
-8.2371e-05
2.47116e-05
4.7597e-10
2.02394e-05
4.19828e-10
-8.98587e-05
-3.05577e-06
7.82364e-06
-4.47024e-09
-1.02473e-05
2.09219e-05
3.75459e-09
-2.02833e-05
3.09515e-05
-4.36429e-10
-3.22192e-05
3.79726e-05
-9.34554e-10
-4.52631e-05
4.22242e-05
-5.66938e-10
-5.86902e-05
4.39212e-05
-5.40939e-10
-7.17876e-05
4.32004e-05
-4.82988e-10
-8.3831e-05
4.01612e-05
-2.84892e-10
-9.41054e-05
3.49857e-05
2.98571e-10
2.8136e-05
5.88705e-10
-0.000102003
-3.36264e-06
1.11912e-05
-4.88861e-09
-1.1207e-05
2.87622e-05
4.15177e-09
-2.20677e-05
4.18127e-05
-5.72891e-10
-3.49012e-05
5.08072e-05
-1.18996e-09
-4.88618e-05
5.61857e-05
-8.26695e-10
-6.31879e-05
5.82482e-05
-8.20408e-10
-7.71187e-05
5.71319e-05
-8.01582e-10
-8.98392e-05
5.28823e-05
-6.45245e-10
-0.000100465
4.56115e-05
5.16018e-10
3.57796e-05
1.6409e-09
-0.000108111
-3.40273e-06
1.45985e-05
-4.62565e-09
-1.13503e-05
3.67055e-05
4.25131e-09
-2.2343e-05
5.28061e-05
-6.14744e-10
-3.53094e-05
6.37749e-05
-1.30288e-09
-4.93901e-05
7.02674e-05
-9.93676e-10
-6.38216e-05
7.26808e-05
-1.02939e-09
-7.7835e-05
7.11465e-05
-1.13908e-09
-9.05651e-05
6.56138e-05
-1.36415e-09
-0.000100962
5.60077e-05
6.77794e-10
4.25118e-05
4.17054e-09
-0.000107698
-3.18239e-06
1.77854e-05
-4.51839e-09
-1.0683e-05
4.42019e-05
4.09005e-09
-2.10939e-05
6.32175e-05
-5.60124e-10
-3.33763e-05
7.60586e-05
-1.2661e-09
-4.6687e-05
8.35791e-05
-1.03537e-09
-6.02849e-05
8.62798e-05
-1.05156e-09
-7.34365e-05
8.42992e-05
-1.19006e-09
-8.52987e-05
7.74781e-05
-2.10812e-09
-9.47426e-05
6.54497e-05
2.0041e-09
4.7578e-05
1.45175e-08
-9.98234e-05
-2.7328e-06
2.0522e-05
-3.75479e-09
-9.2901e-06
5.07555e-05
3.7112e-09
-1.84501e-05
7.23779e-05
-3.88186e-10
-2.92415e-05
8.68511e-05
-1.05983e-09
-4.08351e-05
9.51737e-05
-9.71107e-10
-5.2496e-05
9.79417e-05
-1.04928e-09
-6.3525e-05
9.53296e-05
-1.40681e-09
-7.31546e-05
8.71127e-05
-4.92101e-09
-8.03972e-05
7.26937e-05
-1.4671e-09
4.98803e-05
3.25895e-08
-8.27321e-05
-2.11848e-06
-2.72245e-09
2.26432e-05
-7.36164e-06
3.20662e-09
5.59955e-05
-1.47458e-05
-7.2359e-11
7.97621e-05
-2.33712e-05
-6.05469e-10
9.54771e-05
-3.23784e-05
-6.40674e-10
0.000104182
-4.09355e-05
-9.34829e-10
0.0001065
-4.82186e-05
-1.9803e-09
0.000102615
-5.33061e-05
-1.22365e-08
9.22124e-05
-5.50859e-05
-2.8628e-08
7.45022e-05
9.84457e-09
-5.23854e-05
4.71699e-05
1.56763e-07
-1.56764e-07
-1.08628e-11
-5.40765e-07
6.99267e-07
-6.30439e-12
-2.06917e-06
1.531e-06
-5.24073e-12
-4.18248e-06
2.11664e-06
-4.38394e-12
-6.64521e-06
2.4665e-06
-3.3931e-12
-9.26228e-06
2.62102e-06
-2.65253e-12
-1.1873e-05
2.61467e-06
-2.12535e-12
-1.43382e-05
2.469e-06
-1.72541e-12
-1.65364e-05
2.20164e-06
-1.3971e-12
1.84128e-06
-1.1271e-12
-1.83748e-05
-7.30166e-07
5.71957e-07
-6.21121e-12
-3.30289e-06
3.27241e-06
-5.23376e-12
-7.50968e-06
5.73628e-06
-5.20376e-12
-1.29265e-05
7.53108e-06
-4.5878e-12
-1.91049e-05
8.64202e-06
-3.6873e-12
-2.56254e-05
9.13848e-06
-2.93885e-12
-3.21078e-05
9.0939e-06
-2.3648e-12
-3.82088e-05
8.56713e-06
-1.91554e-12
-4.36329e-05
7.62315e-06
-1.54468e-12
6.36972e-06
-1.24236e-12
-4.81635e-05
-1.69998e-06
2.26943e-06
-5.14229e-12
-6.13935e-06
7.71404e-06
-5.10061e-12
-1.2737e-05
1.2334e-05
-4.84808e-12
-2.08918e-05
1.56858e-05
-4.15637e-12
-3.00154e-05
1.77657e-05
-3.45078e-12
-3.9549e-05
1.86722e-05
-2.82383e-12
-4.89639e-05
1.8509e-05
-2.3109e-12
-5.77659e-05
1.73693e-05
-1.89555e-12
-6.55195e-05
1.5377e-05
-1.5413e-12
1.27544e-05
-1.2448e-12
-7.1904e-05
-2.49838e-06
4.76417e-06
-4.23432e-12
-8.52097e-06
1.37398e-05
-4.37331e-12
-1.71038e-05
2.09169e-05
-4.05665e-12
-2.74542e-05
2.60359e-05
-3.54141e-12
-3.88682e-05
2.91798e-05
-3.03988e-12
-5.06896e-05
3.04937e-05
-2.55476e-12
-6.22835e-05
3.01031e-05
-2.13196e-12
-7.30333e-05
2.81193e-05
-1.77563e-12
-8.23714e-05
2.47156e-05
-1.45921e-12
2.02434e-05
-1.18723e-12
-8.98601e-05
-3.0643e-06
7.824e-06
-3.26412e-12
-1.02458e-05
2.09251e-05
-3.4355e-12
-2.02817e-05
3.09523e-05
-3.25881e-12
-3.22188e-05
3.79721e-05
-2.92093e-12
-4.52631e-05
4.22235e-05
-2.5713e-12
-5.86903e-05
4.39204e-05
-2.2068e-12
-7.17876e-05
4.31999e-05
-1.87199e-12
-8.38306e-05
4.0162e-05
-1.57946e-12
-9.41059e-05
3.49912e-05
-1.31227e-12
2.81433e-05
-1.07878e-12
-0.000102005
-3.37203e-06
1.11911e-05
-2.55058e-12
-1.12054e-05
2.87627e-05
-2.71038e-12
-2.2066e-05
4.18123e-05
-2.6132e-12
-3.4901e-05
5.0806e-05
-2.40563e-12
-4.88623e-05
5.61839e-05
-2.15782e-12
-6.31889e-05
5.82462e-05
-1.87779e-12
-7.71194e-05
5.71296e-05
-1.61217e-12
-8.98388e-05
5.28808e-05
-1.37861e-12
-0.000100466
4.56187e-05
-1.16555e-12
3.57942e-05
-9.77884e-13
-0.000108115
-3.41209e-06
1.45986e-05
-2.27264e-12
-1.13487e-05
3.67036e-05
-2.20953e-12
-2.23416e-05
5.28045e-05
-2.08395e-12
-3.53099e-05
6.3773e-05
-1.93736e-12
-4.93917e-05
7.02647e-05
-1.76817e-12
-6.3824e-05
7.26774e-05
-1.56118e-12
-7.78374e-05
7.11419e-05
-1.36002e-12
-9.05653e-05
6.56073e-05
-1.18833e-12
-0.000100961
5.60151e-05
-1.0382e-12
4.25443e-05
-9.00317e-13
-0.000107707
-3.19118e-06
1.77853e-05
-1.58749e-12
-1.06815e-05
4.4198e-05
-1.62383e-12
-2.10928e-05
6.32152e-05
-1.599e-12
-3.33775e-05
7.60565e-05
-1.52088e-12
-4.66898e-05
8.3576e-05
-1.41715e-12
-6.02891e-05
8.62757e-05
-1.27412e-12
-7.34411e-05
8.42927e-05
-1.13364e-12
-8.5299e-05
7.74631e-05
-1.02324e-12
-9.47301e-05
6.54482e-05
-9.44053e-13
4.7661e-05
-8.73601e-13
-9.98323e-05
-2.74022e-06
2.05217e-05
-1.14929e-12
-9.28876e-06
5.07502e-05
-1.26364e-12
-1.84493e-05
7.23753e-05
-1.2561e-12
-2.92433e-05
8.68494e-05
-1.20401e-12
-4.08399e-05
9.51716e-05
-1.13494e-12
-5.25045e-05
9.79392e-05
-1.03997e-12
-6.35395e-05
9.53263e-05
-9.42084e-13
-7.31746e-05
8.70932e-05
-8.69212e-13
-8.03734e-05
7.26456e-05
-8.50189e-13
4.99982e-05
-8.88496e-13
-8.2678e-05
-2.12389e-06
-9.48332e-13
2.26429e-05
-7.36002e-06
-1.03391e-12
5.59896e-05
-1.47444e-05
-1.01197e-12
7.97597e-05
-2.33721e-05
-9.64003e-13
9.54765e-05
-3.23832e-05
-9.16485e-13
0.000104182
-4.09475e-05
-8.58843e-13
0.000106503
-4.82474e-05
-7.83924e-13
0.000102624
-5.33948e-05
-6.97814e-13
9.22283e-05
-5.52274e-05
-6.54603e-13
7.44496e-05
-7.25485e-13
-5.21563e-05
4.69369e-05
1.56804e-07
-1.56722e-07
-9.3353e-11
-5.40734e-07
6.99293e-07
-1.76298e-09
-2.06915e-06
1.53101e-06
-2.60472e-09
-4.18247e-06
2.11665e-06
-3.33485e-09
-6.6452e-06
2.4665e-06
-3.77162e-09
-9.26227e-06
2.62102e-06
-3.952e-09
-1.1873e-05
2.61467e-06
-3.96306e-09
-1.43382e-05
2.469e-06
-3.80726e-09
-1.65364e-05
2.20164e-06
-3.45793e-09
1.84128e-06
-2.89138e-09
-1.83748e-05
-7.3014e-07
5.71989e-07
1.42143e-09
-3.30286e-06
3.27244e-06
-4.23407e-10
-7.50966e-06
5.7363e-06
1.49341e-09
-1.29265e-05
7.53109e-06
2.38151e-09
-1.91048e-05
8.64202e-06
2.82779e-09
-2.56254e-05
9.13848e-06
3.10835e-09
-3.21078e-05
9.0939e-06
3.11922e-09
-3.82088e-05
8.56713e-06
2.90044e-09
-4.36328e-05
7.62315e-06
2.54403e-09
6.36972e-06
2.19493e-09
-4.81635e-05
-1.69997e-06
2.26945e-06
2.4938e-09
-6.13933e-06
7.71407e-06
-2.28071e-09
-1.2737e-05
1.23341e-05
-1.16477e-10
-2.08918e-05
1.56858e-05
8.5347e-11
-3.00154e-05
1.77657e-05
-1.24953e-10
-3.9549e-05
1.86722e-05
-1.1583e-10
-4.89639e-05
1.8509e-05
-1.26734e-10
-5.77659e-05
1.73693e-05
-1.85438e-10
-6.55195e-05
1.5377e-05
-2.53769e-10
1.27544e-05
-1.56717e-10
-7.1904e-05
-2.49837e-06
4.76418e-06
3.64259e-09
-8.52096e-06
1.37399e-05
-3.20281e-09
-1.71038e-05
2.09169e-05
9.71448e-12
-2.74542e-05
2.60359e-05
2.80576e-10
-3.88682e-05
2.91798e-05
-8.7705e-11
-5.06896e-05
3.04937e-05
-1.29629e-10
-6.22835e-05
3.01031e-05
-1.70353e-10
-7.30333e-05
2.81193e-05
-2.77025e-10
-8.23714e-05
2.47156e-05
-4.7809e-10
2.02434e-05
-4.21557e-10
-8.98601e-05
-3.0643e-06
7.82401e-06
4.46492e-09
-1.02458e-05
2.09251e-05
-3.76024e-09
-2.02817e-05
3.09523e-05
4.31273e-10
-3.22188e-05
3.79721e-05
9.30166e-10
-4.52631e-05
4.22235e-05
5.63131e-10
-5.86903e-05
4.39204e-05
5.37699e-10
-7.17876e-05
4.31999e-05
4.80282e-10
-8.38306e-05
4.0162e-05
2.82621e-10
-9.41059e-05
3.49912e-05
-3.0047e-10
2.81433e-05
-5.9028e-10
-0.000102005
-3.37203e-06
1.11912e-05
4.88489e-09
-1.12054e-05
2.87627e-05
-4.15592e-09
-2.2066e-05
4.18123e-05
5.68965e-10
-3.4901e-05
5.0806e-05
1.18651e-09
-4.88623e-05
5.61839e-05
8.23597e-10
-6.31888e-05
5.82462e-05
8.17703e-10
-7.71194e-05
5.71296e-05
7.99283e-10
-8.98388e-05
5.28808e-05
6.43289e-10
-0.000100466
4.56187e-05
-5.17684e-10
3.57942e-05
-1.64233e-09
-0.000108115
-3.41209e-06
1.45986e-05
4.62069e-09
-1.13487e-05
3.67036e-05
-4.25453e-09
-2.23416e-05
5.28045e-05
6.11643e-10
-3.53099e-05
6.3773e-05
1.30013e-09
-4.93917e-05
7.02647e-05
9.91167e-10
-6.3824e-05
7.26774e-05
1.02716e-09
-7.78374e-05
7.11419e-05
1.13716e-09
-9.05653e-05
6.56073e-05
1.36248e-09
-0.000100961
5.60151e-05
-6.79242e-10
4.25443e-05
-4.17183e-09
-0.000107707
-3.19118e-06
1.77853e-05
4.51597e-09
-1.06815e-05
4.4198e-05
-4.09267e-09
-2.10928e-05
6.32152e-05
5.57639e-10
-3.33775e-05
7.60565e-05
1.26391e-09
-4.66898e-05
8.3576e-05
1.03336e-09
-6.02891e-05
8.62757e-05
1.04976e-09
-7.34411e-05
8.42927e-05
1.18846e-09
-8.5299e-05
7.74631e-05
2.10668e-09
-9.47301e-05
6.54482e-05
-2.00536e-09
4.7661e-05
-1.45186e-08
-9.98323e-05
-2.74022e-06
2.05218e-05
3.7528e-09
-9.28876e-06
5.07503e-05
-3.71331e-09
-1.84493e-05
7.23754e-05
3.86212e-10
-2.92433e-05
8.68494e-05
1.05808e-09
-4.08399e-05
9.51716e-05
9.69506e-10
-5.25045e-05
9.79392e-05
1.04781e-09
-6.35395e-05
9.53263e-05
1.40543e-09
-7.31746e-05
8.70932e-05
4.91969e-09
-8.03734e-05
7.26456e-05
1.4659e-09
4.99982e-05
-3.25906e-08
-8.2678e-05
-2.12389e-06
2.72086e-09
2.26429e-05
-7.36002e-06
-3.20827e-09
5.59896e-05
-1.47444e-05
7.08045e-11
7.97597e-05
-2.33721e-05
6.04072e-10
9.54765e-05
-3.23832e-05
6.39393e-10
0.000104182
-4.09475e-05
9.33631e-10
0.000106503
-4.82474e-05
1.97912e-09
0.000102624
-5.33948e-05
1.22353e-08
9.22283e-05
-5.52274e-05
2.86268e-08
7.44496e-05
-9.8457e-09
-5.21563e-05
4.69369e-05
1.55497e-07
-1.55591e-07
-5.40073e-07
6.93807e-07
-2.06838e-06
1.5257e-06
-4.18233e-06
2.11061e-06
-6.64533e-06
2.45923e-06
-9.26241e-06
2.61313e-06
-1.1873e-05
2.60664e-06
-1.4338e-05
2.46121e-06
-1.6536e-05
2.19448e-06
1.83528e-06
-1.83741e-05
-7.25414e-07
5.71244e-07
-3.29719e-06
3.26516e-06
-7.50463e-06
5.73463e-06
-1.2923e-05
7.53137e-06
-1.91032e-05
8.64221e-06
-2.56253e-05
9.13836e-06
-3.21089e-05
9.09335e-06
-3.82108e-05
8.566e-06
-4.36351e-05
7.6214e-06
6.36811e-06
-4.81658e-05
-1.69454e-06
2.26827e-06
-6.13855e-06
7.70689e-06
-1.27361e-05
1.23321e-05
-2.08907e-05
1.56861e-05
-3.00148e-05
1.77661e-05
-3.95489e-05
1.86723e-05
-4.89643e-05
1.85086e-05
-5.77664e-05
1.7368e-05
-6.55198e-05
1.53745e-05
1.27521e-05
-7.1904e-05
-2.49152e-06
4.76343e-06
-8.52208e-06
1.37342e-05
-1.7105e-05
2.0915e-05
-2.74544e-05
2.60358e-05
-3.88682e-05
2.91798e-05
-5.06896e-05
3.04936e-05
-6.22836e-05
3.01024e-05
-7.30335e-05
2.81175e-05
-8.2371e-05
2.47116e-05
2.02394e-05
-8.98587e-05
-3.05576e-06
7.82366e-06
-1.02472e-05
2.0922e-05
-2.02833e-05
3.09515e-05
-3.22192e-05
3.79726e-05
-4.5263e-05
4.22243e-05
-5.86901e-05
4.39212e-05
-7.17876e-05
4.32004e-05
-8.3831e-05
4.01612e-05
-9.41054e-05
3.49857e-05
2.81361e-05
-0.000102003
-3.36264e-06
1.11912e-05
-1.1207e-05
2.87622e-05
-2.20677e-05
4.18127e-05
-3.49011e-05
5.08073e-05
-4.88617e-05
5.61857e-05
-6.31879e-05
5.82483e-05
-7.71187e-05
5.71319e-05
-8.98391e-05
5.28823e-05
-0.000100465
4.56115e-05
3.57796e-05
-0.000108111
-3.40273e-06
1.45985e-05
-1.13503e-05
3.67055e-05
-2.2343e-05
5.28061e-05
-3.53094e-05
6.37749e-05
-4.93901e-05
7.02674e-05
-6.38216e-05
7.26808e-05
-7.7835e-05
7.11465e-05
-9.05651e-05
6.56138e-05
-0.000100962
5.60077e-05
4.25118e-05
-0.000107698
-3.18239e-06
1.77854e-05
-1.0683e-05
4.4202e-05
-2.10938e-05
6.32175e-05
-3.33763e-05
7.60587e-05
-4.6687e-05
8.35791e-05
-6.02849e-05
8.62798e-05
-7.34364e-05
8.42992e-05
-8.52987e-05
7.74781e-05
-9.47426e-05
6.54497e-05
4.7578e-05
-9.98234e-05
-2.7328e-06
2.0522e-05
-9.29009e-06
5.07555e-05
-1.84501e-05
7.23779e-05
-2.92415e-05
8.68511e-05
-4.08351e-05
9.51737e-05
-5.2496e-05
9.79417e-05
-6.3525e-05
9.53296e-05
-7.31546e-05
8.71127e-05
-8.03972e-05
7.26937e-05
4.98803e-05
-8.27321e-05
-2.11848e-06
2.26432e-05
-7.36164e-06
5.59955e-05
-1.47458e-05
7.97621e-05
-2.33712e-05
9.54771e-05
-3.23784e-05
0.000104182
-4.09355e-05
0.0001065
-4.82186e-05
0.000102615
-5.33061e-05
9.22125e-05
-5.50859e-05
7.45022e-05
-5.23854e-05
4.71699e-05
-1.98108e-05
1.43451e-06
2.1753e-09
-2.08673e-05
1.05493e-06
1.5237e-09
-2.16063e-05
7.38059e-07
1.01043e-09
-2.21053e-05
4.98345e-07
6.39473e-10
-2.24377e-05
3.31988e-07
3.93895e-10
-2.26648e-05
2.26887e-07
2.45994e-10
-2.28347e-05
1.69654e-07
1.69165e-10
-2.29839e-05
1.49041e-07
1.43221e-10
-2.31406e-05
1.56635e-07
1.54503e-10
-2.33269e-05
1.86028e-07
1.943e-10
-2.35583e-05
2.31196e-07
2.56445e-10
-2.38432e-05
2.84508e-07
3.3447e-10
-2.41781e-05
3.34518e-07
4.18566e-10
-2.45424e-05
3.63838e-07
4.92451e-10
-2.48906e-05
3.47654e-07
5.29137e-10
-2.5145e-05
2.53948e-07
4.85035e-10
-2.51935e-05
4.81576e-08
3.0559e-10
-2.48908e-05
-3.0263e-07
-4.30765e-11
-2.4084e-05
-8.06205e-07
-6.56509e-10
-1.43698e-06
-1.58029e-09
-2.26454e-05
-5.17139e-05
4.98452e-06
-1.94329e-09
-5.43394e-05
3.68211e-06
-1.623e-09
-5.61968e-05
2.59671e-06
-1.28482e-09
-5.74707e-05
1.77325e-06
-9.82976e-10
-5.83352e-05
1.1972e-06
-7.36669e-10
-5.89351e-05
8.27379e-07
-5.55538e-10
-5.93835e-05
6.18446e-07
-4.39234e-10
-5.97656e-05
5.31524e-07
-3.80419e-10
-6.01449e-05
5.36367e-07
-3.68646e-10
-6.05672e-05
6.08721e-07
-3.91665e-10
-6.10609e-05
7.25323e-07
-4.34621e-10
-6.16337e-05
8.57782e-07
-4.77859e-10
-6.22648e-05
9.66083e-07
-4.94544e-10
-6.28932e-05
9.92678e-07
-4.49097e-10
-6.34042e-05
8.58958e-07
-2.97728e-10
-6.36176e-05
4.67338e-07
5.43289e-12
-6.32836e-05
-2.86294e-07
4.9035e-10
-6.21008e-05
-1.48659e-06
1.14603e-09
-5.97551e-05
-3.15387e-06
1.93153e-09
-5.1934e-06
2.67045e-09
-5.60013e-05
-7.68013e-05
9.88207e-06
-2.39258e-10
-8.03439e-05
7.2251e-06
-4.17365e-10
-8.27979e-05
5.05112e-06
-4.5842e-10
-8.44517e-05
3.42756e-06
-4.36478e-10
-8.55586e-05
2.30445e-06
-3.73605e-10
-8.63176e-05
1.58669e-06
-2.98923e-10
-8.68767e-05
1.17778e-06
-2.31038e-10
-8.73431e-05
9.98045e-07
-1.77242e-10
-8.77931e-05
9.8655e-07
-1.38498e-10
-8.82792e-05
1.09486e-06
-1.12189e-10
-8.88309e-05
1.27719e-06
-9.38627e-11
-8.9452e-05
1.47894e-06
-7.78521e-11
-9.01108e-05
1.62492e-06
-5.73631e-11
-9.07266e-05
1.60852e-06
-2.39713e-11
-9.11526e-05
1.28491e-06
3.35417e-11
-9.11592e-05
4.73801e-07
1.24602e-10
-9.0426e-05
-1.01971e-06
2.44043e-10
-8.85552e-05
-3.3578e-06
3.83996e-10
-8.51203e-05
-6.58927e-06
5.28236e-10
-1.05437e-05
4.49463e-10
-7.97704e-05
-9.53506e-05
1.53744e-05
-3.81324e-10
-9.91157e-05
1.09908e-05
-6.14944e-10
-0.000101586
7.52196e-06
-6.11682e-10
-0.000103168
5.01046e-06
-5.44425e-10
-0.00010418
3.31692e-06
-4.33909e-10
-0.000104847
2.254e-06
-3.21628e-10
-0.000105322
1.65264e-06
-2.28237e-10
-0.000105706
1.38269e-06
-1.57358e-10
-0.000106069
1.34947e-06
-1.06925e-10
-0.000106455
1.48075e-06
-7.28702e-11
-0.000106888
1.7106e-06
-5.10001e-11
-0.000107372
1.96215e-06
-3.75291e-11
-0.000107877
2.12997e-06
-2.88533e-11
-0.000108331
2.06326e-06
-1.92966e-11
-0.000108599
1.55295e-06
5.32403e-12
-0.000108455
3.29528e-07
6.06744e-11
-0.000107562
-1.91342e-06
1.29812e-10
-0.000105461
-5.45879e-06
2.60203e-10
-0.000101608
-1.04426e-05
5.09859e-10
-1.66658e-05
4.50331e-10
-9.54865e-05
-0.000107313
2.06857e-05
-1.03641e-09
-0.000110566
1.42455e-05
-1.16277e-09
-0.000112454
9.41038e-06
-9.4359e-10
-0.000113519
6.07588e-06
-7.38538e-10
-0.000114119
3.91742e-06
-5.20569e-10
-0.000114469
2.60459e-06
-3.42737e-10
-0.000114693
1.87665e-06
-2.19257e-10
-0.00011486
1.5505e-06
-1.39364e-10
-0.000115013
1.50243e-06
-9.12928e-11
-0.000115176
1.64413e-06
-6.57025e-11
-0.000115365
1.89927e-06
-5.61154e-11
-0.000115584
2.181e-06
-5.82763e-11
-0.000115823
2.3692e-06
-6.90404e-11
-0.000116047
2.28709e-06
-8.21098e-11
-0.000116172
1.67868e-06
-7.29965e-11
-0.000116035
1.92065e-07
-7.22383e-12
-0.000115341
-2.60762e-06
6.24632e-11
-0.000113612
-7.1881e-06
2.56436e-10
-0.000110163
-1.38926e-05
8.98173e-10
-2.26396e-05
1.28953e-09
-0.00010419
-0.000112379
2.49562e-05
-2.21022e-09
-0.000114328
1.6196e-05
-1.88927e-09
-0.000115048
1.01317e-05
-1.18629e-09
-0.000115213
6.24173e-06
-7.95108e-10
-0.000115165
3.87058e-06
-4.68169e-10
-0.000115055
2.4949e-06
-2.4739e-10
-0.000114937
1.7579e-06
-1.2277e-10
-0.000114821
1.43529e-06
-5.65732e-11
-0.000114708
1.38912e-06
-2.42622e-11
-0.000114593
1.52933e-06
-1.19177e-11
-0.000114478
1.7838e-06
-1.26508e-11
-0.00011437
2.07291e-06
-2.40429e-11
-0.000114285
2.28443e-06
-4.62804e-11
-0.000114243
2.24518e-06
-7.84528e-11
-0.000114251
1.68722e-06
-9.75918e-11
-0.000114267
2.0772e-07
-5.89217e-11
-0.000114121
-2.75345e-06
-3.19702e-11
-0.000113397
-7.91209e-06
1.41463e-10
-0.000111282
-1.60097e-05
1.54659e-09
-2.74188e-05
3.27698e-09
-0.000106506
-0.00010987
2.71333e-05
-5.87643e-09
-0.000109658
1.59885e-05
-3.88658e-09
-0.000108721
9.19677e-06
-1.79989e-09
-0.000107765
5.28614e-06
-9.38991e-10
-0.000106995
3.10145e-06
-3.99372e-10
-0.000106418
1.91793e-06
-1.23939e-10
-0.000105977
1.3164e-06
-1.55348e-11
-0.000105607
1.06579e-06
2.01308e-11
-0.000105258
1.03951e-06
2.45511e-11
-0.000104892
1.16377e-06
1.46426e-11
-0.000104494
1.38528e-06
-3.87302e-12
-0.000104068
1.6477e-06
-3.04422e-11
-0.000103653
1.8691e-06
-6.64016e-11
-0.000103322
1.9141e-06
-1.15048e-10
-0.000103188
1.5536e-06
-1.51849e-10
-0.000103382
4.01297e-07
-7.72306e-11
-0.000103965
-2.16969e-06
9.34922e-11
-0.000104753
-7.12493e-06
4.67715e-10
-0.000104943
-1.58232e-05
3.74124e-09
-2.97558e-05
9.00605e-09
-0.000102615
-9.84169e-05
2.57369e-05
-9.97942e-09
-9.52399e-05
1.28155e-05
-4.06308e-09
-9.24723e-05
6.43001e-06
-8.28102e-10
-9.05061e-05
3.32021e-06
-3.14354e-10
-8.92005e-05
1.79586e-06
4.05538e-11
-8.83338e-05
1.05109e-06
1.65355e-10
-8.77201e-05
7.02542e-07
1.56593e-10
-8.72253e-05
5.70769e-07
1.28945e-10
-8.67569e-05
5.71062e-07
1.06951e-10
-8.62542e-05
6.60926e-07
9.15209e-11
-8.56829e-05
8.13991e-07
7.88716e-11
-8.50395e-05
1.00418e-06
6.29842e-11
-8.4362e-05
1.19156e-06
3.44362e-11
-8.3751e-05
1.30316e-06
-3.31264e-11
-8.33966e-05
1.19932e-06
-1.31822e-10
-8.36006e-05
6.05317e-07
-4.21725e-11
-8.47403e-05
-1.03008e-06
1.25296e-10
-8.71315e-05
-4.73324e-06
-4.6367e-10
-9.04411e-05
-1.25169e-05
3.30525e-09
-2.80053e-05
1.43835e-08
-9.2206e-05
-7.51578e-05
1.81751e-05
-1.24648e-08
-6.88324e-05
6.48461e-06
5.52455e-09
-6.49371e-05
2.52848e-06
6.19249e-09
-6.26915e-05
1.07198e-06
2.64932e-09
-6.13967e-05
4.99723e-07
1.37275e-09
-6.06147e-05
2.68207e-07
8.34365e-10
-6.00896e-05
1.76975e-07
5.2597e-10
-5.96706e-05
1.51383e-07
3.99568e-10
-5.92637e-05
1.63743e-07
3.84528e-10
-5.88068e-05
2.0357e-07
4.32833e-10
-5.82597e-05
2.66344e-07
5.193e-10
-5.76045e-05
3.48413e-07
6.22077e-10
-5.68568e-05
4.43106e-07
7.02906e-10
-5.60889e-05
5.34662e-07
6.63511e-10
-5.54746e-05
5.84619e-07
3.78338e-10
-5.5373e-05
5.03753e-07
-8.68968e-11
-5.63687e-05
-3.26645e-08
-1.66429e-09
-5.95067e-05
-1.58756e-06
-7.69712e-09
-6.58819e-05
-6.13124e-06
-1.04593e-08
-1.94152e-05
1.55311e-08
-7.44876e-05
-3.41411e-05
-6.92106e-08
-2.76447e-05
-1.18055e-08
-2.51154e-05
-8.6368e-10
-2.40415e-05
-1.89662e-09
-2.35405e-05
-1.23343e-09
-2.32718e-05
-5.80953e-10
-2.30944e-05
-3.29779e-10
-2.29428e-05
-2.34576e-10
-2.27789e-05
-2.08467e-10
-2.25751e-05
-2.29521e-10
-2.23084e-05
-2.83922e-10
-2.19597e-05
-3.58159e-10
-2.15161e-05
-4.33054e-10
-2.0981e-05
-4.74862e-10
-2.0396e-05
-3.67061e-10
-1.98925e-05
2.07104e-10
-1.99259e-05
7.72177e-10
-2.15109e-05
-2.56424e-09
-2.76472e-05
5.07841e-09
8.76404e-08
-4.71501e-05
-1.98114e-05
1.43885e-06
-9.11486e-13
-2.08678e-05
1.05786e-06
-7.33431e-13
-2.16067e-05
7.39956e-07
-5.8125e-13
-2.21056e-05
4.9951e-07
-4.55017e-13
-2.24379e-05
3.32688e-07
-3.54898e-13
-2.2665e-05
2.27323e-07
-2.77781e-13
-2.28348e-05
1.69971e-07
-2.22097e-13
-2.29839e-05
1.49335e-07
-1.76046e-13
-2.31408e-05
1.56978e-07
-1.33438e-13
-2.3327e-05
1.86467e-07
-1.06122e-13
-2.35586e-05
2.31768e-07
-9.22068e-14
-2.38435e-05
2.85231e-07
-7.6856e-14
-2.41784e-05
3.35383e-07
-5.6738e-14
-2.45427e-05
3.64801e-07
-4.31483e-14
-2.48908e-05
3.48624e-07
-4.2946e-14
-2.51451e-05
2.54783e-07
-5.06494e-14
-2.51932e-05
4.84108e-08
-5.65088e-14
-2.48904e-05
-3.02843e-07
-5.43055e-14
-2.40836e-05
-8.07519e-07
-4.8646e-14
-1.44001e-06
-4.39118e-14
-2.26451e-05
-5.17114e-05
4.9848e-06
-1.00214e-12
-5.43369e-05
3.68178e-06
-8.06537e-13
-5.61945e-05
2.59627e-06
-6.44507e-13
-5.74688e-05
1.77285e-06
-5.12092e-13
-5.83338e-05
1.1969e-06
-4.04453e-13
-5.89342e-05
8.27186e-07
-3.11648e-13
-5.9383e-05
6.18325e-07
-2.47545e-13
-5.97655e-05
5.31439e-07
-2.05026e-13
-6.01452e-05
5.36281e-07
-1.59123e-13
-6.05677e-05
6.08596e-07
-1.18947e-13
-6.10615e-05
7.2512e-07
-9.90502e-14
-6.16342e-05
8.57464e-07
-8.68703e-14
-6.22649e-05
9.65624e-07
-7.29873e-14
-6.28926e-05
9.92088e-07
-6.09338e-14
-6.34026e-05
8.58318e-07
-5.84566e-14
-6.36147e-05
4.66821e-07
-5.89106e-14
-6.32793e-05
-2.86445e-07
-5.56806e-14
-6.20952e-05
-1.48582e-06
-4.74408e-14
-5.97489e-05
-3.15188e-06
-3.6832e-14
-5.19085e-06
-2.83466e-14
-5.59954e-05
-7.68007e-05
9.88119e-06
-1.0075e-12
-8.03425e-05
7.22325e-06
-8.16618e-13
-8.27962e-05
5.04949e-06
-6.61596e-13
-8.44501e-05
3.42633e-06
-5.36098e-13
-8.55573e-05
2.30366e-06
-4.39347e-13
-8.63166e-05
1.58624e-06
-3.36831e-13
-8.68761e-05
1.17755e-06
-2.62313e-13
-8.73427e-05
9.97923e-07
-2.22034e-13
-8.7793e-05
9.86452e-07
-1.74688e-13
-8.82793e-05
1.09471e-06
-1.22457e-13
-8.88312e-05
1.27691e-06
-9.58466e-14
-8.94522e-05
1.47847e-06
-8.97213e-14
-9.01109e-05
1.62419e-06
-8.48888e-14
-9.07263e-05
1.60753e-06
-7.36044e-14
-9.11517e-05
1.28377e-06
-6.06099e-14
-9.11576e-05
4.72765e-07
-4.76005e-14
-9.04235e-05
-1.02022e-06
-3.18078e-14
-8.8552e-05
-3.35694e-06
-1.32528e-14
-8.51172e-05
-6.58617e-06
6.20601e-15
-1.05397e-05
2.36807e-14
-7.9768e-05
-9.53505e-05
1.53712e-05
-9.66085e-13
-9.91142e-05
1.09864e-05
-7.86757e-13
-0.000101584
7.51863e-06
-6.40273e-13
-0.000103166
5.00821e-06
-5.16168e-13
-0.000104179
3.31559e-06
-4.49549e-13
-0.000104846
2.25331e-06
-3.52595e-13
-0.000105321
1.65233e-06
-2.66044e-13
-0.000105706
1.38257e-06
-2.29512e-13
-0.000106069
1.34941e-06
-1.92015e-13
-0.000106455
1.48065e-06
-1.36833e-13
-0.000106889
1.71036e-06
-1.00724e-13
-0.000107372
1.96168e-06
-9.40411e-14
-0.000107877
2.12918e-06
-9.29065e-14
-0.000108331
2.0621e-06
-8.40646e-14
-0.000108599
1.55149e-06
-6.69258e-14
-0.000108454
3.2815e-07
-4.67454e-14
-0.00010756
-1.91444e-06
-2.49668e-14
-0.000105459
-5.45807e-06
1.46968e-15
-0.000101606
-1.04381e-05
2.78612e-14
-1.66596e-05
4.71785e-14
-9.54859e-05
-0.000107312
2.06771e-05
-8.85273e-13
-0.000110564
1.42367e-05
-7.27855e-13
-0.000112451
9.40495e-06
-5.93475e-13
-0.000113516
6.07268e-06
-4.36884e-13
-0.000114117
3.91574e-06
-3.89233e-13
-0.000114468
2.60384e-06
-3.1435e-13
-0.000114692
1.87638e-06
-2.23401e-13
-0.00011486
1.55044e-06
-1.95564e-13
-0.000115013
1.50243e-06
-1.84464e-13
-0.000115176
1.64407e-06
-1.45219e-13
-0.000115365
1.89907e-06
-1.03402e-13
-0.000115584
2.18054e-06
-8.195e-14
-0.000115823
2.36835e-06
-7.36092e-14
-0.000116047
2.28575e-06
-6.14569e-14
-0.000116172
1.67685e-06
-4.28387e-14
-0.000116035
1.90391e-07
-2.07023e-14
-0.00011534
-2.60945e-06
5.78474e-16
-0.00011361
-7.18794e-06
1.64968e-14
-0.000110161
-1.38859e-05
2.59297e-14
-2.26285e-05
2.51167e-14
-0.000104191
-0.000112376
2.49359e-05
-8.14167e-13
-0.000114322
1.61806e-05
-6.98793e-13
-0.000115043
1.01248e-05
-6.24815e-13
-0.000115209
6.23846e-06
-4.47596e-13
-0.000115163
3.86923e-06
-3.92468e-13
-0.000115054
2.49451e-06
-3.29186e-13
-0.000114936
1.75789e-06
-2.1493e-13
-0.000114821
1.43539e-06
-1.67151e-13
-0.000114708
1.38922e-06
-1.63045e-13
-0.000114593
1.52935e-06
-1.42676e-13
-0.000114478
1.78367e-06
-1.05688e-13
-0.00011437
2.07252e-06
-7.77014e-14
-0.000114285
2.28365e-06
-5.82271e-14
-0.000114243
2.24381e-06
-3.69903e-14
-0.000114252
1.68516e-06
-1.04239e-14
-0.000114267
2.05671e-07
1.73237e-14
-0.00011412
-2.75648e-06
3.85851e-14
-0.000113394
-7.91346e-06
3.98471e-14
-0.000111279
-1.59996e-05
2.17817e-14
-2.73958e-05
4.34483e-15
-0.000106508
-0.000109862
2.70854e-05
-7.41307e-13
-0.000109648
1.59625e-05
-6.46035e-13
-0.000108715
9.1898e-06
-5.97954e-13
-0.000107762
5.28421e-06
-4.35458e-13
-0.000106994
3.10117e-06
-3.5483e-13
-0.000106418
1.91821e-06
-3.42159e-13
-0.000105977
1.31672e-06
-2.41342e-13
-0.000105607
1.06603e-06
-1.69972e-13
-0.000105258
1.03966e-06
-1.4772e-13
-0.000104892
1.1638e-06
-1.29572e-13
-0.000104494
1.38515e-06
-9.99152e-14
-0.000104068
1.64734e-06
-7.22222e-14
-0.000103653
1.86835e-06
-4.82724e-14
-0.000103322
1.91273e-06
-2.17362e-14
-0.000103189
1.55138e-06
8.83042e-15
-0.000103382
3.98621e-07
3.57619e-14
-0.000103964
-2.17383e-06
5.26988e-14
-0.000104749
-7.12812e-06
3.94577e-14
-0.000104939
-1.58058e-05
8.69032e-15
-2.97009e-05
1.59817e-15
-0.000102625
-9.84025e-05
2.56457e-05
-6.88976e-13
-9.52295e-05
1.27855e-05
-6.01024e-13
-9.2469e-05
6.42841e-06
-6.02252e-13
-9.0506e-05
3.32089e-06
-4.6705e-13
-8.92012e-05
1.79649e-06
-2.9716e-13
-8.83345e-05
1.05163e-06
-2.70408e-13
-8.77205e-05
7.02893e-07
-2.10209e-13
-8.72253e-05
5.70961e-07
-1.54333e-13
-8.67567e-05
5.71155e-07
-1.25683e-13
-8.62538e-05
6.60944e-07
-1.03915e-13
-8.56825e-05
8.13929e-07
-7.98752e-14
-8.50391e-05
1.004e-06
-5.30951e-14
-8.43619e-05
1.19118e-06
-2.8495e-14
-8.37515e-05
1.30239e-06
1.13677e-15
-8.33981e-05
1.19784e-06
2.95114e-14
-8.36027e-05
6.03095e-07
5.19895e-14
-8.47441e-05
-1.03226e-06
7.12574e-14
-8.71344e-05
-4.7383e-06
4.78249e-14
-9.04389e-05
-1.24979e-05
-5.40151e-14
-2.79036e-05
-1.0701e-13
-9.22218e-05
-7.51392e-05
1.80945e-05
-7.35644e-13
-6.88401e-05
6.49184e-06
-6.84576e-13
-6.49459e-05
2.54046e-06
-5.92065e-13
-6.2698e-05
1.07563e-06
-5.39285e-13
-6.14006e-05
5.00442e-07
-3.63873e-13
-6.06166e-05
2.68452e-07
-2.58084e-13
-6.00903e-05
1.77178e-07
-1.82263e-13
-5.96706e-05
1.51635e-07
-1.30447e-13
-5.92632e-05
1.64102e-07
-9.8301e-14
-5.88059e-05
2.0409e-07
-7.72448e-14
-5.82585e-05
2.67089e-07
-5.47514e-14
-5.76034e-05
3.49462e-07
-3.09695e-14
-5.6856e-05
4.44552e-07
-4.59135e-15
-5.60896e-05
5.36623e-07
2.23786e-14
-5.54784e-05
5.87051e-07
3.18089e-14
-5.53794e-05
5.03999e-07
4.93818e-14
-5.6384e-05
-2.94025e-08
7.79076e-14
-5.95334e-05
-1.5966e-06
3.06187e-14
-6.58981e-05
-6.14361e-06
-1.33923e-13
-1.93511e-05
-1.41876e-13
-7.44351e-05
-3.41311e-05
-6.36682e-13
-2.7651e-05
-4.78377e-13
-2.51114e-05
-3.93828e-13
-2.40377e-05
-3.8367e-13
-2.35385e-05
-3.17792e-13
-2.32706e-05
-2.31306e-13
-2.30938e-05
-1.58833e-13
-2.29424e-05
-1.09645e-13
-2.27785e-05
-8.04686e-14
-2.25746e-05
-5.82033e-14
-2.23078e-05
-3.85266e-14
-2.19587e-05
-1.81239e-14
-2.15146e-05
1.98698e-15
-2.09784e-05
1.17003e-14
-2.03918e-05
1.26913e-14
-1.98876e-05
3.925e-14
-1.99162e-05
7.92231e-14
-2.15153e-05
1.06209e-14
-2.76539e-05
-6.53642e-14
-1.23257e-13
-4.69173e-05
-1.98114e-05
1.43885e-06
-2.17661e-09
-2.08678e-05
1.05786e-06
-1.52476e-09
-2.16067e-05
7.39956e-07
-1.01128e-09
-2.21056e-05
4.9951e-07
-6.40135e-10
-2.24379e-05
3.32688e-07
-3.94408e-10
-2.2665e-05
2.27323e-07
-2.4639e-10
-2.28348e-05
1.69971e-07
-1.69465e-10
-2.29839e-05
1.49335e-07
-1.43449e-10
-2.31408e-05
1.56978e-07
-1.54674e-10
-2.3327e-05
1.86467e-07
-1.94434e-10
-2.35586e-05
2.31768e-07
-2.5657e-10
-2.38435e-05
2.85231e-07
-3.34587e-10
-2.41784e-05
3.35383e-07
-4.18663e-10
-2.45427e-05
3.64801e-07
-4.92531e-10
-2.48908e-05
3.48624e-07
-5.29219e-10
-2.51451e-05
2.54783e-07
-4.85138e-10
-2.51932e-05
4.84108e-08
-3.05714e-10
-2.48904e-05
-3.02843e-07
4.29512e-11
-2.40836e-05
-8.07519e-07
6.564e-10
-1.44001e-06
1.5802e-09
-2.26451e-05
-5.17114e-05
4.98481e-06
1.94186e-09
-5.43369e-05
3.68178e-06
1.62185e-09
-5.61945e-05
2.59627e-06
1.2839e-09
-5.74688e-05
1.77285e-06
9.82239e-10
-5.83338e-05
1.1969e-06