/*--------------------------------*- C++ -*----------------------------------*\
| =========                 |                                                 |
| \\      /  F ield         | OpenFOAM: The Open Source CFD Toolbox           |
|  \\    /   O peration     | Version:  2.4.0                                 |
|   \\  /    A nd           | Web:      www.OpenFOAM.org                      |
|    \\/     M anipulation  |                                                 |
\*---------------------------------------------------------------------------*/
FoamFile
{
    version     2.0;
    format      ascii;
    class       volVectorField;
    location    "4.6";
    object      U;
}
// * * * * * * * * * * * * * * * * * * * * * * * * * * * * * * * * * * * * * //

dimensions      [0 1 -1 0 0 0 0];

internalField   nonuniform List<vector> 
4800
(
(0.000307184 -0.000311039 -3.41512e-07)
(1.88544e-05 0.000156679 0.000217444)
(-0.00184433 0.000665299 0.000445891)
(-0.004841 0.00100918 0.000615449)
(-0.00857399 0.00120439 0.00068207)
(-0.012701 0.00128872 0.000625299)
(-0.016938 0.00128981 0.000438814)
(-0.0210464 0.00122157 0.000123103)
(-0.0248154 0.0010914 -0.000315819)
(-0.0280678 0.000911378 -0.000865037)
(-0.000182345 -2.06382e-05 -0.000217541)
(-0.00248563 0.00239494 5.00217e-06)
(-0.00807739 0.004752 0.000174524)
(-0.0159685 0.00645224 0.0002759)
(-0.0254128 0.00748944 0.000290962)
(-0.0357293 0.00795664 0.000203733)
(-0.0462758 0.0079407 7.4787e-06)
(-0.0564703 0.007502 -0.000300213)
(-0.0657926 0.00669637 -0.000718064)
(-0.0738157 0.00561382 -0.00123956)
(-0.00078003 0.00197263 -0.000451506)
(-0.00522516 0.00810702 -0.000157438)
(-0.0143298 0.013571 1.30181e-05)
(-0.0264087 0.0175689 9.2698e-05)
(-0.0404565 0.0200583 9.02422e-05)
(-0.0555989 0.0211695 -3.22997e-06)
(-0.0709645 0.0210459 -0.000192043)
(-0.0857268 0.0198109 -0.000480083)
(-0.0991252 0.017613 -0.00087056)
(-0.110522 0.014704 -0.0013632)
(-0.00126003 0.00539745 -0.000610508)
(-0.0075136 0.0166385 -0.000229798)
(-0.0195893 0.0259368 -3.52243e-05)
(-0.0350897 0.0326476 4.66059e-05)
(-0.0527681 0.0368026 4.65011e-05)
(-0.0716153 0.0385891 -3.83816e-05)
(-0.090603 0.0381931 -0.000210658)
(-0.108721 0.0357859 -0.000476838)
(-0.125 0.0316118 -0.000846443)
(-0.138577 0.0261281 -0.00132795)
(-0.00158955 0.00992141 -0.000619355)
(-0.00915143 0.027384 -0.00016338)
(-0.0234131 0.0410534 5.6917e-05)
(-0.0414076 0.0507233 0.000151389)
(-0.0616909 0.0566277 0.000167005)
(-0.0831575 0.0590475 0.000104466)
(-0.104672 0.0581967 -3.97132e-05)
(-0.125083 0.0542581 -0.000277583)
(-0.143217 0.0475364 -0.000628859)
(-0.15792 0.0386958 -0.0011177)
(-0.0017622 0.0151514 -0.000428183)
(-0.010049 0.0396033 8.39032e-05)
(-0.0255509 0.0580229 0.00032557)
(-0.0449625 0.0708168 0.000440051)
(-0.0667166 0.0785168 0.000483983)
(-0.0896548 0.0815302 0.000458886)
(-0.112584 0.0800815 0.000357141)
(-0.134259 0.0743065 0.000157244)
(-0.153321 0.064482 -0.000176364)
(-0.168197 0.0513939 -0.000698562)
(-0.00177799 0.0206609 -1.28257e-05)
(-0.0101699 0.0524365 0.000533181)
(-0.0258757 0.0757764 0.000788624)
(-0.0455123 0.0917622 0.00092832)
(-0.0674754 0.101272 0.00101258)
(-0.0905993 0.104861 0.00104165)
(-0.113691 0.102747 0.00100078)
(-0.135485 0.0949424 0.000855121)
(-0.154526 0.0815378 0.000547372)
(-0.168679 0.06317 -3.89567e-05)
(-0.00164378 0.0260202 0.000627221)
(-0.00952942 0.0649867 0.00118499)
(-0.0243893 0.0931683 0.00144532)
(-0.0430037 0.112279 0.00161382)
(-0.0638016 0.123539 0.00174961)
(-0.0856378 0.12767 0.0018511)
(-0.107361 0.124877 0.00189494)
(-0.127783 0.11499 0.00183094)
(-0.145586 0.0977019 0.00157939)
(-0.158035 0.0728899 0.000906004)
(-0.00137998 0.0308276 0.00146962)
(-0.00821724 0.0763945 0.00201976)
(-0.0212711 0.109063 0.00227586)
(-0.0376703 0.131037 0.0024743)
(-0.0559048 0.14383 0.00266963)
(-0.0748218 0.148333 0.00285975)
(-0.0932769 0.144797 0.0030135)
(-0.110175 0.132909 0.00306471)
(-0.124719 0.111916 0.00292344)
(-0.134017 0.0800906 0.00214885)
(-0.00102638 0.0347553 0.00247172)
(-0.00642016 0.085937 0.00300034)
(-0.0169368 0.12246 0.00324325)
(-0.0301616 0.146787 0.00346854)
(-0.0446211 0.160603 0.00372494)
(-0.0590403 0.164932 0.00401475)
(-0.0720637 0.160116 0.00430866)
(-0.082296 0.145838 0.00453654)
(-0.0894471 0.121213 0.00466644)
(-0.0925078 0.0835359 0.00407229)
(0.000312352 -0.000315387 -1.7884e-08)
(2.62424e-05 0.00015086 1.3448e-06)
(-0.00184049 0.000651316 2.01413e-06)
(-0.00483834 0.000989419 2.58779e-06)
(-0.00857248 0.00118145 2.93101e-06)
(-0.0127004 0.00126423 3.0733e-06)
(-0.0169382 0.00126526 3.08305e-06)
(-0.0210474 0.00119832 2.96246e-06)
(-0.0248177 0.00107057 2.69097e-06)
(-0.0280712 0.000893619 2.25016e-06)
(-0.00017488 -2.77306e-05 -1.1355e-06)
(-0.00248247 0.00239306 3.1131e-07)
(-0.00808488 0.00474079 -1.17488e-06)
(-0.0159732 0.00643586 -1.86213e-06)
(-0.0254152 0.00747122 -2.20669e-06)
(-0.03573 0.00793758 -2.42318e-06)
(-0.0462749 0.00792176 -2.43044e-06)
(-0.0564682 0.00748424 -2.25941e-06)
(-0.0657906 0.00668066 -1.98151e-06)
(-0.0738146 0.00560024 -1.70943e-06)
(-0.000763961 0.0019671 -1.95722e-06)
(-0.00521382 0.00811366 1.7607e-06)
(-0.0143367 0.0135742 7.9792e-08)
(-0.0264109 0.0175721 -7.48136e-08)
(-0.0404565 0.0200635 9.05436e-08)
(-0.0555987 0.0211758 8.48105e-08)
(-0.0709637 0.0210526 9.43337e-08)
(-0.0857256 0.0198177 1.40782e-07)
(-0.099125 0.0176199 1.94577e-07)
(-0.110524 0.0147097 1.19637e-07)
(-0.00123698 0.00539255 -2.84703e-06)
(-0.00749718 0.0166426 2.48145e-06)
(-0.0195984 0.0259359 -1.5934e-08)
(-0.0350916 0.0326449 -2.25156e-07)
(-0.0527672 0.0368003 6.24315e-08)
(-0.0716145 0.0385873 9.60378e-08)
(-0.0906017 0.0381917 1.28555e-07)
(-0.10872 0.0357856 2.12194e-07)
(-0.125 0.0316137 3.69157e-07)
(-0.138582 0.0261302 3.25688e-07)
(-0.00156189 0.00991825 -3.48446e-06)
(-0.00913277 0.0273864 2.91769e-06)
(-0.0234257 0.0410513 -3.41804e-07)
(-0.0414107 0.0507191 -7.28981e-07)
(-0.06169 0.0566232 -4.42799e-07)
(-0.0831565 0.0590429 -4.22308e-07)
(-0.10467 0.0581922 -3.76993e-07)
(-0.125079 0.0542549 -2.22711e-07)
(-0.143215 0.0475377 2.31286e-07)
(-0.157927 0.0386993 4.57117e-07)
(-0.00173194 0.0151504 -3.80972e-06)
(-0.0100293 0.0396046 3.22721e-06)
(-0.0255658 0.0580219 -4.47429e-07)
(-0.0449666 0.0708143 -9.2723e-07)
(-0.0667161 0.0785136 -6.44525e-07)
(-0.0896539 0.0815266 -6.39434e-07)
(-0.112582 0.0800773 -6.246e-07)
(-0.134251 0.0743029 -5.02841e-07)
(-0.153314 0.0644866 4.00516e-07)
(-0.168211 0.0514059 1.27556e-06)
(-0.00174729 0.0206621 -3.86243e-06)
(-0.0101502 0.0524368 3.30494e-06)
(-0.0258918 0.0757763 -4.79626e-07)
(-0.0455173 0.0917614 -1.01472e-06)
(-0.0674755 0.10127 -7.74115e-07)
(-0.0905992 0.104859 -8.0174e-07)
(-0.113688 0.102743 -8.86915e-07)
(-0.135472 0.0949376 -1.06185e-06)
(-0.154508 0.0815486 5.26431e-07)
(-0.168709 0.0632086 3.24312e-06)
(-0.00161505 0.0260238 -3.52082e-06)
(-0.00951144 0.0649861 3.1799e-06)
(-0.0244052 0.0931693 -4.36807e-07)
(-0.0430093 0.11228 -9.85824e-07)
(-0.0638025 0.12354 -8.06287e-07)
(-0.0856387 0.127669 -8.18776e-07)
(-0.10736 0.124872 -9.26402e-07)
(-0.12776 0.114974 -1.64037e-06)
(-0.145533 0.097698 1.55806e-06)
(-0.158082 0.0729514 1.12908e-05)
(-0.00135503 0.0308328 -2.92569e-06)
(-0.00820188 0.0763934 2.88553e-06)
(-0.0212856 0.109065 -3.02825e-07)
(-0.0376761 0.131041 -8.25161e-07)
(-0.0559069 0.143834 -7.56107e-07)
(-0.0748263 0.148337 -8.1684e-07)
(-0.093288 0.144794 -1.09485e-06)
(-0.110157 0.132876 -3.82807e-06)
(-0.124613 0.11184 -1.1417e-06)
(-0.134065 0.0800603 2.53468e-05)
(-0.00100642 0.0347614 -2.12135e-06)
(-0.0064078 0.0859357 2.49328e-06)
(-0.0169482 0.122464 -5.69981e-08)
(-0.0301658 0.146795 -4.71598e-07)
(-0.0446225 0.160616 -4.9895e-07)
(-0.0590471 0.164955 -7.27698e-07)
(-0.0720971 0.16016 -1.54079e-06)
(-0.0823377 0.145903 -9.51782e-06)
(-0.0893572 0.121276 -2.22667e-05)
(-0.092587 0.0836555 7.65636e-06)
(0.000312396 -0.000315343 -8.15055e-08)
(2.63115e-05 0.00015089 -1.37877e-06)
(-0.00184046 0.00065133 -2.03349e-06)
(-0.00483832 0.000989425 -2.60109e-06)
(-0.00857247 0.00118145 -2.94042e-06)
(-0.0127004 0.00126423 -3.08033e-06)
(-0.0169382 0.00126526 -3.08855e-06)
(-0.0210474 0.00119832 -2.96689e-06)
(-0.0248177 0.00107057 -2.69455e-06)
(-0.0280712 0.000893619 -2.25304e-06)
(-0.00017485 -2.76612e-05 1.10177e-06)
(-0.00248241 0.00239311 -3.34105e-07)
(-0.00808484 0.00474083 1.1572e-06)
(-0.0159732 0.00643588 1.84881e-06)
(-0.0254152 0.00747123 2.19669e-06)
(-0.03573 0.00793758 2.41549e-06)
(-0.0462749 0.00792177 2.42437e-06)
(-0.0564682 0.00748424 2.25453e-06)
(-0.0657906 0.00668066 1.97759e-06)
(-0.0738146 0.00560024 1.70629e-06)
(-0.000763946 0.00196714 1.93806e-06)
(-0.00521379 0.0081137 -1.77818e-06)
(-0.0143367 0.0135742 -9.43279e-08)
(-0.0264109 0.0175722 6.32988e-08)
(-0.0404565 0.0200635 -9.96948e-08)
(-0.0555987 0.0211758 -9.21225e-08)
(-0.0709637 0.0210526 -1.00229e-07)
(-0.0857256 0.0198177 -1.45589e-07)
(-0.099125 0.01762 -1.98479e-07)
(-0.110524 0.0147097 -1.22779e-07)
(-0.00123697 0.00539258 2.83408e-06)
(-0.00749717 0.0166426 -2.49443e-06)
(-0.0195984 0.0259359 4.55571e-09)
(-0.0350916 0.0326449 2.15645e-07)
(-0.0527671 0.0368004 -7.04083e-08)
(-0.0716145 0.0385873 -1.02652e-07)
(-0.0906017 0.0381917 -1.34021e-07)
(-0.10872 0.0357856 -2.16734e-07)
(-0.125 0.0316137 -3.7289e-07)
(-0.138582 0.0261302 -3.28722e-07)
(-0.00156189 0.00991826 3.47555e-06)
(-0.00913276 0.0273864 -2.92718e-06)
(-0.0234257 0.0410514 3.33075e-07)
(-0.0414107 0.0507192 7.21356e-07)
(-0.0616899 0.0566232 4.36143e-07)
(-0.0831565 0.0590429 4.16632e-07)
(-0.10467 0.0581922 3.72217e-07)
(-0.125079 0.0542549 2.18689e-07)
(-0.143215 0.0475377 -2.34634e-07)
(-0.157927 0.0386993 -4.59871e-07)
(-0.00173194 0.0151504 3.80332e-06)
(-0.0100293 0.0396046 -3.23433e-06)
(-0.0255658 0.0580219 4.40681e-07)
(-0.0449666 0.0708143 9.21129e-07)
(-0.0667161 0.0785137 6.39036e-07)
(-0.0896539 0.0815266 6.34653e-07)
(-0.112582 0.0800774 6.20517e-07)
(-0.134251 0.074303 4.99353e-07)
(-0.153314 0.0644866 -4.03474e-07)
(-0.168211 0.051406 -1.27806e-06)
(-0.00174729 0.0206621 3.85726e-06)
(-0.0101502 0.0524368 -3.31071e-06)
(-0.0258918 0.0757763 4.74231e-07)
(-0.0455173 0.0917615 1.00984e-06)
(-0.0674755 0.10127 7.69652e-07)
(-0.0905992 0.104859 7.97797e-07)
(-0.113688 0.102743 8.83495e-07)
(-0.135472 0.0949376 1.05886e-06)
(-0.154508 0.0815486 -5.29041e-07)
(-0.168709 0.0632086 -3.24539e-06)
(-0.00161505 0.0260238 3.51647e-06)
(-0.00951144 0.0649861 -3.18444e-06)
(-0.0244052 0.0931693 4.32564e-07)
(-0.0430093 0.11228 9.81962e-07)
(-0.0638025 0.12354 8.02722e-07)
(-0.0856387 0.127669 8.15581e-07)
(-0.10736 0.124872 9.23562e-07)
(-0.12776 0.114974 1.6378e-06)
(-0.145533 0.097698 -1.5604e-06)
(-0.158082 0.0729514 -1.12929e-05)
(-0.00135503 0.0308328 2.92233e-06)
(-0.00820188 0.0763934 -2.88908e-06)
(-0.0212856 0.109065 2.99485e-07)
(-0.0376761 0.131041 8.22098e-07)
(-0.0559068 0.143834 7.53259e-07)
(-0.0748263 0.148337 8.14235e-07)
(-0.093288 0.144795 1.09245e-06)
(-0.110157 0.132876 3.8258e-06)
(-0.124613 0.11184 1.13952e-06)
(-0.134065 0.0800603 -2.53489e-05)
(-0.00100642 0.0347614 2.1187e-06)
(-0.0064078 0.0859357 -2.49608e-06)
(-0.0169482 0.122464 5.43512e-08)
(-0.0301658 0.146795 4.69157e-07)
(-0.0446225 0.160616 4.96658e-07)
(-0.0590471 0.164955 7.25549e-07)
(-0.072097 0.16016 1.53876e-06)
(-0.0823377 0.145903 9.51584e-06)
(-0.0893572 0.121276 2.22647e-05)
(-0.092587 0.0836555 -7.6583e-06)
(0.000307431 -0.000310792 4.45999e-07)
(1.92064e-05 0.000156797 -0.000217409)
(-0.00184418 0.000665344 -0.000445871)
(-0.00484093 0.0010092 -0.000615435)
(-0.00857395 0.0012044 -0.00068206)
(-0.012701 0.00128873 -0.000625291)
(-0.016938 0.00128981 -0.000438808)
(-0.0210463 0.00122157 -0.000123098)
(-0.0248154 0.0010914 0.000315823)
(-0.0280678 0.000911378 0.00086504)
(-0.000182227 -2.02858e-05 0.000217576)
(-0.00248542 0.00239514 -4.97807e-06)
(-0.00807725 0.00475209 -0.000174506)
(-0.0159684 0.00645228 -0.000275886)
(-0.0254128 0.00748946 -0.000290951)
(-0.0357293 0.00795665 -0.000203725)
(-0.0462758 0.00794071 -7.47229e-06)
(-0.0564702 0.007502 0.000300218)
(-0.0657926 0.00669637 0.000718068)
(-0.0738157 0.00561382 0.00123957)
(-0.000779985 0.00197278 0.000451526)
(-0.00522506 0.00810716 0.000157457)
(-0.0143297 0.0135711 -1.30027e-05)
(-0.0264086 0.0175689 -9.26858e-05)
(-0.0404564 0.0200583 -9.02325e-05)
(-0.0555989 0.0211696 3.2377e-06)
(-0.0709644 0.0210459 0.000192049)
(-0.0857267 0.0198109 0.000480088)
(-0.0991251 0.017613 0.000870564)
(-0.110522 0.014704 0.00136321)
(-0.00126001 0.00539752 0.000610522)
(-0.00751355 0.0166386 0.000229812)
(-0.0195892 0.0259369 3.52363e-05)
(-0.0350897 0.0326476 -4.65959e-05)
(-0.0527681 0.0368026 -4.64926e-05)
(-0.0716153 0.0385891 3.83886e-05)
(-0.090603 0.0381931 0.000210664)
(-0.108721 0.0357859 0.000476843)
(-0.125 0.0316118 0.000846447)
(-0.138577 0.0261281 0.00132796)
(-0.00158955 0.00992146 0.000619365)
(-0.00915141 0.0273841 0.00016339)
(-0.023413 0.0410534 -5.69078e-05)
(-0.0414076 0.0507233 -0.000151381)
(-0.0616908 0.0566278 -0.000166998)
(-0.0831575 0.0590476 -0.00010446)
(-0.104672 0.0581968 3.97183e-05)
(-0.125083 0.0542581 0.000277587)
(-0.143217 0.0475364 0.000628862)
(-0.15792 0.0386958 0.0011177)
(-0.0017622 0.0151515 0.00042819)
(-0.010049 0.0396033 -8.38957e-05)
(-0.0255508 0.058023 -0.000325563)
(-0.0449624 0.0708168 -0.000440045)
(-0.0667166 0.0785168 -0.000483977)
(-0.0896548 0.0815302 -0.000458881)
(-0.112584 0.0800815 -0.000357136)
(-0.134259 0.0743065 -0.00015724)
(-0.153321 0.064482 0.000176367)
(-0.168197 0.0513939 0.000698565)
(-0.00177799 0.0206609 1.28311e-05)
(-0.0101699 0.0524365 -0.000533175)
(-0.0258757 0.0757765 -0.000788619)
(-0.0455123 0.0917622 -0.000928315)
(-0.0674754 0.101272 -0.00101257)
(-0.0905993 0.104861 -0.00104165)
(-0.113691 0.102747 -0.00100078)
(-0.135485 0.0949424 -0.000855118)
(-0.154526 0.0815378 -0.000547369)
(-0.168679 0.06317 3.89591e-05)
(-0.00164378 0.0260203 -0.000627216)
(-0.00952942 0.0649867 -0.00118499)
(-0.0243893 0.0931683 -0.00144532)
(-0.0430037 0.112279 -0.00161382)
(-0.0638016 0.123539 -0.00174961)
(-0.0856377 0.12767 -0.0018511)
(-0.107361 0.124877 -0.00189494)
(-0.127783 0.11499 -0.00183093)
(-0.145586 0.0977019 -0.00157939)
(-0.158035 0.0728899 -0.000906002)
(-0.00137998 0.0308276 -0.00146962)
(-0.00821724 0.0763945 -0.00201976)
(-0.0212711 0.109063 -0.00227586)
(-0.0376703 0.131037 -0.0024743)
(-0.0559048 0.14383 -0.00266963)
(-0.0748218 0.148333 -0.00285974)
(-0.0932769 0.144797 -0.0030135)
(-0.110175 0.132909 -0.00306471)
(-0.124719 0.111916 -0.00292344)
(-0.134017 0.0800906 -0.00214885)
(-0.00102638 0.0347553 -0.00247172)
(-0.00642016 0.085937 -0.00300034)
(-0.0169368 0.12246 -0.00324325)
(-0.0301616 0.146787 -0.00346854)
(-0.0446211 0.160603 -0.00372493)
(-0.0590403 0.164932 -0.00401475)
(-0.0720636 0.160116 -0.00430866)
(-0.082296 0.145838 -0.00453654)
(-0.0894471 0.121213 -0.00466644)
(-0.0925078 0.0835359 -0.00407228)
(-0.0306904 0.000707046 -0.00150383)
(-0.032669 0.000512652 -0.00220671)
(-0.0340797 0.000351173 -0.00295073)
(-0.0350429 0.0002305 -0.00371862)
(-0.0356838 0.000148426 -0.00449889)
(-0.0361119 9.82623e-05 -0.0052849)
(-0.0364144 7.2836e-05 -0.00607344)
(-0.0366582 6.64184e-05 -0.00686379)
(-0.0368943 7.50912e-05 -0.00765703)
(-0.0371625 9.62511e-05 -0.00845593)
(-0.037493 0.000127666 -0.00926487)
(-0.037906 0.000166274 -0.0100901)
(-0.038407 0.000206813 -0.0109396)
(-0.0389789 0.000240385 -0.0118232)
(-0.0395712 0.000253244 -0.0127511)
(-0.0400869 0.000226455 -0.0137327)
(-0.0403736 0.000137755 -0.0147733)
(-0.0402208 -3.25822e-05 -0.0158707)
(-0.0393801 -0.000296487 -0.0170087)
(-0.0376118 -0.000642003 -0.0181551)
(-0.0802803 0.00440683 -0.00185099)
(-0.0851716 0.00326071 -0.00253251)
(-0.0886877 0.00229889 -0.00326562)
(-0.0911214 0.001566 -0.00403498)
(-0.0927704 0.0010528 -0.00482878)
(-0.0938931 0.000724669 -0.00563875)
(-0.0946947 0.000542187 -0.00645973)
(-0.0953315 0.000471391 -0.00728904)
(-0.0959206 0.000486151 -0.00812619)
(-0.0965485 0.000565935 -0.00897248)
(-0.0972748 0.000691204 -0.00983099)
(-0.0981308 0.000837602 -0.0107063)
(-0.0991095 0.000969633 -0.0116046)
(-0.10015 0.00103473 -0.0125329)
(-0.101118 0.000959441 -0.0134983)
(-0.101779 0.000650798 -0.0145066)
(-0.101789 7.8242e-06 -0.0155603)
(-0.100694 -0.00105229 -0.0166547)
(-0.0979799 -0.00255592 -0.0177759)
(-0.093162 -0.00441945 -0.0188962)
(-0.119536 0.0114979 -0.00194885)
(-0.126197 0.00848915 -0.0026073)
(-0.130877 0.00598828 -0.00332105)
(-0.134055 0.00409373 -0.00407541)
(-0.136175 0.00276838 -0.00485837)
(-0.137602 0.00191546 -0.00566108)
(-0.138608 0.0014297 -0.00647758)
(-0.139395 0.00122101 -0.00730438)
(-0.140104 0.00121902 -0.00814006)
(-0.140838 0.00136694 -0.00898496)
(-0.141662 0.0016103 -0.00984103)
(-0.142605 0.00188332 -0.0107116)
(-0.143651 0.00209464 -0.0116011)
(-0.144714 0.00211448 -0.012515)
(-0.14562 0.0017672 -0.013459)
(-0.146073 0.000836281 -0.0144381)
(-0.145633 -0.000908188 -0.0154553)
(-0.143714 -0.0036507 -0.0165088)
(-0.139626 -0.00743432 -0.0175891)
(-0.132692 -0.0120457 -0.0186757)
(-0.14892 0.0201357 -0.00191608)
(-0.156165 0.0146319 -0.00258091)
(-0.160977 0.010171 -0.00330189)
(-0.164076 0.00686822 -0.00406318)
(-0.166047 0.00459956 -0.004852)
(-0.16732 0.00315622 -0.00565929)
(-0.168186 0.00233386 -0.00647904)
(-0.168842 0.00196716 -0.00730768)
(-0.169419 0.00193133 -0.00814349)
(-0.170005 0.00212815 -0.00898623)
(-0.170655 0.00246567 -0.00983691)
(-0.171393 0.0028353 -0.0106976)
(-0.172203 0.00308839 -0.0115715)
(-0.173011 0.00301465 -0.0124627)
(-0.173659 0.00232792 -0.0133761)
(-0.173869 0.000669825 -0.0143175)
(-0.173195 -0.00235145 -0.0152927)
(-0.171001 -0.00706929 -0.0163057)
(-0.166456 -0.0135985 -0.0173561)
(-0.158629 -0.0216167 -0.0184339)
(-0.168389 0.029075 -0.00174532)
(-0.174962 0.0205252 -0.00245205)
(-0.17882 0.0138765 -0.00320994)
(-0.181009 0.00914177 -0.0040014)
(-0.182236 0.00599469 -0.00481297)
(-0.182935 0.00404138 -0.00563642)
(-0.18336 0.00294352 -0.00646698)
(-0.183654 0.00244929 -0.00730199)
(-0.183898 0.00238026 -0.00814013)
(-0.184144 0.00260357 -0.00898098)
(-0.184422 0.00300023 -0.00982479)
(-0.184749 0.00343296 -0.0106724)
(-0.185124 0.00371333 -0.0115253)
(-0.185517 0.00356971 -0.0123861)
(-0.185844 0.00262055 -0.0132589)
(-0.185924 0.000364635 -0.0141505)
(-0.18541 -0.00378713 -0.0150705)
(-0.183704 -0.0104013 -0.0160316)
(-0.179871 -0.0198001 -0.0170471)
(-0.172605 -0.0316855 -0.0181274)
(-0.177525 0.0370864 -0.00142939)
(-0.182017 0.0249936 -0.00222825)
(-0.183802 0.0161692 -0.00305808)
(-0.18433 0.0102451 -0.00390335)
(-0.184342 0.00649977 -0.00475256)
(-0.184185 0.00426494 -0.00560113)
(-0.183992 0.00304288 -0.0064477)
(-0.183805 0.00249957 -0.00729194)
(-0.183623 0.002418 -0.00813376)
(-0.183442 0.00264893 -0.00897298)
(-0.183256 0.00306734 -0.00980916)
(-0.183072 0.00353273 -0.0106418)
(-0.182911 0.00384936 -0.0114704)
(-0.182804 0.00372369 -0.0122954)
(-0.182784 0.00271941 -0.0131194)
(-0.182844 0.0002175 -0.0139489)
(-0.182849 -0.00459258 -0.0147978)
(-0.182395 -0.0126258 -0.0156882)
(-0.180562 -0.024659 -0.016652)
(-0.175544 -0.0407547 -0.0177396)
(-0.175377 0.0426698 -0.000988723)
(-0.176131 0.0267021 -0.00194871)
(-0.174778 0.0161451 -0.00288553)
(-0.173129 0.0096517 -0.00380145)
(-0.171727 0.00583603 -0.00469465)
(-0.170667 0.00368797 -0.00556984)
(-0.169878 0.00256386 -0.00643213)
(-0.169251 0.00208179 -0.00728491)
(-0.168693 0.00201895 -0.0081299)
(-0.16813 0.00223733 -0.00896727)
(-0.167521 0.00263158 -0.00979591)
(-0.166854 0.00308754 -0.0106136)
(-0.166161 0.00344175 -0.0114177)
(-0.165528 0.00343356 -0.0122054)
(-0.16511 0.00264251 -0.012976)
(-0.16512 0.000404803 -0.0137339)
(-0.165755 -0.00427689 -0.0144948)
(-0.167033 -0.0127523 -0.0152893)
(-0.16839 -0.026605 -0.0161716)
(-0.16757 -0.046982 -0.0172648)
(-0.159946 0.0436514 -0.000481142)
(-0.155015 0.024048 -0.00168646)
(-0.149858 0.0130534 -0.0027525)
(-0.146094 0.00714553 -0.00373931)
(-0.143564 0.00403001 -0.00466787)
(-0.141904 0.00242075 -0.00556019)
(-0.140778 0.00163373 -0.00643091)
(-0.139932 0.00131922 -0.00728753)
(-0.139189 0.00129889 -0.00813321)
(-0.138429 0.0014763 -0.00896816)
(-0.137577 0.00178696 -0.00979025)
(-0.136599 0.0021649 -0.0105954)
(-0.135516 0.00251146 -0.011378)
(-0.134432 0.00265463 -0.0121316)
(-0.13357 0.00228347 -0.0128504)
(-0.133325 0.000832243 -0.0135335)
(-0.134253 -0.00271064 -0.0141958)
(-0.137046 -0.010031 -0.0148705)
(-0.14219 -0.0238332 -0.0156281)
(-0.147745 -0.0477789 -0.0167043)
(-0.126804 0.0375085 -0.000198012)
(-0.114464 0.0161207 -0.00167579)
(-0.106242 0.00712981 -0.00279003)
(-0.101647 0.00331722 -0.00378448)
(-0.0990244 0.00165301 -0.00470576)
(-0.0974786 0.000917219 -0.00558859)
(-0.0965016 0.000602004 -0.00645252)
(-0.0957887 0.000497237 -0.00730514)
(-0.0951552 0.000515976 -0.00814852)
(-0.094482 0.000620844 -0.00898147)
(-0.0936887 0.000792627 -0.0098002)
(-0.0927267 0.00101415 -0.0105984)
(-0.0915877 0.00125691 -0.0113672)
(-0.0903302 0.00146131 -0.0120952)
(-0.089135 0.00149614 -0.0127689)
(-0.0883963 0.00106645 -0.0133771)
(-0.0888017 -0.000509664 -0.0139279)
(-0.0916664 -0.00485479 -0.0144266)
(-0.0994784 -0.0155418 -0.0149173)
(-0.113329 -0.0406051 -0.0157965)
(-0.0645285 0.0229807 -0.00084947)
(-0.0481454 0.00662747 -0.00232008)
(-0.0414283 0.00202183 -0.00307421)
(-0.0389919 0.000650198 -0.00382277)
(-0.0379334 0.000224314 -0.00458763)
(-0.0373924 9.37567e-05 -0.00536535)
(-0.0370696 5.86873e-05 -0.00615368)
(-0.036825 5.8006e-05 -0.00694744)
(-0.0365843 7.4732e-05 -0.00774161)
(-0.0362985 0.000105507 -0.00853116)
(-0.0359284 0.000151101 -0.00930985)
(-0.0354396 0.000213415 -0.0100691)
(-0.0348041 0.000293868 -0.0107965)
(-0.0340086 0.000390105 -0.0114743)
(-0.033076 0.000485613 -0.0120772)
(-0.0321175 0.000517905 -0.0125693)
(-0.0314771 0.000261991 -0.012903)
(-0.032119 -0.00113994 -0.0130418)
(-0.0377404 -0.00641981 -0.0128644)
(-0.0564692 -0.0257261 -0.0130037)
(-0.0306941 0.00069249 1.69379e-06)
(-0.0326721 0.00050136 1.18636e-06)
(-0.034082 0.000342828 7.86664e-07)
(-0.0350444 0.000224538 4.97796e-07)
(-0.0356847 0.000144239 3.06575e-07)
(-0.0361123 9.52863e-05 1.9142e-07)
(-0.0364146 7.05908e-05 1.31611e-07)
(-0.0366581 6.45165e-05 1.11433e-07)
(-0.0368941 7.32302e-05 1.20252e-07)
(-0.0371622 9.42037e-05 1.51271e-07)
(-0.0374926 0.000125281 1.99688e-07)
(-0.0379055 0.000163493 2.60478e-07)
(-0.0384064 0.000203706 3.26e-07)
(-0.0389783 0.000237203 3.83563e-07)
(-0.0395708 0.000250486 4.12137e-07)
(-0.040087 0.000224919 3.77776e-07)
(-0.0403744 0.000138512 2.37993e-07)
(-0.0402229 -2.83356e-05 -3.35978e-08)
(-0.0393839 -0.000287486 -5.11425e-07)
(-0.0376174 -0.000627502 -1.231e-06)
(-0.0802794 0.00439478 -1.51216e-06)
(-0.0851701 0.00325084 -1.26291e-06)
(-0.0886858 0.00229134 -9.9976e-07)
(-0.0911195 0.00156047 -7.64897e-07)
(-0.0927688 0.00104888 -5.73249e-07)
(-0.0938918 0.000721912 -4.32305e-07)
(-0.0946938 0.000540189 -3.41805e-07)
(-0.095331 0.000469817 -2.96033e-07)
(-0.0959205 0.000484731 -2.86841e-07)
(-0.0965485 0.000564461 -3.04714e-07)
(-0.0972749 0.000689522 -3.38111e-07)
(-0.0981306 0.000835619 -3.71732e-07)
(-0.0991089 0.000967341 -3.84698e-07)
(-0.100149 0.00103225 -3.49342e-07)
(-0.101116 0.000957096 -2.31607e-07)
(-0.101776 0.00064916 4.183e-09)
(-0.101784 7.71103e-06 3.81342e-07)
(-0.100689 -0.00104988 8.91325e-07)
(-0.0979755 -0.00254991 1.50227e-06)
(-0.0931594 -0.00440978 2.077e-06)
(-0.119539 0.0114999 -1.86807e-07)
(-0.126198 0.00848955 -3.252e-07)
(-0.130877 0.00598824 -3.57021e-07)
(-0.134054 0.00409362 -3.39866e-07)
(-0.136174 0.00276838 -2.90898e-07)
(-0.137601 0.00191563 -2.32735e-07)
(-0.138607 0.00143005 -1.79885e-07)
(-0.139394 0.00122154 -1.3802e-07)
(-0.140103 0.00121974 -1.0785e-07)
(-0.140837 0.00136785 -8.73477e-08)
(-0.141661 0.00161137 -7.3076e-08)
(-0.142605 0.00188446 -6.06219e-08)
(-0.14365 0.00209572 -4.46836e-08)
(-0.144713 0.00211527 -1.87026e-08)
(-0.145619 0.00176746 2.60416e-08)
(-0.146071 0.000835739 9.68773e-08)
(-0.14563 -0.000909792 1.89788e-07)
(-0.143711 -0.00365332 2.98658e-07)
(-0.139625 -0.00743783 4.10863e-07)
(-0.132695 -0.0120516 3.49612e-07)
(-0.148925 0.0201322 -2.97272e-07)
(-0.156166 0.014628 -4.7885e-07)
(-0.160976 0.0101684 -4.76208e-07)
(-0.164074 0.00686681 -4.2381e-07)
(-0.166045 0.00459902 -3.37815e-07)
(-0.167318 0.00315622 -2.5041e-07)
(-0.168184 0.00233415 -1.77709e-07)
(-0.168841 0.00196759 -1.22561e-07)
(-0.169418 0.00193182 -8.33077e-08)
(-0.170004 0.00212865 -5.67761e-08)
(-0.170655 0.00246613 -3.97376e-08)
(-0.171393 0.00283566 -2.92563e-08)
(-0.172203 0.00308855 -2.25104e-08)
(-0.17301 0.00301452 -1.50724e-08)
(-0.173658 0.00232746 4.0889e-09)
(-0.173867 0.000669106 4.71537e-08)
(-0.173193 -0.00235225 1.00945e-07)
(-0.170998 -0.00706929 2.02379e-07)
(-0.166456 -0.0135961 3.96576e-07)
(-0.158635 -0.0216138 3.50297e-07)
(-0.168398 0.0290661 -8.06722e-07)
(-0.174961 0.0205177 -9.04895e-07)
(-0.178817 0.0138728 -7.34323e-07)
(-0.181006 0.00914042 -5.74721e-07)
(-0.182233 0.00599465 -4.05177e-07)
(-0.182933 0.00404195 -2.66802e-07)
(-0.183359 0.00294426 -1.70694e-07)
(-0.183653 0.00244999 -1.08542e-07)
(-0.183898 0.00238086 -7.11475e-08)
(-0.184144 0.00260404 -5.12105e-08)
(-0.184422 0.00300058 -4.37186e-08)
(-0.184749 0.00343315 -4.53835e-08)
(-0.185124 0.0037133 -5.3752e-08)
(-0.185517 0.00356942 -6.39109e-08)
(-0.185844 0.00262002 -5.68095e-08)
(-0.185923 0.000364101 -5.63509e-09)
(-0.185407 -0.00378718 4.8583e-08)
(-0.183699 -0.0103991 1.99462e-07)
(-0.179868 -0.0197914 6.98595e-07)
(-0.172615 -0.0316725 1.00299e-06)
(-0.177541 0.0370684 -1.71963e-06)
(-0.182013 0.0249815 -1.46994e-06)
(-0.183795 0.0161655 -9.23117e-07)
(-0.184325 0.0102448 -6.18724e-07)
(-0.184339 0.00650092 -3.64419e-07)
(-0.184182 0.00426642 -1.92651e-07)
(-0.183991 0.00304419 -9.56358e-08)
(-0.183804 0.00250062 -4.41203e-08)
(-0.183623 0.00241881 -1.89929e-08)
(-0.183441 0.00264955 -9.37629e-09)
(-0.183256 0.00306781 -9.91647e-09)
(-0.183072 0.00353307 -1.87555e-08)
(-0.182911 0.00384953 -3.60399e-08)
(-0.182804 0.00372361 -6.10495e-08)
(-0.182783 0.00271907 -7.59137e-08)
(-0.182842 0.000217223 -4.58142e-08)
(-0.182845 -0.00459201 -2.48391e-08)
(-0.182384 -0.0126219 1.10053e-07)
(-0.180551 -0.0246427 1.20291e-06)
(-0.175561 -0.040727 2.54878e-06)
(-0.175409 0.0426449 -4.57108e-06)
(-0.176116 0.0266941 -3.02339e-06)
(-0.174763 0.0161488 -1.40035e-06)
(-0.173121 0.00965607 -7.3063e-07)
(-0.171723 0.0058396 -3.10889e-07)
(-0.170665 0.00369061 -9.66542e-08)
(-0.169877 0.00256568 -1.22585e-08)
(-0.169251 0.00208308 1.55362e-08)
(-0.168692 0.00201996 1.89879e-08)
(-0.16813 0.00223823 1.12936e-08)
(-0.167521 0.00263246 -3.08472e-09)
(-0.166854 0.00308844 -2.373e-08)
(-0.166161 0.0034426 -5.16833e-08)
(-0.165528 0.00343414 -8.95012e-08)
(-0.165109 0.00264253 -1.18098e-07)
(-0.165117 0.000404258 -6.00396e-08)
(-0.165748 -0.00427841 7.27534e-08)
(-0.167013 -0.0127548 3.6381e-07)
(-0.168364 -0.0265935 2.90986e-06)
(-0.167602 -0.0469462 7.00472e-06)
(-0.160007 0.0436101 -7.76223e-06)
(-0.154983 0.0240583 -3.16067e-06)
(-0.149839 0.0130752 -6.44523e-07)
(-0.146089 0.00715789 -2.44839e-07)
(-0.143562 0.00403632 3.13186e-08)
(-0.141903 0.00242418 1.28405e-07)
(-0.140778 0.00163571 1.21639e-07)
(-0.139932 0.00132059 1.00181e-07)
(-0.139189 0.00130014 8.30958e-08)
(-0.138429 0.00147772 7.11098e-08)
(-0.137577 0.0017887 6.12887e-08)
(-0.136599 0.00216701 4.89492e-08)
(-0.135517 0.00251384 2.67629e-08)
(-0.134433 0.00265686 -2.5764e-08)
(-0.133571 0.00228465 -1.02505e-07)
(-0.133325 0.000830833 -3.27592e-08)
(-0.134252 -0.00271916 9.75092e-08)
(-0.137025 -0.0100535 -3.60594e-07)
(-0.142144 -0.0238465 2.57071e-06)
(-0.147804 -0.0477229 1.11871e-05)
(-0.126877 0.0373113 -9.69536e-06)
(-0.114396 0.016061 4.29637e-06)
(-0.106231 0.00711871 4.81596e-06)
(-0.101656 0.00330999 2.06021e-06)
(-0.0990298 0.00164764 1.06744e-06)
(-0.0974812 0.000913862 6.48772e-07)
(-0.096503 0.000599795 4.08962e-07)
(-0.0957892 0.000495583 3.10688e-07)
(-0.0951551 0.000514536 2.99014e-07)
(-0.0944815 0.000619384 3.366e-07)
(-0.0936881 0.000790997 4.03868e-07)
(-0.0927263 0.00101229 4.8382e-07)
(-0.091588 0.00125493 5.46703e-07)
(-0.0903318 0.00145956 5.16078e-07)
(-0.0891386 0.00149538 2.94288e-07)
(-0.0884051 0.00106766 -6.75469e-08)
(-0.0888209 -0.000506362 -1.29439e-06)
(-0.0916629 -0.00484751 -5.98663e-06)
(-0.0993881 -0.0154773 -8.13518e-06)
(-0.113381 -0.0403484 1.20796e-05)
(-0.0645715 0.0228353 -5.39119e-05)
(-0.0479863 0.00655837 -9.19628e-06)
(-0.0413832 0.00199396 -6.73099e-07)
(-0.0389875 0.000634451 -1.47767e-06)
(-0.0379304 0.000215132 -9.61012e-07)
(-0.0373902 8.85783e-05 -4.52692e-07)
(-0.0370687 5.5524e-05 -2.56986e-07)
(-0.0368247 5.56937e-05 -1.82791e-07)
(-0.0365842 7.26263e-05 -1.62433e-07)
(-0.0362987 0.000103218 -1.78816e-07)
(-0.0359287 0.000148391 -2.21178e-07)
(-0.03544 0.000210185 -2.78992e-07)
(-0.0348044 0.00029025 -3.37319e-07)
(-0.0340086 0.000386688 -3.69884e-07)
(-0.0330749 0.00048375 -2.85911e-07)
(-0.0321165 0.00051984 1.61354e-07)
(-0.0314795 0.000271341 6.01547e-07)
(-0.0320771 -0.00111628 -1.99743e-06)
(-0.037524 -0.00634552 3.95576e-06)
(-0.0564558 -0.0255308 6.82672e-05)
(-0.0306941 0.00069249 -1.69612e-06)
(-0.0326721 0.00050136 -1.18823e-06)
(-0.034082 0.000342828 -7.88147e-07)
(-0.0350444 0.000224538 -4.98952e-07)
(-0.0356847 0.000144239 -3.07472e-07)
(-0.0361123 9.52862e-05 -1.92121e-07)
(-0.0364146 7.05908e-05 -1.32164e-07)
(-0.0366581 6.45165e-05 -1.11868e-07)
(-0.0368941 7.32302e-05 -1.2058e-07)
(-0.0371622 9.42037e-05 -1.51532e-07)
(-0.0374926 0.000125281 -1.99923e-07)
(-0.0379055 0.000163493 -2.60682e-07)
(-0.0384064 0.000203706 -3.26157e-07)
(-0.0389783 0.000237203 -3.83686e-07)
(-0.0395708 0.000250486 -4.12266e-07)
(-0.040087 0.000224919 -3.77938e-07)
(-0.0403744 0.000138512 -2.3818e-07)
(-0.0402229 -2.83356e-05 3.34133e-08)
(-0.0393839 -0.000287486 5.11262e-07)
(-0.0376174 -0.000627502 1.23086e-06)
(-0.0802794 0.00439478 1.50963e-06)
(-0.0851701 0.00325084 1.26087e-06)
(-0.0886858 0.00229134 9.98134e-07)
(-0.0911195 0.00156047 7.63604e-07)
(-0.0927688 0.00104888 5.7223e-07)