/*--------------------------------*- C++ -*----------------------------------*\
| =========                 |                                                 |
| \\      /  F ield         | OpenFOAM: The Open Source CFD Toolbox           |
|  \\    /   O peration     | Version:  2.4.0                                 |
|   \\  /    A nd           | Web:      www.OpenFOAM.org                      |
|    \\/     M anipulation  |                                                 |
\*---------------------------------------------------------------------------*/
FoamFile
{
    version     2.0;
    format      ascii;
    class       volScalarField;
    location    "1.6";
    object      p;
}
// * * * * * * * * * * * * * * * * * * * * * * * * * * * * * * * * * * * * * //

dimensions      [0 2 -2 0 0 0 0];

internalField   nonuniform List<scalar> 
4800
(
-1.49358e-06
-0.00152509
-0.00305335
-0.00411991
-0.00441899
-0.00381005
-0.00225215
0.000246293
0.00363638
0.00781986
0.00151618
-3.29638e-05
-0.0011071
-0.00167459
-0.00162068
-0.000841541
0.000705353
0.00303074
0.00611851
0.00991635
0.0030733
0.000997085
-8.18467e-05
-0.000503644
-0.000331799
0.000490808
0.00199254
0.004194
0.0071079
0.0107214
0.00405719
0.00138187
0.000144621
-0.000288882
-0.000127012
0.000647633
0.00205316
0.00412685
0.00692132
0.0104779
0.0039628
0.000820378
-0.000582357
-0.00109335
-0.00102405
-0.000380119
0.000862421
0.00277586
0.00547797
0.00910735
0.00246603
-0.000947089
-0.00248288
-0.00311529
-0.00321527
-0.00279355
-0.00179988
-0.000102096
0.00252106
0.0064026
-0.000581706
-0.00404583
-0.00566315
-0.00644829
-0.00679244
-0.00669781
-0.00606922
-0.00469031
-0.00219281
0.00215578
-0.00517259
-0.00847104
-0.0101118
-0.0110727
-0.0117342
-0.012086
-0.0119792
-0.0111019
-0.00892174
-0.00391426
-0.0111504
-0.0140933
-0.0157001
-0.0168474
-0.0178843
-0.0187971
-0.0193895
-0.0192567
-0.0177694
-0.0119235
-0.0182268
-0.0206744
-0.0221931
-0.0235138
-0.0249489
-0.0265162
-0.0280378
-0.0291169
-0.0295286
-0.0247759
-3.83922e-06
-0.00154588
-0.00308381
-0.0041587
-0.00446268
-0.00385568
-0.00229776
0.000202606
0.00359685
0.00778697
0.00153256
-3.74017e-05
-0.00109011
-0.00164805
-0.00158947
-0.000807392
0.000739551
0.00306251
0.00614638
0.00994039
0.00310234
0.000972131
-8.30257e-05
-0.000502661
-0.000333196
0.000489486
0.00199111
0.00419196
0.00710517
0.0107198
0.00409903
0.00134718
0.000144587
-0.000286094
-0.000128316
0.000645832
0.00205092
0.00412349
0.00691588
0.0104732
0.00401345
0.000779998
-0.000577952
-0.00108374
-0.00101851
-0.000374915
0.000866974
0.0027783
0.00547423
0.00910067
0.00252082
-0.000991518
-0.00247717
-0.00310315
-0.0032071
-0.0027855
-0.00179207
-9.59576e-05
0.00251487
0.00638457
-0.00052701
-0.0040912
-0.00565708
-0.00643505
-0.00678255
-0.00668754
-0.00605783
-0.00467657
-0.00220087
0.00211054
-0.00512223
-0.00851442
-0.0101062
-0.0110598
-0.0117238
-0.0120753
-0.0119672
-0.0110804
-0.00894491
-0.00407249
-0.0111083
-0.0141325
-0.0156962
-0.0168365
-0.0178742
-0.0187858
-0.0193739
-0.0192033
-0.0177545
-0.0122787
-0.0181962
-0.0207083
-0.0221925
-0.0235076
-0.024942
-0.0265053
-0.0280142
-0.0289807
-0.0292138
-0.0248757
-4.35474e-06
-0.00154615
-0.00308394
-0.00415878
-0.00446274
-0.00385571
-0.00229779
0.000202571
0.00359682
0.00778695
0.00153228
-3.75807e-05
-0.00109022
-0.00164813
-0.00158953
-0.000807437
0.000739507
0.00306247
0.00614634
0.00994036
0.00310218
0.000972014
-8.3115e-05
-0.000502739
-0.000333257
0.000489439
0.00199106
0.00419192
0.00710513
0.0107198
0.00409892
0.00134709
0.000144512
-0.000286166
-0.000128376
0.000645782
0.00205087
0.00412343
0.00691584
0.0104731
0.00401335
0.000779917
-0.000578028
-0.00108382
-0.00101858
-0.000374974
0.000866915
0.00277824
0.00547419
0.00910064
0.00252073
-0.000991597
-0.00247725
-0.00310323
-0.00320717
-0.00278557
-0.00179213
-9.60105e-05
0.00251483
0.00638454
-0.000527093
-0.00409127
-0.00565715
-0.00643512
-0.00678262
-0.0066876
-0.00605788
-0.00467661
-0.0022009
0.00211052
-0.0051223
-0.00851449
-0.0101063
-0.0110599
-0.0117238
-0.0120754
-0.0119672
-0.0110804
-0.00894494
-0.00407251
-0.0111084
-0.0141326
-0.0156963
-0.0168365
-0.0178743
-0.0187859
-0.019374
-0.0192034
-0.0177545
-0.0122787
-0.0181962
-0.0207084
-0.0221926
-0.0235076
-0.0249421
-0.0265054
-0.0280143
-0.0289808
-0.0292139
-0.0248757
-3.56854e-06
-0.00152586
-0.0030537
-0.00412011
-0.00441913
-0.00381015
-0.00225223
0.000246208
0.00363631
0.00781981
0.00151538
-3.34356e-05
-0.00110739
-0.00167479
-0.00162083
-0.000841663
0.000705246
0.00303064
0.00611843
0.00991628
0.00307289
0.000996791
-8.20786e-05
-0.000503819
-0.000331954
0.00049068
0.00199243
0.00419389
0.0071078
0.0107214
0.0040569
0.00138163
0.000144408
-0.00028906
-0.00012718
0.000647487
0.00205303
0.00412672
0.00692121
0.0104778
0.00396256
0.000820168
-0.000582553
-0.00109353
-0.00102423
-0.000380272
0.00086228
0.00277573
0.00547785
0.00910727
0.0024658
-0.000947289
-0.00248308
-0.00311547
-0.00321545
-0.00279371
-0.00180002
-0.000102227
0.00252095
0.00640251
-0.00058193
-0.00404603
-0.00566334
-0.00644847
-0.00679262
-0.00669796
-0.00606935
-0.00469043
-0.00219291
0.00215571
-0.00517279
-0.00847122
-0.010112
-0.0110729
-0.0117344
-0.0120861
-0.0119794
-0.011102
-0.00892184
-0.00391433
-0.0111506
-0.0140935
-0.0157002
-0.0168475
-0.0178845
-0.0187973
-0.0193896
-0.0192568
-0.0177695
-0.0119236
-0.018227
-0.0206746
-0.0221932
-0.023514
-0.0249491
-0.0265163
-0.0280379
-0.029117
-0.0295287
-0.024776
0.0126441
0.0179246
0.0234956
0.0292329
0.0350544
0.0409132
0.0467869
0.0526705
0.0585708
0.0645058
0.0705035
0.0766039
0.0828584
0.0893289
0.0960818
0.103177
0.11065
0.118473
0.126545
0.134645
0.0143243
0.0192043
0.0244277
0.0298889
0.0355081
0.0412299
0.0470199
0.0528604
0.0587476
0.0646891
0.0707031
0.0768177
0.0830695
0.0895011
0.0961558
0.103068
0.110248
0.117669
0.125234
0.132766
0.0149632
0.0196933
0.0247894
0.0301509
0.0356969
0.0413686
0.0471267
0.0529482
0.0588233
0.0647538
0.0707509
0.0768344
0.0830316
0.0893748
0.0958982
0.102631
0.109588
0.116756
0.124068
0.13139
0.0147463
0.0195251
0.0246709
0.0300768
0.0356582
0.0413559
0.0471312
0.052961
0.0588342
0.064749
0.0707113
0.0767338
0.0828355
0.0890411
0.0953807
0.101889
0.108596
0.115527
0.12267
0.129954
0.013647
0.0187073
0.0240948
0.0296933
0.0354168
0.0412131
0.0470523
0.0529181
0.0588025
0.0647032
0.0706216
0.0765632
0.0825376
0.0885606
0.0946577
0.10087
0.107254
0.113887
0.120844
0.128178
0.0116265
0.0172951
0.0231478
0.0290875
0.0350456
0.0409953
0.0469299
0.0528488
0.0587524
0.0646401
0.0705101
0.0763594
0.0821863
0.0879941
0.0937986
0.0996422
0.105607
0.11183
0.118511
0.125951
0.00880607
0.0155338
0.0220765
0.0284627
0.0346936
0.0408045
0.0468317
0.0527988
0.0587179
0.0645913
0.0704127
0.0761698
0.0818463
0.0874273
0.0929092
0.0983205
0.103761
0.109421
0.115653
0.123225
0.00556274
0.0139029
0.0212707
0.0280968
0.0345413
0.0407513
0.0468241
0.0528096
0.0587288
0.064584
0.0703627
0.0760407
0.0815845
0.0869552
0.0921183
0.0970708
0.101911
0.106846
0.11235
0.11995
0.00382219
0.0139675
0.0215964
0.0284283
0.0348025
0.0409379
0.0469587
0.0529132
0.058814
0.0646537
0.0704094
0.0760425
0.0814988
0.086708
0.0915867
0.0960668
0.100196
0.104007
0.107819
0.114364
0.00829258
0.0190522
0.0245927
0.0300807
0.0357162
0.0414558
0.0472767
0.0531412
0.0590134
0.0648592
0.0706379
0.0762933
0.0817455
0.0868783
0.0915239
0.0954463
0.0983273
0.0998772
0.0993872
0.101684
0.0126195
0.0179076
0.0234844
0.0292259
0.0350502
0.0409107
0.0467853
0.0526691
0.0585694
0.0645039
0.0705011
0.0766006
0.0828542
0.0893239
0.0960765
0.103172
0.110647
0.118474
0.126552
0.134663
0.0143456
0.019222
0.0244416
0.0298995
0.0355159
0.0412357
0.0470243
0.0528642
0.0587512
0.0646928
0.0707072
0.0768221
0.083074
0.0895051
0.0961581
0.103067
0.110242
0.117657
0.125213
0.132737
0.0149659
0.0196979
0.0247944
0.0301556
0.0357009
0.0413718
0.0471291
0.05295
0.0588248
0.0647549
0.0707518
0.0768351
0.0830321
0.0893749
0.0958976
0.10263
0.109586
0.116751
0.124063
0.131385
0.0147504
0.0195317
0.0246774
0.0300825
0.0356628
0.0413593
0.0471336
0.0529627
0.0588353
0.0647498
0.0707118
0.0767342
0.0828358
0.0890412
0.0953804
0.101888
0.108595
0.115524
0.122664
0.129949
0.0136582
0.0187198
0.0241048
0.0297011
0.0354223
0.0412166
0.0470546
0.0529195
0.0588035
0.0647038
0.0706222
0.0765638
0.0825382
0.0885613
0.0946583
0.100869
0.107253
0.113884
0.120834
0.128164
0.0116508
0.0173155
0.0231603
0.0290959
0.0350505
0.0409978
0.0469312
0.0528494
0.0587526
0.0646403
0.0705102
0.0763597
0.0821868
0.0879948
0.0937995
0.0996425
0.105607
0.111828
0.118494
0.125916
0.00887121
0.0155761
0.0220957
0.0284727
0.0346978
0.0408058
0.0468319
0.0527986
0.0587177
0.0645911
0.0704127
0.0761701
0.0818469
0.0874284
0.0929107
0.0983213
0.10376
0.109416
0.115613
0.123129
0.00567377
0.013947
0.0212793
0.0281001
0.0345409
0.0407495
0.0468225
0.0528082
0.0587277
0.064583
0.0703619
0.0760401
0.0815842
0.0869556
0.0921198
0.0970717
0.10191
0.106851
0.112314
0.119796
0.00396151
0.0139062
0.0215288
0.0284
0.0347881
0.0409293
0.0469535
0.0529093
0.0588103
0.0646496
0.0704044
0.0760366
0.0814921
0.0867018
0.0915836
0.0960689
0.100214
0.10409
0.10793
0.114193
0.00909834
0.0191843
0.024601
0.030102
0.0357299
0.0414621
0.0472802
0.0531435
0.0590154
0.0648615
0.0706406
0.0762968
0.0817497
0.0868829
0.0915271
0.0954426
0.0983175
0.0999054
0.0993264
0.100683
0.0126195
0.0179075
0.0234844
0.0292259
0.0350502
0.0409107
0.0467853
0.0526691
0.0585694
0.0645039
0.0705011
0.0766006
0.0828542
0.0893239
0.0960765
0.103172
0.110647
0.118474
0.126552
0.134663
0.0143456
0.019222
0.0244415
0.0298995
0.0355159
0.0412357
0.0470243
0.0528642
0.0587512
0.0646928
0.0707072
0.0768221
0.083074
0.0895051
0.0961582
0.103067
0.110242
0.117657
0.125213
0.132737
0.0149659
0.0196979
0.0247944
0.0301556
0.0357009
0.0413718
0.0471291
0.05295
0.0588248
0.0647549
0.0707518
0.0768351
0.0830321
0.0893749
0.0958976
0.10263
0.109586
0.116751
0.124063
0.131385
0.0147504
0.0195317
0.0246774
0.0300825
0.0356628
0.0413593
0.0471336
0.0529627
0.0588353
0.0647498
0.0707118
0.0767342
0.0828358
0.0890412
0.0953804
0.101888
0.108595
0.115524
0.122664
0.129949
0.0136582
0.0187198
0.0241048
0.029701
0.0354223
0.0412166
0.0470545
0.0529195
0.0588034
0.0647038
0.0706222
0.0765638
0.0825382
0.0885613
0.0946583
0.100869
0.107253
0.113884
0.120834
0.128164
0.0116508
0.0173154
0.0231603
0.0290959
0.0350505
0.0409978
0.0469312
0.0528494
0.0587526
0.0646403
0.0705103
0.0763597
0.0821868
0.0879948
0.0937995
0.0996425
0.105607
0.111828
0.118494
0.125916
0.00887119
0.0155761
0.0220957
0.0284726
0.0346978
0.0408058
0.0468319
0.0527986
0.0587177
0.0645911
0.0704128
0.0761701
0.0818469
0.0874284
0.0929107
0.0983213
0.10376
0.109416
0.115613
0.123129
0.00567375
0.013947
0.0212793
0.0281001
0.0345409
0.0407495
0.0468225
0.0528082
0.0587277
0.064583
0.0703619
0.0760401
0.0815842
0.0869556
0.0921198
0.0970717
0.10191
0.106851
0.112314
0.119796
0.00396148
0.0139062
0.0215288
0.0284
0.0347881
0.0409293
0.0469535
0.0529093
0.0588103
0.0646496
0.0704044
0.0760366
0.0814921
0.0867018
0.0915836
0.0960689
0.100214
0.10409
0.10793
0.114193
0.00909832
0.0191843
0.024601
0.030102
0.0357299
0.041462
0.0472802
0.0531435
0.0590154
0.0648615
0.0706406
0.0762968
0.0817498
0.0868829
0.0915271
0.0954426
0.0983175
0.0999054
0.0993265
0.100683
0.0126441
0.0179246
0.0234956
0.0292328
0.0350544
0.0409132
0.0467869
0.0526705
0.0585709
0.0645058
0.0705036
0.0766039
0.0828584
0.0893289
0.0960818
0.103177
0.11065
0.118473
0.126545
0.134645
0.0143243
0.0192043
0.0244276
0.0298889
0.0355081
0.0412299
0.0470199
0.0528604
0.0587476
0.0646891
0.0707031
0.0768177
0.0830695
0.0895011
0.0961558
0.103068
0.110248
0.117669
0.125234
0.132765
0.0149631
0.0196932
0.0247894
0.0301509
0.0356969
0.0413686
0.0471267
0.0529482
0.0588233
0.0647538
0.0707509
0.0768344
0.0830316
0.0893748
0.0958982
0.102631
0.109588
0.116756
0.124068
0.13139
0.0147462
0.019525
0.0246709
0.0300767
0.0356582
0.0413559
0.0471312
0.052961
0.0588342
0.064749
0.0707113
0.0767339
0.0828355
0.0890411
0.0953807
0.101889
0.108596
0.115527
0.12267
0.129954
0.0136469
0.0187073
0.0240947
0.0296933
0.0354168
0.041213
0.0470523
0.0529181
0.0588025
0.0647032
0.0706216
0.0765632
0.0825376
0.0885606
0.0946577
0.10087
0.107254
0.113887
0.120844
0.128178
0.0116265
0.017295
0.0231477
0.0290875
0.0350455
0.0409952
0.0469299
0.0528488
0.0587524
0.0646401
0.0705101
0.0763595
0.0821863
0.0879941
0.0937986
0.0996423
0.105607
0.11183
0.118511
0.125951
0.00880601
0.0155338
0.0220765
0.0284627
0.0346935
0.0408045
0.0468317
0.0527988
0.0587179
0.0645913
0.0704128
0.0761699
0.0818463
0.0874273
0.0929092
0.0983206
0.103761
0.109422
0.115653
0.123225
0.00556269
0.0139028
0.0212706
0.0280967
0.0345413
0.0407512
0.0468241
0.0528096
0.0587288
0.064584
0.0703627
0.0760408
0.0815845
0.0869552
0.0921183
0.0970709
0.101911
0.106846
0.11235
0.119951
0.00382213
0.0139674
0.0215964
0.0284283
0.0348025
0.0409379
0.0469587
0.0529132
0.058814
0.0646537
0.0704094
0.0760425
0.0814988
0.0867081
0.0915868
0.0960669
0.100196
0.104007
0.107819
0.114364
0.00829255
0.0190522
0.0245927
0.0300806
0.0357161
0.0414558
0.0472767
0.0531411
0.0590134
0.0648592
0.0706379
0.0762933
0.0817455
0.0868783
0.0915239
0.0954463
0.0983274
0.0998774
0.0993874
0.101685
0.142438
0.149515
0.155495
0.160088
0.163139
0.164638
0.164734
0.163751
0.162193
0.160672
0.139991
0.146573
0.152197
0.156624
0.159725
0.161495
0.162058
0.161673
0.160643
0.159149
0.138473
0.144967
0.150556
0.155007
0.158189
0.160092
0.160821
0.160595
0.159569
0.157621
0.137152
0.143819
0.149595
0.154221
0.157557
0.159581
0.160388
0.160174
0.159002
0.156555
0.135716
0.142781
0.148932
0.153876
0.157457
0.159651
0.160551
0.160347
0.159058
0.156257
0.134148
0.141866
0.148579
0.15397
0.157878
0.160296
0.161327
0.161173
0.15984
0.156869
0.132625
0.141272
0.148683
0.154596
0.158871
0.16154
0.162736
0.162679
0.161392
0.158432
0.131544
0.141401
0.149556
0.155973
0.160568
0.163455
0.164813
0.164886
0.163725
0.160938
0.13113
0.142882
0.151731
0.158466
0.16319
0.166159
0.167614
0.167809
0.166824
0.16434
0.135877
0.148717
0.156728
0.162808
0.16707
0.169792
0.171178
0.171434
0.170637
0.168542
0.142469
0.149558
0.155545
0.160143
0.163194
0.164689
0.164776
0.16378
0.162209
0.160671
0.139958
0.146534
0.152154
0.156579
0.159681
0.161455
0.162023
0.161649
0.160639
0.159129
0.138474
0.14497
0.150562
0.155013
0.158195
0.160097
0.160821
0.160594
0.159586
0.157591
0.137158
0.14383
0.149608
0.154235
0.157569
0.159591
0.160391
0.160175
0.159029
0.156516
0.135723
0.142791
0.148943
0.153886
0.157465
0.159657
0.16055
0.160346
0.15909
0.156214
0.134159
0.141878
0.148589
0.15398
0.157886
0.160301
0.161326
0.161171
0.159875
0.156823
0.132649
0.141287
0.148695
0.154608
0.158879
0.161544
0.162733
0.162677
0.161427
0.158386
0.13168
0.141454
0.149578
0.155986
0.160574
0.163457
0.16481
0.164884
0.163757
0.160894
0.131444
0.142897
0.151707
0.158458
0.163184
0.166155
0.167608
0.167806
0.166852
0.1643
0.135777
0.148362
0.15657
0.162763
0.167052
0.169785
0.171173
0.171432
0.170661
0.168509
0.142469
0.149557
0.155545
0.160143
0.163194
0.164689
0.164776
0.16378
0.162209
0.160671
0.139958
0.146534
0.152154
0.156579
0.159681
0.161455
0.162023
0.161649
0.160639
0.159129
0.138474
0.14497
0.150562
0.155013
0.158195
0.160097
0.160821
0.160594
0.159586
0.157591
0.137158
0.14383
0.149608
0.154235
0.157569
0.159591
0.160391
0.160175
0.159029
0.156516
0.135723
0.142791
0.148943
0.153886
0.157465
0.159657
0.16055
0.160346
0.15909
0.156214
0.134159
0.141878
0.148589
0.15398
0.157886
0.160301
0.161326
0.161171
0.159875
0.156823
0.132649
0.141287
0.148695
0.154608
0.158879
0.161544
0.162733
0.162677
0.161427
0.158386
0.13168
0.141454
0.149578
0.155986
0.160574
0.163457
0.16481
0.164884
0.163757
0.160894
0.131444
0.142897
0.151707
0.158458
0.163184
0.166155
0.167608
0.167806
0.166852
0.1643
0.135777
0.148362
0.15657
0.162763
0.167052
0.169785
0.171173
0.171432
0.170661
0.168509
0.142438
0.149515
0.155495
0.160088
0.163139
0.164638
0.164734
0.16375
0.162193
0.160672
0.139991
0.146573
0.152197
0.156624
0.159725
0.161495
0.162058
0.161673
0.160643
0.159149
0.138473
0.144967
0.150556
0.155007
0.158189
0.160092
0.16082
0.160595
0.159569
0.157621
0.137152
0.143819
0.149595
0.154221
0.157557
0.159581
0.160388
0.160174
0.159002
0.156555
0.135716
0.142781
0.148932
0.153876
0.157457
0.159651
0.160551
0.160347
0.159058
0.156257
0.134148
0.141866
0.148579
0.15397
0.157878
0.160296
0.161327
0.161173
0.15984
0.156869
0.132625
0.141272
0.148683
0.154596
0.158871
0.16154
0.162736
0.162679
0.161392
0.158432
0.131544
0.141401
0.149556
0.155973
0.160568
0.163455
0.164813
0.164886
0.163725
0.160938
0.13113
0.142882
0.151731
0.158466
0.16319
0.166159
0.167614
0.167809
0.166824
0.16434
0.135877
0.148717
0.156728
0.162808
0.16707
0.169792
0.171178
0.171434
0.170637
0.168542
0.168907
0.164437
0.166187
0.169448
0.172291
0.174335
0.175456
0.175691
0.175065
0.173392
0.179618
0.174549
0.174505
0.176163
0.177956
0.1794
0.180247
0.18044
0.179972
0.178709
0.185105
0.182142
0.181848
0.182692
0.183804
0.184793
0.185407
0.185558
0.185226
0.184326
0.190532
0.188937
0.188651
0.189065
0.18974
0.190395
0.190825
0.190941
0.190721
0.19012
0.196104
0.195279
0.19508
0.195288
0.195696
0.196121
0.196414
0.196501
0.19637
0.196003
0.201786
0.2014
0.201292
0.201404
0.201648
0.201916
0.202107
0.202172
0.202106
0.201918
0.207574
0.20744
0.2074
0.207459
0.207593
0.207745
0.207856
0.207896
0.207877
0.207824
0.213452
0.213484
0.213479
0.213492
0.213536
0.213587
0.213622
0.213629
0.213634
0.21369
0.219445
0.21958
0.219582
0.219538
0.219484
0.219427
0.219372
0.219329
0.219336
0.219472
0.225587
0.225785
0.225759
0.225625
0.225445
0.225251
0.225077
0.224954
0.224936
0.225122
0.231945
0.232158
0.232057
0.231784
0.231426
0.231046
0.230706
0.230461
0.230381
0.230579
0.23861
0.238765
0.238521
0.238039
0.237433
0.236799
0.236232
0.23581
0.235614
0.235765
0.245703
0.245678
0.245194
0.244413
0.243469
0.242497
0.241628
0.240961
0.240583
0.240595
0.253375
0.252959
0.252101
0.250907
0.249527
0.24813
0.246878
0.245891
0.245241
0.244979
0.261822
0.260624
0.25922
0.257495
0.255582
0.253685
0.251984
0.250602
0.249577
0.248841
0.271157
0.268665
0.266444
0.264071
0.261568
0.259145
0.256969
0.255139
0.253614
0.252161
0.281484
0.276751
0.273438
0.270376
0.267329
0.264468
0.261884
0.25961
0.257468
0.254972
0.292445
0.28411
0.279493
0.275894
0.272555
0.269545
0.266796
0.264195
0.26136
0.257434
0.303886
0.289757
0.283449
0.279691
0.276644
0.274117
0.271744
0.269156
0.265655
0.259882
0.315665
0.29048
0.282183
0.279613
0.278336
0.27761
0.276677
0.274826
0.27091
0.262902
0.169712
0.164576
0.166298
0.169514
0.172316
0.174347
0.17546
0.175694
0.175087
0.173368
0.17975
0.174488
0.174549
0.176206
0.177977
0.179413
0.180254
0.180445
0.179989
0.178692
0.185113
0.182074
0.181857
0.182711
0.183817
0.184803
0.185413
0.185563
0.18524
0.184315
0.190553
0.188909
0.188655
0.189075
0.189749
0.190403
0.19083
0.190945
0.190731
0.190113
0.196117
0.195267
0.19508
0.195293
0.195701
0.196127
0.196418
0.196505
0.196376
0.195999
0.201791
0.201394
0.201291
0.201405
0.201651
0.201919
0.20211
0.202174
0.202109
0.201916
0.207576
0.207438
0.207399
0.207459
0.207595
0.207747
0.207858
0.207898
0.207877
0.207824
0.213451
0.213486
0.213478
0.213492
0.213537
0.213589
0.213623
0.21363
0.213633
0.213691
0.219443
0.219584
0.219582
0.219537
0.219484
0.219428
0.219373
0.219329
0.219334
0.219474
0.225584
0.22579
0.225759
0.225624
0.225445
0.225251
0.225077
0.224954
0.224932
0.225126
0.23194
0.232163
0.232057
0.231783
0.231425
0.231045
0.230707
0.230461
0.230376
0.230584
0.238605
0.238769
0.23852
0.238038
0.237433
0.236798
0.236232
0.23581
0.23561
0.235771
0.245698
0.24568
0.245192
0.24441
0.243468
0.242496
0.241628
0.240962
0.24058
0.2406
0.253371
0.252955
0.252097
0.250904
0.249525
0.248128
0.246878
0.245893
0.245243
0.244983
0.26182
0.260607
0.259213
0.257491
0.255578
0.253683
0.251984
0.250605
0.249586
0.248843
0.271169
0.268628
0.266436
0.264067
0.261563
0.259144
0.256969
0.255145
0.253634
0.252157
0.281537
0.276684
0.273432
0.270375
0.267324
0.264467
0.261885
0.259618
0.257506
0.254958
0.292527
0.283942
0.279469
0.275892
0.272547
0.269545
0.266798
0.264209
0.261423
0.257406
0.304018
0.289423
0.283447
0.279732
0.276657
0.27413
0.271753
0.269178
0.265752
0.259834
0.317009
0.290567
0.282474
0.2798
0.278405
0.277644
0.276693
0.274856
0.271051
0.262826
0.169712
0.164576
0.166298
0.169514
0.172316
0.174347
0.17546
0.175694
0.175087
0.173368
0.17975
0.174488
0.174549
0.176206
0.177977
0.179413
0.180254
0.180445
0.179989
0.178692
0.185113
0.182074
0.181857
0.182711
0.183817
0.184803
0.185413
0.185563
0.18524
0.184315
0.190553
0.188909
0.188655
0.189075
0.189749
0.190403
0.19083
0.190945
0.190731
0.190113
0.196117
0.195267
0.19508
0.195293
0.195701
0.196127
0.196418
0.196505
0.196376
0.195999
0.201791
0.201394
0.201291
0.201405
0.201651
0.201919
0.20211
0.202174
0.202109
0.201916
0.207576
0.207438
0.207399
0.207459
0.207595
0.207747
0.207858
0.207898
0.207877
0.207824
0.213451
0.213486
0.213478
0.213492
0.213537
0.213589
0.213623
0.21363
0.213633
0.213691
0.219443
0.219584
0.219582
0.219537
0.219484
0.219428
0.219373
0.219329
0.219334
0.219474
0.225584
0.22579
0.225759
0.225624
0.225445
0.225251
0.225077
0.224954
0.224932
0.225126
0.23194
0.232163
0.232057
0.231783
0.231425
0.231045
0.230707
0.230461
0.230376
0.230584
0.238605
0.238769
0.23852
0.238038
0.237433
0.236798
0.236232
0.23581
0.23561
0.235771
0.245698
0.24568
0.245192
0.24441
0.243468
0.242496
0.241628
0.240962
0.24058
0.2406
0.253371
0.252955
0.252097
0.250904
0.249525
0.248128
0.246878
0.245893
0.245243
0.244983
0.26182
0.260607
0.259213
0.257491
0.255578
0.253683
0.251984
0.250605
0.249586
0.248843
0.271169
0.268628
0.266436
0.264067
0.261563
0.259144
0.256969
0.255145
0.253634
0.252157
0.281537
0.276684
0.273432
0.270375
0.267324
0.264467
0.261885
0.259618
0.257506
0.254958
0.292527
0.283942
0.279469
0.275892
0.272547
0.269545
0.266798
0.264209
0.261423
0.257406
0.304018
0.289423
0.283447
0.279732
0.276657
0.27413
0.271753
0.269178
0.265752
0.259834
0.31701
0.290567
0.282474
0.2798
0.278405
0.277644
0.276693
0.274856
0.271051
0.262826
0.168907
0.164437
0.166187
0.169449
0.172291
0.174335
0.175456
0.175691
0.175065
0.173392
0.179618
0.174549
0.174505
0.176163
0.177956
0.1794
0.180247
0.18044
0.179972
0.178709
0.185105
0.182142
0.181848
0.182692
0.183804
0.184793
0.185407
0.185558
0.185226
0.184326
0.190532
0.188937
0.188651
0.189065
0.18974
0.190395
0.190825
0.190941
0.190721
0.19012
0.196104
0.195279
0.19508
0.195288
0.195696
0.196121
0.196414
0.196501
0.19637
0.196003
0.201786
0.2014
0.201292
0.201404
0.201648
0.201916
0.202107
0.202172
0.202106
0.201918
0.207574
0.20744
0.2074
0.207459
0.207594
0.207745
0.207856
0.207896
0.207877
0.207824
0.213452
0.213484
0.213479
0.213492
0.213536
0.213588
0.213622
0.213629
0.213634
0.21369
0.219445
0.21958
0.219582
0.219538
0.219484
0.219427
0.219372
0.219329
0.219336
0.219472
0.225587
0.225785
0.225759
0.225625
0.225445
0.225251
0.225077
0.224954
0.224936
0.225122
0.231945
0.232158
0.232057
0.231784
0.231426
0.231046
0.230706
0.230461
0.230381
0.230579
0.23861
0.238765
0.238521
0.238039
0.237433
0.236799
0.236232
0.23581
0.235614
0.235765
0.245703
0.245678
0.245194
0.244413
0.243469
0.242497
0.241628
0.240961
0.240583
0.240595
0.253375
0.252959
0.252101
0.250907
0.249527
0.24813
0.246878
0.245891
0.245241
0.244979
0.261822
0.260624
0.25922
0.257495
0.255582
0.253685
0.251984
0.250602
0.249577
0.248841
0.271157
0.268665
0.266444
0.264071
0.261568
0.259145
0.256969
0.255139
0.253614
0.252161
0.281484
0.276751
0.273438
0.270376
0.267329
0.264468
0.261885
0.25961
0.257468
0.254972
0.292446
0.28411
0.279493
0.275894
0.272555
0.269545
0.266796
0.264195
0.26136
0.257434
0.303886
0.289757
0.283449
0.279691
0.276644
0.274117
0.271744
0.269156
0.265655
0.259882
0.315665
0.29048
0.282183
0.279613
0.278336
0.27761
0.276677
0.274826
0.27091
0.262902
0.25396
0.262668
0.268316
0.272548
0.276143
0.279387
0.281563
0.281675
0.27796
0.267464
0.22489
0.24101
0.252452
0.262073
0.27115
0.279752
0.286745
0.290464
0.288054
0.275119
0.207572
0.223103
0.236558
0.250059
0.264461
0.279339
0.292871
0.302308
0.303002
0.288305
0.194087
0.207976
0.222148
0.23848
0.257788
0.279478
0.3012
0.31893
0.325478
0.31096
0.18417
0.196722
0.211229
0.229772
0.253547
0.282316
0.313774
0.342892
0.359455
0.349568
0.178121
0.19022
0.205417
0.226147
0.25426
0.290379
0.33315
0.377526
0.410546
0.41429
0.175816
0.188555
0.205234
0.22867
0.261462
0.305546
0.361554
0.426147
0.485364
0.519542
0.176424
0.19059
0.209372
0.23598
0.273916
0.326884
0.398598
0.489115
0.589101
0.692605
0.178286
0.193619
0.213843
0.242491
0.284031
0.34441
0.431994
0.555048
0.723786
1.00353
0.179798
0.194603
0.213658
0.240345
0.279393
0.338203
0.430822
0.584812
0.871018
1.48803
0.254288
0.262194
0.268188
0.272535
0.27614
0.279395
0.281567
0.281708
0.278155
0.267352
0.225326
0.240955
0.252395
0.262041
0.271128
0.279747
0.286738
0.290501
0.288317
0.274966
0.207835
0.223123
0.23653
0.250021
0.264423
0.279314
0.292842
0.302343
0.303344
0.288109
0.19418
0.207963
0.222099
0.238414
0.257716
0.279413
0.301128
0.318949
0.325892
0.31072
0.184199
0.196691
0.21116
0.229677
0.253435
0.282195
0.313636
0.34287
0.359893
0.34931
0.178129
0.190183
0.205338
0.226029
0.254102
0.290179
0.332906
0.377409
0.410906
0.414236
0.17583
0.188533
0.205167
0.228548
0.261265
0.305233
0.361123
0.425825
0.485329
0.520019
0.176468
0.190624
0.209393
0.23598
0.273864
0.326684
0.398235
0.48884
0.587711
0.692266
0.178357
0.193731
0.214026
0.24278
0.284461
0.344971
0.43274
0.555657
0.720527
1.00123
0.179849
0.194645
0.21368
0.240353
0.27941
0.338283
0.431185
0.585251
0.867326
1.49727
0.254288
0.262194
0.268188
0.272535
0.27614
0.279395
0.281567
0.281708
0.278155
0.267352
0.225326
0.240955
0.252395
0.262041
0.271128
0.279747
0.286738
0.290501
0.288317
0.274966
0.207835
0.223123
0.23653
0.250021
0.264423
0.279314
0.292842
0.302343
0.303344
0.288109
0.19418
0.207963
0.222099
0.238414
0.257716
0.279413
0.301128
0.318949
0.325892
0.31072
0.184199
0.196691
0.21116
0.229677
0.253435
0.282195
0.313636
0.34287
0.359893
0.34931
0.178129
0.190183
0.205338
0.226029
0.254102
0.290179
0.332906
0.377409
0.410906
0.414236
0.17583
0.188533
0.205167
0.228548
0.261265
0.305233
0.361123
0.425825
0.485329
0.520019
0.176468
0.190624
0.209393
0.23598
0.273864
0.326684
0.398235
0.48884
0.587711
0.692266
0.178357
0.193731
0.214026
0.24278
0.284461
0.344971
0.43274
0.555657
0.720527
1.00123
0.179849
0.194645
0.21368
0.240353
0.27941
0.338283
0.431185
0.585251
0.867326
1.49727
0.25396
0.262668
0.268316
0.272548
0.276143
0.279387
0.281563
0.281675
0.27796
0.267464
0.22489
0.241011
0.252452
0.262073
0.27115
0.279752
0.286745
0.290464
0.288054
0.275119
0.207572
0.223103
0.236558
0.250059
0.264461
0.279339
0.292871
0.302308
0.303002
0.288305
0.194087
0.207976
0.222148
0.23848
0.257788
0.279478
0.3012
0.318931
0.325478
0.31096
0.18417
0.196722
0.211229
0.229772
0.253547
0.282316
0.313774
0.342892
0.359455
0.349568
0.178121
0.19022
0.205417
0.226147
0.25426
0.290379
0.33315
0.377526
0.410546
0.41429
0.175816
0.188555
0.205234
0.22867
0.261463
0.305546
0.361554
0.426147
0.485364
0.519542
0.176424
0.19059
0.209372
0.23598
0.273916
0.326884
0.398598
0.489115
0.589101
0.692605
0.178286
0.193619
0.213843
0.242491
0.284031
0.34441
0.431994
0.555048
0.723786
1.00353
0.179798
0.194603
0.213658
0.240345
0.279393
0.338203
0.430822
0.584812
0.871019
1.48803
-0.151374
-0.130868
-0.113056
-0.0965705
-0.0800565
-0.0633278
-0.0463885
-0.0292817
-0.012073
0.00516206
0.0223439
0.0393968
0.0562388
0.0728253
0.0891708
0.105453
0.122143
0.140266
0.1631
0.200688
-0.137916
-0.124455
-0.11
-0.0948049
-0.0789257
-0.062572
-0.0458783
-0.0289429
-0.0118519
0.0053177
0.0224972
0.0396229
0.0566585
0.0735948
0.0905023
0.107586
0.125245
0.14411
0.165711
0.193661
-0.134949
-0.122912
-0.109211
-0.0943683
-0.0786991
-0.0624612
-0.0458242
-0.0289085
-0.011808
0.00540185
0.0226585
0.03991
0.0571216
0.0742833
0.0914328
0.108688
0.12627
0.144485
0.16392
0.18556
-0.136293
-0.123913
-0.110002
-0.0950018
-0.0792122
-0.0628657
-0.0461264
-0.0291116
-0.0119076
0.00541969
0.0228167
0.0402372
0.0576394
0.0749864
0.0922509
0.109422
0.126507
0.143515
0.16052
0.177654
-0.139193
-0.126083
-0.111638
-0.0962289
-0.0801263
-0.0635362
-0.0466025
-0.029425
-0.0120735
0.0054007
0.0229547
0.0405452
0.0581189
0.0756041
0.0929021
0.10988
0.126366
0.142155
0.157075
0.171087
-0.141883
-0.128088
-0.113123
-0.0973126
-0.0809071
-0.0640877
-0.0469779
-0.0296589
-0.0121847
0.00540556
0.0230761
0.0407823
0.0584572
0.0759965
0.0932434
0.109979
0.125926
0.140781
0.154323
0.1666
-0.142671
-0.128573
-0.113418
-0.0974854
-0.0810006
-0.0641281
-0.0469799
-0.0296291
-0.0121242
0.00549834
0.0232018
0.040935
0.0586174
0.0761214
0.0932577
0.10977
0.12535
0.139699
0.152657
0.164425
-0.14064
-0.12685
-0.112031
-0.0964058
-0.0801792
-0.0635115
-0.0465193
-0.0292842
-0.0118642
0.00569424
0.0233441
0.0410225
0.0586369
0.076048
0.0930589
0.109416
0.124835
0.139079
0.152092
0.164214
-0.135786
-0.123092
-0.109207
-0.0943325
-0.0786836
-0.0624466
-0.0457686
-0.0287603
-0.0115049
0.00593097
0.0234854
0.0410818
0.0586183
0.075955
0.0929016
0.109224
0.124677
0.139077
0.152439
0.165169
-0.127785
-0.117339
-0.105159
-0.0915379
-0.0767854
-0.0611752
-0.0449286
-0.0282145
-0.0111587
0.00614212
0.0236052
0.0411515
0.0586808
0.0760565
0.0930999
0.109589
0.125286
0.139995
0.153688
0.16667
-0.151718
-0.130743
-0.113041
-0.0965919
-0.0800687
-0.0633352
-0.0463937
-0.029285
-0.0120747
0.00516177
0.0223445
0.0393976
0.0562389
0.0728226
0.0891613
0.105432
0.12212
0.140219
0.162766
0.200039
-0.137859
-0.124291
-0.109927
-0.0947692
-0.0788997
-0.0625537
-0.0458658
-0.0289345
-0.0118465
0.0053209
0.0224993
0.0396255
0.0566635
0.0736053
0.0905214
0.107618
0.125306
0.144186
0.165616
0.193396
-0.135006
-0.122887
-0.109187
-0.09435
-0.0786843
-0.0624507
-0.0458168
-0.0289034
-0.0118044
0.00540421
0.02266
0.039911
0.0571223
0.0742835
0.0914314
0.108683