/*--------------------------------*- C++ -*----------------------------------*\
| =========                 |                                                 |
| \\      /  F ield         | OpenFOAM: The Open Source CFD Toolbox           |
|  \\    /   O peration     | Version:  2.4.0                                 |
|   \\  /    A nd           | Web:      www.OpenFOAM.org                      |
|    \\/     M anipulation  |                                                 |
\*---------------------------------------------------------------------------*/
FoamFile
{
    version     2.0;
    format      ascii;
    class       surfaceScalarField;
    location    "1.6";
    object      phi;
}
// * * * * * * * * * * * * * * * * * * * * * * * * * * * * * * * * * * * * * //

dimensions      [0 3 -1 0 0 0 0];

internalField   nonuniform List<scalar> 
12720
(
1.21069e-07
-1.20899e-07
1.92665e-10
-5.74119e-07
6.93479e-07
1.71125e-09
-2.05675e-06
1.48012e-06
2.5065e-09
-4.08589e-06
2.02594e-06
3.192e-09
-6.43694e-06
2.34746e-06
3.59587e-09
-8.92642e-06
2.48573e-06
3.75462e-09
-1.14034e-05
2.47323e-06
3.75343e-09
-1.37369e-05
2.32993e-06
3.59523e-09
-1.58126e-05
2.07238e-06
3.25311e-09
1.72795e-06
2.70679e-09
-1.75432e-05
-7.22127e-07
6.02575e-07
-1.34786e-09
-3.20785e-06
3.17882e-06
3.85536e-10
-7.22769e-06
5.50144e-06
-1.47569e-09
-1.23742e-05
7.17475e-06
-2.30612e-09
-1.82234e-05
8.19936e-06
-2.71127e-09
-2.43818e-05
8.64716e-06
-2.96658e-09
-3.04935e-05
8.5879e-06
-2.97088e-09
-3.6237e-05
8.07615e-06
-2.75989e-09
-4.13346e-05
7.17239e-06
-2.42076e-09
5.97859e-06
-2.08835e-09
-4.55831e-05
-1.62746e-06
2.23242e-06
-2.38954e-09
-5.84986e-06
7.39905e-06
2.16782e-09
-1.20847e-05
1.17361e-05
1.02421e-10
-1.97659e-05
1.48561e-05
-8.54026e-11
-2.83433e-05
1.67766e-05
1.21351e-10
-3.72957e-05
1.75994e-05
1.14857e-10
-4.61305e-05
1.74226e-05
1.2416e-10
-5.43857e-05
1.63312e-05
1.7725e-10
-6.16524e-05
1.44388e-05
2.36996e-10
1.19542e-05
1.40698e-10
-6.76281e-05
-2.35288e-06
4.58875e-06
-3.44299e-09
-8.01797e-06
1.30611e-05
3.01325e-09
-1.60587e-05
1.97769e-05
2.91781e-12
-2.574e-05
2.45376e-05
-2.42192e-10
-3.64103e-05
2.74469e-05
1.13289e-10
-4.74621e-05
2.86511e-05
1.56419e-10
-5.83064e-05
2.82667e-05
1.9481e-10
-6.83674e-05
2.63919e-05
2.92195e-10
-7.71105e-05
2.31814e-05
4.73107e-10
1.89627e-05
4.09845e-10
-8.41194e-05
-2.8538e-06
7.44671e-06
-4.16804e-09
-9.55267e-06
1.97565e-05
3.50791e-09
-1.88908e-05
2.91154e-05
-3.82704e-10
-2.99947e-05
3.56423e-05
-8.35008e-10
-4.21369e-05
3.95896e-05
-4.81661e-10
-5.46521e-05
4.11667e-05
-4.52056e-10
-6.68817e-05
4.04967e-05
-3.95475e-10
-7.81494e-05
3.76598e-05
-2.11836e-10
-8.77793e-05
3.2811e-05
3.24235e-10
2.63708e-05
5.80701e-10
-9.5188e-05
-3.11633e-06
1.05676e-05
-4.50906e-09
-1.03781e-05
2.70144e-05
3.85966e-09
-2.04315e-05
3.91693e-05
-4.96344e-10
-3.23216e-05
4.75334e-05
-1.05506e-09
-4.52791e-05
5.25478e-05
-7.09239e-10
-5.86106e-05
5.44989e-05
-6.9911e-10
-7.16164e-05
5.35031e-05
-6.78309e-10
-8.35349e-05
4.95789e-05
-5.33232e-10
-9.3526e-05
4.28015e-05
5.37685e-10
3.35767e-05
1.56616e-09
-0.000100734
-3.13776e-06
1.37098e-05
-4.50119e-09
-1.04637e-05
3.43364e-05
3.94133e-09
-2.06026e-05
4.93088e-05
-5.27485e-10
-3.25823e-05
5.95143e-05
-1.15019e-09
-4.56291e-05
6.55955e-05
-8.59395e-10
-5.90544e-05
6.79251e-05
-8.91586e-10
-7.21551e-05
6.66048e-05
-9.894e-10
-8.41222e-05
6.15473e-05
-1.19388e-09
-9.3952e-05
5.26306e-05
7.00117e-10
3.99793e-05
3.93026e-09
-0.000100358
-2.92708e-06
1.6641e-05
-4.1446e-09
-9.82351e-06
4.1229e-05
3.76908e-09
-1.94042e-05
5.889e-05
-4.81682e-10
-3.07333e-05
7.08445e-05
-1.12087e-09
-4.30585e-05
7.79216e-05
-9.08518e-10
-5.57185e-05
8.0586e-05
-9.2837e-10
-6.80479e-05
7.89353e-05
-1.05084e-09
-7.92591e-05
7.27603e-05
-1.8756e-09
-8.82651e-05
6.16345e-05
2.0121e-09
4.48758e-05
1.37458e-08
-9.31753e-05
-2.51309e-06
1.91576e-05
-3.46146e-09
-8.53729e-06
4.72498e-05
3.40755e-09
-1.69585e-05
6.73114e-05
-3.34178e-10
-2.69048e-05
8.07918e-05
-9.47398e-10
-3.76408e-05
8.86584e-05
-8.80404e-10
-4.85151e-05
9.14614e-05
-9.83626e-10
-5.88991e-05
8.93206e-05
-1.35178e-09
-6.80788e-05
8.19446e-05
-4.63483e-09
-7.50936e-05
6.86507e-05
-1.29399e-09
4.72253e-05
3.08583e-08
-7.7474e-05
-1.95335e-06
-2.52505e-09
2.11135e-05
-6.77563e-06
2.94396e-09
5.20691e-05
-1.3566e-05
-5.07476e-11
7.41019e-05
-2.15155e-05
-5.4155e-10
8.87418e-05
-2.98588e-05
-6.01583e-10
9.70023e-05
-3.7854e-05
-9.40179e-10
9.94576e-05
-4.47559e-05
-2.04633e-09
9.62246e-05
-4.97075e-05
-1.18318e-08
8.69079e-05
-5.16336e-05
-2.73448e-08
7.06041e-05
8.66342e-09
-4.93176e-05
4.49006e-05
1.22622e-07
-1.22469e-07
3.98292e-11
-5.74683e-07
6.98996e-07
2.1052e-11
-2.05746e-06
1.48527e-06
1.09526e-11
-4.086e-06
2.03173e-06
6.90102e-12
-6.43678e-06
2.35438e-06
4.55891e-12
-8.92625e-06
2.49322e-06
3.21911e-12
-1.14033e-05
2.48083e-06
3.18761e-12
-1.3737e-05
2.33727e-06
3.10872e-12
-1.58129e-05
2.07911e-06
2.34523e-12
1.73357e-06
1.79991e-12
-1.75437e-05
-7.27036e-07
6.03197e-07
2.23832e-11
-3.21316e-06
3.18549e-06
1.53995e-11
-7.23233e-06
5.50296e-06
9.90213e-12
-1.23773e-05
7.17443e-06
7.307e-12
-1.82248e-05
8.19913e-06
5.52162e-12
-2.43818e-05
8.64721e-06
4.28836e-12
-3.04923e-05
8.58835e-06
4.1249e-12
-3.62349e-05
8.07713e-06
3.9159e-12
-4.13322e-05
7.17393e-06
3.15606e-12
5.97999e-06
2.5772e-12
-4.55807e-05
-1.63271e-06
2.23351e-06
1.27999e-11
-5.85059e-06
7.40553e-06
1.04594e-11
-1.20854e-05
1.17378e-05
8.13211e-12
-1.97668e-05
1.48557e-05
6.99596e-12
-2.83437e-05
1.67762e-05
5.70512e-12
-3.72955e-05
1.75992e-05
4.54074e-12
-4.61299e-05
1.74228e-05
4.45039e-12
-5.43848e-05
1.63323e-05
4.35003e-12
-6.16517e-05
1.44411e-05
3.5791e-12
1.19562e-05
2.85006e-12
-6.76278e-05
-2.35934e-06
4.58939e-06
9.12041e-12
-8.0169e-06
1.30661e-05
8.18355e-12
-1.60575e-05
1.97785e-05
7.13173e-12
-2.57396e-05
2.45376e-05
6.718e-12
-3.64101e-05
2.74467e-05
5.82745e-12
-4.74618e-05
2.86511e-05
4.91998e-12
-5.83059e-05
2.82671e-05
4.93825e-12
-6.83669e-05
2.63935e-05
4.79742e-12
-7.71105e-05
2.31852e-05
3.9149e-12
1.89664e-05
3.03173e-12
-8.41203e-05
-2.86178e-06
7.447e-06
8.28319e-12
-9.55134e-06
1.97592e-05
7.59618e-12
-1.88892e-05
2.9116e-05
7.09052e-12
-2.99942e-05
3.56417e-05
6.96051e-12
-4.21367e-05
3.95887e-05
6.33276e-12
-5.46519e-05
4.11658e-05
5.5629e-12
-6.68813e-05
4.04961e-05
5.43447e-12
-7.81486e-05
3.76606e-05
5.08211e-12
-8.77793e-05
3.28161e-05
4.05547e-12
2.63775e-05
3.09733e-12
-9.51898e-05
-3.12511e-06
1.05676e-05
8.12015e-12
-1.03767e-05
2.70146e-05
7.49117e-12
-2.043e-05
3.91687e-05
7.3876e-12
-3.23214e-05
4.75321e-05
7.339e-12
-4.52794e-05
5.2546e-05
6.76446e-12
-5.86111e-05
5.44968e-05
5.98302e-12
-7.16165e-05
5.35008e-05
5.59732e-12
-8.3534e-05
4.95775e-05
4.97735e-12
-9.35257e-05
4.28084e-05
3.8257e-12
3.35906e-05
2.95483e-12
-0.000100737
-3.14658e-06
1.37097e-05
7.46508e-12
-1.04623e-05
3.43343e-05
7.02869e-12
-2.06012e-05
4.93071e-05
7.12582e-12
-3.25826e-05
5.95123e-05
6.99141e-12
-4.56303e-05
6.55928e-05
6.40571e-12
-5.90562e-05
6.79218e-05
5.63637e-12
-7.21567e-05
6.66004e-05
5.11567e-12
-8.41218e-05
6.15414e-05
4.39508e-12
-9.39506e-05
5.26379e-05
3.25712e-12
4.00102e-05
2.50062e-12
-0.000100366
-2.93526e-06
1.66408e-05
6.8747e-12
-9.82233e-06
4.12251e-05
6.63655e-12
-1.94033e-05
5.88875e-05
6.76029e-12
-3.07344e-05
7.08422e-05
6.4755e-12
-4.30609e-05
7.79184e-05
5.81369e-12
-5.5722e-05
8.0582e-05
5.09998e-12
-6.80517e-05
7.89291e-05
4.69392e-12
-7.92586e-05
7.27464e-05
4.18047e-12
-8.82527e-05
6.1634e-05
3.20591e-12
4.49549e-05
2.40293e-12
-9.31837e-05
-2.51998e-06
1.91573e-05
6.62682e-12
-8.53621e-06
4.72448e-05
6.47817e-12
-1.69578e-05
6.73088e-05
6.59733e-12
-2.69066e-05
8.079e-05
6.14098e-12
-3.76452e-05
8.86561e-05
5.40746e-12
-4.8523e-05
9.14588e-05
4.81741e-12
-5.89125e-05
8.93172e-05
4.66469e-12
-6.80968e-05
8.19261e-05
4.50592e-12
-7.50701e-05
6.86059e-05
3.73205e-12
4.73383e-05
3.05698e-12
-7.74226e-05
-1.9584e-06
6.11342e-12
2.11131e-05
-6.77427e-06
6.05199e-12
5.20636e-05
-1.35648e-05
6.17669e-12
7.40994e-05
-2.15164e-05
5.6323e-12
8.8741e-05
-2.98633e-05
4.91305e-12
9.70025e-05
-3.78654e-05
4.42843e-12
9.94599e-05
-4.47835e-05
4.45901e-12
9.62333e-05
-4.97916e-05
4.60326e-12
8.69224e-05
-5.17673e-05
3.81886e-12
7.05542e-05
3.31596e-12
-4.90993e-05
4.4679e-05
1.22601e-07
-1.22489e-07
-7.19231e-11
-5.74694e-07
6.98986e-07
-1.66967e-09
-2.05746e-06
1.48527e-06
-2.48851e-09
-4.08599e-06
2.03172e-06
-3.18293e-09
-6.43677e-06
2.35437e-06
-3.5888e-09
-8.92624e-06
2.49322e-06
-3.74966e-09
-1.14033e-05
2.48083e-06
-3.74969e-09
-1.3737e-05
2.33727e-06
-3.5911e-09
-1.58128e-05
2.07911e-06
-3.2497e-09
1.73356e-06
-2.70438e-09
-1.75437e-05
-7.27043e-07
6.03186e-07
1.39131e-09
-3.21316e-06
3.18548e-06
-3.60094e-10
-7.23232e-06
5.50294e-06
1.49178e-09
-1.23773e-05
7.17442e-06
2.31555e-09
-1.82248e-05
8.19912e-06
2.71914e-09
-2.43817e-05
8.6472e-06
2.97328e-09
-3.04922e-05
8.58834e-06
2.97636e-09
-3.62348e-05
8.07712e-06
2.76505e-09
-4.13321e-05
7.17392e-06
2.4251e-09
5.97999e-06
2.09184e-09
-4.55806e-05
-1.63271e-06
2.2335e-06
2.41079e-09
-5.85058e-06
7.40552e-06
-2.15243e-09
-1.20854e-05
1.17378e-05
-9.00309e-11
-1.97667e-05
1.48557e-05
9.39029e-11
-2.83436e-05
1.67761e-05
-1.1316e-10
-3.72955e-05
1.75992e-05
-1.07811e-10
-4.61298e-05
1.74228e-05
-1.18255e-10
-5.43847e-05
1.63322e-05
-1.71401e-10
-6.16516e-05
1.4441e-05
-2.31833e-10
1.19562e-05
-1.36552e-10
-6.76277e-05
-2.35933e-06
4.58938e-06
3.458e-09
-8.01688e-06
1.30661e-05
-3.00018e-09
-1.60575e-05
1.97784e-05
9.02825e-12
-2.57396e-05
2.45375e-05
2.51374e-10
-3.641e-05
2.74467e-05
-1.03882e-10
-4.74617e-05
2.8651e-05
-1.48088e-10
-5.83058e-05
2.82671e-05
-1.87632e-10
-6.83668e-05
2.63935e-05
-2.85177e-10
-7.71104e-05
2.31851e-05
-4.66989e-10
1.89664e-05
-4.05087e-10
-8.41202e-05
-2.86178e-06
7.44699e-06
4.18022e-09
-9.55132e-06
1.97591e-05
-3.49666e-09
-1.88892e-05
2.91159e-05
3.93154e-10
-2.99941e-05
3.56417e-05
8.43443e-10
-4.21366e-05
3.95887e-05
4.90711e-10
-5.46518e-05
4.11658e-05
4.60234e-10
-6.68812e-05
4.04961e-05
4.02623e-10
-7.81485e-05
3.76606e-05
2.18717e-10
-8.77791e-05
3.28161e-05
-3.18233e-10
2.63775e-05
-5.76039e-10
-9.51897e-05
-3.1251e-06
1.05676e-05
4.52091e-09
-1.03767e-05
2.70146e-05
-3.84913e-09
-2.04299e-05
3.91687e-05
5.06495e-10
-3.23213e-05
4.7532e-05
1.06386e-09
-4.52793e-05
5.25459e-05
7.18691e-10
-5.8611e-05
5.44968e-05
7.07625e-10
-7.16164e-05
5.35008e-05
6.8565e-10
-8.35339e-05
4.95775e-05
5.40053e-10
-9.35256e-05
4.28084e-05
-5.3167e-10
3.35906e-05
-1.56144e-09
-0.000100737
-3.14657e-06
1.37096e-05
4.51274e-09
-1.04623e-05
3.43343e-05
-3.93093e-09
-2.06012e-05
4.9307e-05
5.37655e-10
-3.25826e-05
5.95122e-05
1.15941e-09
-4.56302e-05
6.55927e-05
8.68944e-10
-5.90561e-05
6.79217e-05
8.99992e-10
-7.21566e-05
6.66004e-05
9.96484e-10
-8.41217e-05
6.15413e-05
1.20026e-09
-9.39505e-05
5.26378e-05
-6.94361e-10
4.00102e-05
-3.92568e-09
-0.000100366
-2.93525e-06
1.66407e-05
4.15484e-09
-9.82231e-06
4.12251e-05
-3.75924e-09
-1.94032e-05
5.88875e-05
4.91174e-10
-3.07343e-05
7.08421e-05
1.12961e-09
-4.30608e-05
7.79183e-05
9.17254e-10
-5.57219e-05
8.05819e-05
9.35908e-10
-6.80516e-05
7.8929e-05
1.05709e-09
-7.92585e-05
7.27464e-05
1.88111e-09
-8.82526e-05
6.16339e-05
-2.00683e-09
4.49549e-05
-1.37413e-08
-9.31836e-05
-2.51997e-06
1.91572e-05
3.47104e-09
-8.53619e-06
4.72447e-05
-3.39804e-09
-1.69578e-05
6.73087e-05
3.43168e-10
-2.69065e-05
8.07899e-05
9.55868e-10
-3.76451e-05
8.8656e-05
8.8854e-10
-4.85229e-05
9.14587e-05
9.9066e-10
-5.89124e-05
8.93172e-05
1.35777e-09
-6.80968e-05
8.19261e-05
4.63973e-09
-7.507e-05
6.86059e-05
1.29836e-09
4.73383e-05
-3.08549e-08
-7.74226e-05
-1.95839e-06
2.53399e-09
2.11131e-05
-6.77426e-06
-2.93501e-09
5.20635e-05
-1.35648e-05
5.91858e-11
7.40993e-05
-2.15163e-05
5.49738e-10
8.87409e-05
-2.98633e-05
6.09315e-10
9.70024e-05
-3.78654e-05
9.47311e-10
9.94599e-05
-4.47835e-05
2.05291e-09
9.62332e-05
-4.97916e-05
1.18369e-08
8.69224e-05
-5.17673e-05
2.73489e-08
7.05542e-05
-8.66009e-09
-4.90993e-05
4.4679e-05
1.20946e-07
-1.21018e-07
-5.74163e-07
6.93442e-07
-2.05676e-06
1.48011e-06
-4.08588e-06
2.02593e-06
-6.43691e-06
2.34745e-06
-8.92638e-06
2.48572e-06
-1.14034e-05
2.47323e-06
-1.37369e-05
2.32993e-06
-1.58125e-05
2.07238e-06
1.72795e-06
-1.75432e-05
-7.22158e-07
6.0253e-07
-3.20786e-06
3.17878e-06
-7.22767e-06
5.50141e-06
-1.23741e-05
7.17472e-06
-1.82233e-05
8.19933e-06
-2.43817e-05
8.64713e-06
-3.04934e-05
8.58788e-06
-3.62368e-05
8.07613e-06
-4.13344e-05
7.17237e-06
5.97857e-06
-4.55829e-05
-1.62746e-06
2.2324e-06
-5.84984e-06
7.39901e-06
-1.20846e-05
1.17361e-05
-1.97658e-05
1.4856e-05
-2.83432e-05
1.67766e-05
-3.72955e-05
1.75994e-05
-4.61303e-05
1.74225e-05
-5.43854e-05
1.63311e-05
-6.16521e-05
1.44388e-05
1.19542e-05
-6.76279e-05
-2.35286e-06
4.58872e-06
-8.01792e-06
1.30611e-05
-1.60586e-05
1.97768e-05
-2.57398e-05
2.45375e-05
-3.64101e-05
2.74468e-05
-4.74619e-05
2.8651e-05
-5.83062e-05
2.82666e-05
-6.83672e-05
2.63919e-05
-7.71102e-05
2.31814e-05
1.89627e-05
-8.41191e-05
-2.85378e-06
7.44668e-06
-9.55261e-06
1.97564e-05
-1.88907e-05
2.91153e-05
-2.99945e-05
3.56422e-05
-4.21368e-05
3.95895e-05
-5.46519e-05
4.11666e-05
-6.68815e-05
4.04966e-05
-7.81492e-05
3.76598e-05
-8.7779e-05
3.28109e-05
2.63707e-05
-9.51876e-05
-3.11631e-06
1.05675e-05
-1.0378e-05
2.70143e-05
-2.04314e-05
3.91692e-05
-3.23215e-05
4.75333e-05
-4.52789e-05
5.25477e-05
-5.86104e-05
5.44988e-05
-7.16161e-05
5.3503e-05
-8.35346e-05
4.95788e-05
-9.35257e-05
4.28015e-05
3.35767e-05
-0.000100733
-3.13773e-06
1.37098e-05
-1.04636e-05
3.43362e-05
-2.06025e-05
4.93086e-05
-3.25821e-05
5.95141e-05
-4.56289e-05
6.55953e-05
-5.90541e-05
6.79249e-05
-7.21549e-05
6.66047e-05
-8.4122e-05
6.15472e-05
-9.39517e-05
5.26305e-05
3.99793e-05
-0.000100358
-2.92706e-06
1.6641e-05
-9.82346e-06
4.12288e-05
-1.94041e-05
5.88898e-05
-3.07332e-05
7.08443e-05
-4.30583e-05
7.79214e-05
-5.57183e-05
8.05859e-05
-6.80478e-05
7.89351e-05
-7.9259e-05
7.27602e-05
-8.82649e-05
6.16345e-05
4.48758e-05
-9.31752e-05
-2.51307e-06
1.91575e-05
-8.53725e-06
4.72496e-05
-1.69584e-05
6.73112e-05
-2.69047e-05
8.07916e-05
-3.76407e-05
8.86582e-05
-4.8515e-05
9.14612e-05
-5.8899e-05
8.93205e-05
-6.80787e-05
8.19445e-05
-7.50936e-05
6.86506e-05
4.72253e-05
-7.74739e-05
-1.95334e-06
2.11134e-05
-6.77559e-06
5.2069e-05
-1.35659e-05
7.41016e-05
-2.15154e-05
8.87416e-05
-2.98587e-05
9.70021e-05
-3.7854e-05
9.94574e-05
-4.47559e-05
9.62245e-05
-4.97074e-05
8.69079e-05
-5.16336e-05
7.06041e-05
-4.93176e-05
4.49006e-05
-1.88903e-05
1.34504e-06
2.02381e-09
-1.98751e-05
9.83347e-07
1.40543e-09
-2.05583e-05
6.82308e-07
9.21787e-10
-2.10142e-05
4.55308e-07
5.74486e-10
-2.13127e-05
2.9822e-07
3.46001e-10
-2.15119e-05
1.98954e-07
2.09129e-10
-2.16563e-05
1.44251e-07
1.38037e-10
-2.17794e-05
1.23022e-07
1.12945e-10
-2.19066e-05
1.2708e-07
1.20668e-10
-2.20571e-05
1.50366e-07
1.53238e-10
-2.22448e-05
1.87449e-07
2.05339e-10
-2.24767e-05
2.3166e-07
2.71544e-10
-2.27501e-05
2.73029e-07
3.43282e-10
-2.30468e-05
2.96278e-07
4.05891e-10
-2.33266e-05
2.79396e-07
4.37092e-10
-2.3521e-05
1.93995e-07
4.07025e-10
-2.35265e-05
5.26284e-09
2.55857e-10
-2.32174e-05
-3.09062e-07
-7.45674e-11
-2.24522e-05
-7.64516e-07
-6.46884e-10
-1.3355e-06
-1.49078e-09
-2.11152e-05
-4.88996e-05
4.66336e-06
-1.84535e-09
-5.13421e-05
3.42734e-06
-1.53575e-09
-5.30578e-05
2.39931e-06
-1.20793e-09
-5.42227e-05
1.6211e-06
-9.15544e-10
-5.50014e-05
1.07762e-06
-6.77219e-10
-5.55302e-05
7.28252e-07
-5.01584e-10
-5.59141e-05
5.28546e-07
-3.87117e-10
-5.62314e-05
4.40617e-07
-3.26147e-10
-5.65394e-05
4.35365e-07
-3.08478e-10
-5.68788e-05
4.90094e-07
-3.22513e-10
-5.72749e-05
5.83865e-07
-3.54506e-10
-5.77346e-05
6.91771e-07
-3.86623e-10
-5.824e-05
7.78832e-07
-3.94863e-10
-5.87377e-05
7.94342e-07
-3.47116e-10
-5.91264e-05
6.68289e-07
-2.05084e-10
-5.92452e-05
3.12727e-07
6.49878e-11
-5.88727e-05
-3.67703e-07
5.00038e-10
-5.77326e-05
-1.45024e-06
1.08988e-09
-5.55416e-05
-2.95737e-06
1.8001e-09
-4.8059e-06
2.46033e-09
-5.20736e-05
-7.22008e-05
9.23623e-06
-2.35555e-10
-7.54948e-05
6.72177e-06
-4.00688e-10
-7.77621e-05
4.66699e-06
-4.33815e-10
-7.92755e-05
3.13497e-06
-4.08926e-10
-8.0274e-05
2.07646e-06
-3.47134e-10
-8.09444e-05
1.39893e-06
-2.75793e-10
-8.14243e-05
1.00867e-06
-2.11571e-10
-8.18122e-05
8.28647e-07
-1.60764e-10
-8.21773e-05
8.00631e-07
-1.24047e-10
-8.25666e-05
8.79513e-07
-9.89838e-11
-8.30068e-05
1.02412e-06
-8.11503e-11
-8.35015e-05
1.18651e-06
-6.48442e-11
-8.40235e-05
1.30085e-06
-4.3509e-11
-8.45021e-05
1.273e-06
-8.78402e-12
-8.48075e-05
9.73628e-07
4.9949e-11
-8.47345e-05
2.39602e-07
1.35256e-10
-8.39952e-05
-1.10728e-06
2.39303e-10
-8.22271e-05
-3.21868e-06
3.73222e-10
-7.90399e-05
-6.14513e-06
5.08311e-10
-9.7381e-06
4.30609e-10
-7.41081e-05
-8.9251e-05
1.43682e-05
-3.57542e-10
-9.27561e-05
1.02275e-05
-5.74652e-10
-9.50419e-05
6.95335e-06
-5.65862e-10
-9.64925e-05
4.58606e-06
-5.00773e-10
-9.74072e-05
2.9916e-06
-3.97143e-10
-9.79976e-05
1.98957e-06
-2.93392e-10
-9.84058e-05
1.41705e-06
-2.07952e-10
-9.87259e-05
1.14892e-06
-1.43437e-10
-9.90202e-05
1.09505e-06
-9.74592e-11
-9.93289e-05
1.18832e-06
-6.63305e-11
-9.96742e-05
1.36945e-06
-4.60252e-11
-0.000100059
1.5709e-06
-3.24694e-11
-0.000100458
1.70024e-06
-2.18257e-11
-0.000100809
1.62405e-06
-8.10104e-12
-0.000100991
1.15511e-06
2.41439e-11
-0.000100799
4.82337e-08
9.06552e-11
-9.99301e-05
-1.97657e-06
1.53021e-10
-9.79634e-05
-5.18566e-06
2.75101e-10
-9.43964e-05
-9.71262e-06
5.04197e-10
-1.53863e-05
4.40273e-10
-8.87487e-05
-0.000100165
1.93459e-05
-9.75425e-10
-0.000103204
1.32683e-05
-1.08396e-09
-0.000104958
8.70772e-06
-8.67902e-10
-0.000105938
5.56679e-06
-6.75713e-10
-0.000106483
3.53657e-06
-4.73757e-10
-0.000106794
2.30103e-06
-3.10177e-10
-0.000106987
1.61021e-06
-1.97586e-10
-0.000107126
1.28879e-06
-1.252e-10
-0.000107251
1.2193e-06
-8.15313e-11
-0.000107382
1.31965e-06
-5.8039e-11
-0.000107534
1.52119e-06
-4.88056e-11
-0.00010771
1.74756e-06
-4.94411e-11
-0.000107903
1.89335e-06
-5.63912e-11
-0.000108081
1.80183e-06
-6.33654e-11
-0.000108169
1.24294e-06
-4.8631e-11
-0.000108017
-1.03842e-07
1.62475e-11
-0.000107355
-2.63841e-06
9.38241e-11
-0.000105742
-6.79876e-06
2.8085e-10
-0.000102542
-1.2913e-05
8.73024e-10
-2.09215e-05
1.21585e-09
-9.70084e-05
-0.00010476
2.3375e-05
-2.11327e-09
-0.000106598
1.51081e-05
-1.77281e-09
-0.000107278
9.38834e-06
-1.09089e-09
-0.000107436
5.72518e-06
-7.28209e-10
-0.000107396
3.49689e-06
-4.27065e-10
-0.000107299
2.20478e-06
-2.24217e-10
-0.000107197
1.50804e-06
-1.10794e-10
-0.000107101
1.19253e-06
-5.09509e-11
-0.000107009
1.12743e-06
-2.16596e-11
-0.000106918
1.22894e-06
-1.04136e-11
-0.000106829
1.43209e-06
-1.11217e-11
-0.000106748
1.66696e-06
-2.12203e-11
-0.00010669
1.835e-06
-4.03238e-11
-0.00010667
1.78233e-06
-6.67501e-11
-0.000106695
1.26751e-06
-7.62007e-11
-0.00010672
-7.80926e-08
-2.21216e-11
-0.00010659
-2.76908e-06
2.75168e-12
-0.000105913
-7.47581e-06
1.72934e-10
-0.000103931
-1.48963e-05
1.47807e-09
-2.5394e-05
3.04739e-09
-9.94617e-05
-0.000102448
2.54699e-05
-5.65911e-09
-0.00010228
1.49443e-05
-3.67182e-09
-0.000101426
8.5354e-06
-1.66489e-09
-0.000100552
4.85293e-06
-8.6647e-10
-9.9857e-05
2.80182e-06
-3.67009e-10
-9.93451e-05
1.69297e-06
-1.11987e-10
-9.8964e-05
1.12696e-06
-1.27853e-11
-9.86552e-05
8.8371e-07
1.97891e-11
-9.83711e-05
8.43296e-07
2.43218e-11
-9.80791e-05
9.3697e-07
1.58741e-11
-9.77638e-05
1.11675e-06
-6.33336e-13
-9.74301e-05
1.33328e-06
-2.46554e-11
-9.71097e-05
1.51469e-06
-5.71892e-11
-9.68678e-05
1.54052e-06
-1.00669e-10
-9.68039e-05
1.20369e-06
-1.32806e-10
-9.70315e-05
1.49607e-07
-6.42975e-11
-9.76017e-05
-2.199e-06
1.06666e-10
-9.83332e-05
-6.74475e-06
4.71149e-10
-9.84731e-05
-1.476e-05
3.52359e-09
-2.76504e-05
8.35878e-09
-9.6225e-05
-9.19203e-05
2.42245e-05
-9.64554e-09
-8.89769e-05
1.20047e-05
-3.83492e-09
-8.64162e-05
5.97543e-06
-7.47044e-10
-8.46103e-05
3.04732e-06
-2.93316e-10
-8.34268e-05
1.6183e-06
3.3719e-11
-8.26571e-05
9.23109e-07
1.50447e-10
-8.21276e-05
5.9732e-07
1.41236e-10
-8.17144e-05
4.70418e-07
1.15289e-10
-8.13335e-05
4.62287e-07
9.53274e-11
-8.09299e-05
5.33369e-07
8.14568e-11
-8.04733e-05
6.60016e-07
6.98686e-11
-7.99597e-05
8.19635e-07
5.49502e-11
-7.94225e-05
9.77458e-07
2.8032e-11
-7.89505e-05
1.06859e-06
-3.52496e-11
-7.87131e-05
9.66355e-07
-1.33324e-10
-7.89816e-05
4.18215e-07
-7.52251e-11
-8.00953e-05
-1.08539e-06
8.33018e-11
-8.23347e-05
-4.50492e-06
-4.30867e-10
-8.5376e-05
-1.17219e-05
3.14515e-09
-2.61366e-05
1.34252e-08
-8.69032e-05
-7.0392e-05
1.71546e-05
-1.21034e-08
-6.44788e-05
6.08613e-06
5.32237e-09
-6.0859e-05
2.34975e-06
5.87757e-09
-5.87936e-05
9.79486e-07
2.45855e-09
-5.76215e-05
4.44936e-07
1.25187e-09
-5.69298e-05
2.30714e-07
7.48174e-10
-5.64797e-05
1.46745e-07
4.57424e-10
-5.6132e-05
1.22394e-07
3.36548e-10
-5.58017e-05
1.31601e-07
3.18397e-10
-5.54333e-05
1.64677e-07
3.57249e-10
-5.49914e-05
2.17711e-07
4.30014e-10
-5.44601e-05
2.87803e-07
5.1728e-10
-5.38527e-05
3.69426e-07
5.8465e-10
-5.32334e-05
4.48745e-07
5.42532e-10
-5.27581e-05
4.90819e-07
2.71527e-10
-5.27522e-05
4.12495e-07
-1.77748e-10
-5.37554e-05
-8.06138e-08
-1.61401e-09
-5.67198e-05
-1.53331e-06
-7.22173e-09
-6.26583e-05
-5.7738e-06
-9.59684e-09
-1.82161e-05
1.4799e-08
-7.05935e-05
-3.20966e-05
-6.63092e-08
-2.59996e-05
-1.08707e-08
-2.36492e-05
-6.79097e-10
-2.2668e-05
-1.75395e-09
-2.22219e-05
-1.12914e-09
-2.19907e-05
-5.15765e-10
-2.18436e-05
-2.83842e-10
-2.17211e-05
-1.95538e-10
-2.15893e-05
-1.6878e-10
-2.14244e-05
-1.83493e-10
-2.12065e-05
-2.27043e-10
-2.09184e-05
-2.87354e-10
-2.05486e-05
-3.47614e-10
-2.00995e-05
-3.77421e-10
-1.96084e-05
-2.63282e-10
-1.91962e-05
3.03188e-10
-1.92777e-05
8.08284e-10
-2.08086e-05
-2.31588e-09
-2.65874e-05
4.99914e-09
8.24462e-08
-4.4886e-05
-1.88908e-05
1.34906e-06
1.74266e-12
-1.98754e-05
9.86048e-07
1.70609e-12
-2.05585e-05
6.84038e-07
1.38722e-12
-2.10143e-05
4.56355e-07
8.34153e-13
-2.13128e-05
2.98834e-07
3.18048e-13
-2.15119e-05
1.99323e-07
1.05533e-13
-2.16563e-05
1.44506e-07
3.28544e-14
-2.17794e-05
1.23253e-07
2.04365e-14
-2.19066e-05
1.27348e-07
-1.91993e-14
-2.20572e-05
1.50714e-07
-6.78744e-15
-2.22449e-05
1.87908e-07
4.14107e-14
-2.24769e-05
2.32245e-07
2.28233e-14
-2.27503e-05
2.73733e-07
-1.00002e-13
-2.30469e-05
2.97065e-07
-2.38012e-13
-2.33267e-05
2.80176e-07
-2.7342e-13
-2.35208e-05
1.94569e-07
-1.07261e-13
-2.35263e-05
5.72509e-09
3.34426e-13
-2.3217e-05
-3.09424e-07
9.97168e-13
-2.24518e-05
-7.65817e-07
1.81479e-12
-1.33837e-06
2.65003e-12
-2.11149e-05
-4.8897e-05
4.66351e-06
2.36363e-12
-5.13394e-05
3.42695e-06
2.14524e-12
-5.30554e-05
2.39885e-06
1.75569e-12
-5.42207e-05
1.62071e-06
1.18898e-12
-5.49999e-05
1.07734e-06
5.95024e-13
-5.55291e-05
7.28071e-07
2.84482e-13
-5.59135e-05
5.28435e-07
1.81437e-13
-5.62311e-05
4.40541e-07
1.82671e-13
-5.65393e-05
4.35288e-07
1.81787e-13
-5.68789e-05
4.89984e-07
1.26966e-13
-5.72751e-05
5.83688e-07
6.6634e-14
-5.77347e-05
6.91496e-07
-7.88092e-15
-5.82398e-05
7.78437e-07
-1.34599e-13
-5.87369e-05
7.93836e-07
-2.67972e-13
-5.91247e-05
6.67746e-07
-2.86558e-13
-5.92424e-05
3.12322e-07
-1.35701e-13
-5.88685e-05
-3.67671e-07
2.43169e-13
-5.77273e-05
-1.44948e-06
8.34486e-13
-5.55358e-05
-2.95554e-06
1.51186e-12
-4.80362e-06
2.16405e-12
-5.20681e-05
-7.21998e-05
9.23525e-06
2.48485e-12
-7.54932e-05
6.71993e-06
2.22432e-12
-7.77602e-05
4.66542e-06
1.96202e-12
-7.92737e-05
3.13382e-06
1.57559e-12
-8.02724e-05
2.07573e-06
1.03604e-12
-8.09431e-05
1.39851e-06
6.668e-13
-8.14234e-05
1.00846e-06
4.97818e-13
-8.18115e-05
8.28535e-07
4.33572e-13
-8.21769e-05
8.00538e-07
2.6911e-13
-8.25664e-05
8.79372e-07
9.23847e-15
-8.30066e-05
1.02387e-06
-2.33123e-13
-8.35013e-05
1.18609e-06
-3.92631e-13
-8.40231e-05
1.30021e-06
-5.11291e-13
-8.45014e-05
1.27215e-06
-6.09257e-13
-8.48063e-05
9.72664e-07
-6.2184e-13
-8.47327e-05
2.38818e-07
-3.87989e-13
-8.39925e-05
-1.1076e-06
6.74514e-14
-8.22239e-05
-3.21775e-06
6.42561e-13
-7.90367e-05
-6.14217e-06
1.21915e-12
-9.73434e-06
1.71908e-12
-7.41056e-05
-8.92504e-05
1.4365e-05
2.49894e-12
-9.27543e-05
1.02232e-05
2.11239e-12
-9.50396e-05
6.95023e-06
1.90232e-12
-9.64903e-05
4.58399e-06
1.69884e-12
-9.74054e-05
2.99038e-06
1.25892e-12
-9.79961e-05
1.98894e-06
8.68548e-13
-9.84046e-05
1.41677e-06
6.58768e-13
-9.8725e-05
1.14881e-06
5.8788e-13
-9.90196e-05
1.09499e-06
3.8163e-13
-9.93285e-05
1.18821e-06
-4.43804e-14
-9.96739e-05
1.36922e-06
-4.43164e-13
-0.000100058
1.57047e-06
-6.45571e-13
-0.000100458
1.69953e-06
-6.47462e-13
-0.000100809
1.62303e-06
-4.91762e-13
-0.00010099
1.15383e-06
-1.83974e-13
-0.000100798
4.72903e-08
2.54394e-13
-9.99282e-05
-1.97732e-06
7.25308e-13
-9.79609e-05
-5.18474e-06
1.07954e-12
-9.43943e-05
-9.70824e-06
1.20055e-12
-1.53804e-05
1.18279e-12
-8.87478e-05
-0.000100163
1.93376e-05
2.50154e-12
-0.000103201
1.326e-05
2.03285e-12
-0.000104955
8.70269e-06
1.69809e-12
-0.000105935
5.56387e-06
1.50087e-12
-0.00010648
3.53504e-06
1.1233e-12
-0.000106792
2.30036e-06
6.90546e-13
-0.000106985
1.60996e-06
4.18171e-13
-0.000107125
1.28873e-06
4.38273e-13
-0.00010725
1.21928e-06
4.48673e-13
-0.000107381
1.31958e-06
7.67817e-14
-0.000107533
1.52098e-06
-4.2161e-13
-0.00010771
1.74712e-06
-7.1264e-13
-0.000107903
1.89258e-06
-6.9062e-13
-0.000108081
1.80064e-06
-4.45845e-13
-0.000108168
1.24136e-06
-1.22415e-13
-0.000108016
-1.05103e-07
1.00168e-13
-0.000107353
-2.63983e-06
8.71472e-14
-0.000105739
-6.79824e-06
-1.24799e-13
-0.00010254
-1.29064e-05
-3.71022e-13
-2.09109e-05
-5.03856e-13
-9.70086e-05
-0.000104757
2.33556e-05
2.51148e-12
-0.000106593
1.50936e-05
2.14783e-12
-0.000107273
9.38196e-06
1.74927e-12
-0.000107432
5.72222e-06
1.49021e-12
-0.000107393
3.49568e-06
1.08155e-12
-0.000107298
2.20444e-06
5.22026e-13
-0.000107196
1.50804e-06
8.21744e-14
-0.0001071
1.19262e-06
5.30682e-14
-0.000107008
1.12751e-06
1.717e-13
-0.000106917
1.22894e-06
-5.02448e-14
-0.000106828
1.43195e-06
-4.53168e-13
-0.000106748
1.66659e-06
-6.97275e-13
-0.00010669
1.83427e-06
-6.49356e-13
-0.00010667
1.78109e-06
-4.68389e-13
-0.000106694
1.26566e-06
-4.66744e-13
-0.00010672
-7.95944e-08
-8.27776e-13
-0.000106588
-2.77165e-06
-1.40859e-12
-0.00010591
-7.47664e-06
-1.90747e-12
-0.000103928
-1.48863e-05
-2.14681e-12
-2.5372e-05
-2.13669e-12
-9.9464e-05
-0.00010244
2.54242e-05
2.30225e-12
-0.00010227
1.49199e-05
1.8811e-12
-0.000101419
8.52907e-06
1.52636e-12
-0.000100549
4.85123e-06
1.43958e-12
-9.98553e-05
2.80161e-06
1.28024e-12
-9.93442e-05
1.69324e-06
7.5477e-13
-9.89634e-05
1.12726e-06
1.36078e-13
-9.86547e-05
8.83933e-07
-6.32208e-14
-9.83706e-05
8.43421e-07
-7.61104e-14
-9.80786e-05
9.36987e-07
-2.46033e-13
-9.77633e-05
1.11663e-06
-5.36297e-13
-9.74297e-05
1.33294e-06
-6.26681e-13
-9.71095e-05
1.514e-06
-4.65412e-13
-9.68678e-05
1.53928e-06
-3.95096e-13
-9.68039e-05
1.20167e-06
-7.68617e-13
-9.7031e-05
1.47457e-07
-1.4789e-12
-9.75999e-05
-2.20267e-06
-2.01055e-12
-9.83287e-05
-6.74732e-06
-2.17965e-12
-9.84685e-05
-1.4743e-05
-2.34937e-12
-2.75985e-05
-2.25106e-12
-9.62337e-05
-9.19066e-05
2.41374e-05
2.17828e-12
-8.89671e-05
1.19765e-05
1.62412e-12
-8.64128e-05
5.97411e-06
1.22666e-12
-8.46099e-05
3.04801e-06
1.03865e-12
-8.34272e-05
1.61889e-06
9.91777e-13
-8.26574e-05
9.23623e-07
8.11357e-13
-8.21276e-05
5.97644e-07
4.35214e-13
-8.17142e-05
4.70592e-07
1.95803e-13
-8.1333e-05
4.6237e-07
4.86937e-14
-8.09293e-05
5.33385e-07
-2.42901e-13
-8.04726e-05
6.59962e-07
-4.86668e-13
-7.99591e-05
8.19478e-07
-4.87215e-13
-7.94222e-05
9.77122e-07
-4.26702e-13
-7.89508e-05
1.0679e-06
-7.2092e-13
-7.87143e-05
9.65028e-07
-1.42875e-12
-7.89832e-05
4.16241e-07
-2.07015e-12
-8.00982e-05
-1.08755e-06
-2.14696e-12
-8.23365e-05
-4.50949e-06
-2.09115e-12
-8.5373e-05
-1.17033e-05
-2.61112e-12
-2.60405e-05
-2.87884e-12
-8.69176e-05
-7.03751e-05
1.70778e-05
2.49747e-12
-6.44863e-05
6.09304e-06
1.71559e-12
-6.08672e-05
2.36097e-06
1.23289e-12
-5.87996e-05
9.82788e-07
1.23517e-12
-5.76249e-05
4.4551e-07
1.06066e-12
-5.69314e-05
2.30868e-07
6.68038e-13
-5.64802e-05
1.46873e-07
4.11564e-13
-5.61318e-05
1.22574e-07
2.87872e-13
-5.5801e-05
1.31877e-07
1.36404e-13
-5.54324e-05
1.65092e-07
-9.835e-14
-5.49903e-05
2.18322e-07
-2.31924e-13
-5.4459e-05
2.8868e-07
-2.78423e-13
-5.38519e-05
3.70652e-07
-5.70096e-13
-5.32339e-05
4.50432e-07
-1.298e-12
-5.27616e-05
4.92936e-07
-2.16684e-12
-5.27582e-05
4.12655e-07
-2.69427e-12
-5.37691e-05
-7.82098e-08
-2.87351e-12
-5.67439e-05
-1.5419e-06
-3.42334e-12
-6.26717e-05
-5.78516e-06
-4.55776e-12
-1.81538e-05
-5.60388e-12
-7.05436e-05
-3.20878e-05
1.51249e-12
-2.60056e-05
1.20944e-12
-2.36453e-05
1.26412e-12
-2.26643e-05
1.02423e-12
-2.22199e-05
9.58489e-13
-2.19895e-05
7.09844e-13
-2.1843e-05
5.15641e-13
-2.17206e-05
3.94253e-13
-2.15889e-05
2.39996e-13
-2.1424e-05
8.97485e-14
-2.12059e-05
9.51891e-15
-2.09175e-05
-1.89013e-13
-2.05472e-05
-7.48494e-13
-2.00971e-05
-1.55076e-12
-1.96044e-05
-2.19794e-12
-1.91915e-05
-2.53389e-12
-1.92689e-05
-2.98922e-12
-2.08131e-05
-4.56633e-12
-2.65932e-05
-6.51425e-12
-8.47151e-12
-4.46645e-05
-1.88907e-05
1.34906e-06
-2.02165e-09
-1.98754e-05
9.86047e-07
-1.40319e-09
-2.05585e-05
6.84037e-07
-9.19842e-10
-2.10143e-05
4.56354e-07
-5.73161e-10
-2.13128e-05
2.98834e-07
-3.4534e-10
-2.15119e-05
1.99323e-07
-2.08969e-10
-2.16562e-05
1.44506e-07
-1.38116e-10
-2.17794e-05
1.23253e-07
-1.13234e-10
-2.19066e-05
1.27348e-07
-1.2112e-10
-2.20572e-05
1.50713e-07
-1.53659e-10
-2.22449e-05
1.87907e-07
-2.05592e-10
-2.24768e-05
2.32243e-07
-2.71633e-10
-2.27502e-05
2.73732e-07
-3.43337e-10
-2.30469e-05
2.97063e-07
-4.06057e-10
-2.33266e-05
2.80174e-07
-4.3733e-10
-2.35208e-05
1.94569e-07
-4.07061e-10
-2.35263e-05
5.72585e-09
-2.55319e-10
-2.32169e-05
-3.09422e-07
7.60286e-11
-2.24517e-05
-7.65813e-07
6.49544e-10
-1.33836e-06
1.49467e-09
-2.11149e-05
-4.88969e-05
4.66351e-06
1.8485e-09
-5.13393e-05
3.42695e-06
1.53867e-09
-5.30554e-05
2.39885e-06
1.21034e-09
-5.42206e-05
1.62071e-06
9.17284e-10
-5.49998e-05
1.07734e-06
6.7822e-10
-5.55291e-05
7.2807e-07
5.01905e-10
-5.59134e-05
5.28434e-07
3.87199e-10
-5.6231e-05
4.40539e-07
3.26218e-10
-5.65392e-05