/*--------------------------------*- C++ -*----------------------------------*\
| =========                 |                                                 |
| \\      /  F ield         | OpenFOAM: The Open Source CFD Toolbox           |
|  \\    /   O peration     | Version:  2.4.0                                 |
|   \\  /    A nd           | Web:      www.OpenFOAM.org                      |
|    \\/     M anipulation  |                                                 |
\*---------------------------------------------------------------------------*/
FoamFile
{
    version     2.0;
    format      ascii;
    class       volVectorField;
    location    "1.6";
    object      U;
}
// * * * * * * * * * * * * * * * * * * * * * * * * * * * * * * * * * * * * * //

dimensions      [0 1 -1 0 0 0 0];

internalField   nonuniform List<vector> 
4800
(
(0.000276269 -0.00027927 3.41847e-07)
(-4.77319e-05 0.000175782 0.000207498)
(-0.0018777 0.000658872 0.000414673)
(-0.00476632 0.000980582 0.000559366)
(-0.00833763 0.00116066 0.000600113)
(-0.0122691 0.00123607 0.000517955)
(-0.0162937 0.00123287 0.000307426)
(-0.020187 0.00116403 -3.0331e-05)
(-0.0237507 0.00103659 -0.000488731)
(-0.0268178 0.000862261 -0.00105452)
(-0.000199372 4.82335e-05 -0.000205996)
(-0.0024516 0.00237151 5.0261e-06)
(-0.00782134 0.00459514 0.000156943)
(-0.0153358 0.00618047 0.000237332)
(-0.0242875 0.00713673 0.000229296)
(-0.0340379 0.00755681 0.000117781)
(-0.0439866 0.00752306 -0.000103207)
(-0.0535887 0.00709181 -0.000435232)
(-0.0623566 0.00631541 -0.000876063)
(-0.0698891 0.00527909 -0.00141834)
(-0.000760113 0.00199349 -0.000417273)
(-0.00500494 0.00784583 -0.000140658)
(-0.0136306 0.012979 1.17766e-05)
(-0.0250245 0.0166999 7.18789e-05)
(-0.0382407 0.018996 4.74997e-05)
(-0.052465 0.0200002 -7.0021e-05)
(-0.0668863 0.0198484 -0.000284547)
(-0.0807343 0.0186551 -0.000598998)
(-0.0932966 0.0165577 -0.00101522)
(-0.103973 0.0137922 -0.00153152)
(-0.00119759 0.00525226 -0.000551096)
(-0.0070874 0.0159056 -0.000194932)
(-0.0184141 0.0246151 -2.06577e-05)
(-0.0329219 0.0308552 4.10697e-05)
(-0.0494504 0.0346936 1.82377e-05)
(-0.0670671 0.0363202 -9.23904e-05)
(-0.0848209 0.0359099 -0.000293149)
(-0.101773 0.0336179 -0.00058931)
(-0.117013 0.0296666 -0.000988372)
(-0.129728 0.0244807 -0.0014965)
(-0.00148964 0.00949846 -0.000538936)
(-0.00854277 0.0259545 -0.000114313)
(-0.0218177 0.0387257 8.28793e-05)
(-0.0385554 0.0477144 0.000155507)
(-0.0574262 0.0531843 0.000145897)
(-0.077418 0.0554133 5.3931e-05)
(-0.0974868 0.0545983 -0.000123528)
(-0.116564 0.0508968 -0.000396726)
(-0.133549 0.0445778 -0.0007823)
(-0.147341 0.0362516 -0.00130057)
(-0.00163649 0.0143618 -0.00033695)
(-0.00931234 0.0372974 0.000138472)
(-0.0236589 0.05447 0.000354289)
(-0.0416299 0.0663642 0.000444174)
(-0.0617967 0.0735253 0.000458741)
(-0.083109 0.0763463 0.000398504)
(-0.104478 0.0750248 0.000256568)
(-0.12475 0.0696604 1.41467e-05)
(-0.142645 0.060478 -0.000359709)
(-0.156659 0.0481867 -0.000913369)
(-0.00164203 0.0194527 7.49132e-05)
(-0.00937921 0.0491474 0.000581217)
(-0.023856 0.070869 0.000808588)
(-0.041975 0.0857378 0.000920238)
(-0.0622878 0.0946224 0.000969642)
(-0.0837491 0.0980486 0.000956096)
(-0.105279 0.0961935 0.000866217)
(-0.125709 0.0890204 0.000669063)
(-0.143664 0.0765514 0.000313834)
(-0.157094 0.0593291 -0.000304738)
(-0.00151453 0.0243862 0.000695596)
(-0.00876642 0.0606966 0.00121325)
(-0.0224295 0.0868869 0.00144415)
(-0.0395695 0.104673 0.0015809)
(-0.0587797 0.115244 0.00167557)
(-0.0790445 0.119272 0.00172581)
(-0.0993325 0.116907 0.00171046)
(-0.118554 0.107911 0.00158445)
(-0.135455 0.0918925 0.00127619)
(-0.147402 0.0686339 0.000570482)
(-0.00127254 0.0288053 0.00150397)
(-0.00755721 0.0711769 0.00201613)
(-0.0195477 0.101502 0.00224259)
(-0.0346327 0.121965 0.00240599)
(-0.0514663 0.134032 0.00255418)
(-0.0690331 0.138525 0.0026845)
(-0.0863161 0.135621 0.00276881)
(-0.102318 0.124913 0.00274714)
(-0.116278 0.105536 0.00253742)
(-0.125386 0.0756853 0.00172873)
(-0.00095122 0.0324197 0.00246101)
(-0.00591868 0.0799442 0.00295591)
(-0.0155847 0.113816 0.0031704)
(-0.027749 0.136479 0.00335867)
(-0.0410961 0.149566 0.00356364)
(-0.0544962 0.154019 0.00378725)
(-0.0667355 0.150085 0.00400371)
(-0.0765397 0.137319 0.00414983)
(-0.0836281 0.11467 0.00419589)
(-0.0869479 0.0793162 0.00354654)
(0.000280941 -0.00028372 1.74461e-07)
(-4.10297e-05 0.000170029 1.34983e-06)
(-0.00187416 0.000645326 1.96105e-06)
(-0.00476385 0.000961617 2.49175e-06)
(-0.00833624 0.00113878 2.8043e-06)
(-0.0122686 0.0012128 2.92692e-06)
(-0.0162939 0.00120961 2.92605e-06)
(-0.0201881 0.00114206 2.80273e-06)
(-0.0237529 0.00101695 2.53563e-06)
(-0.0268209 0.000845562 2.10969e-06)
(-0.000192398 4.10786e-05 -1.0319e-06)
(-0.00244884 0.00236948 3.11956e-07)
(-0.00782854 0.00458433 -1.14019e-06)
(-0.0153402 0.00616483 -1.78801e-06)
(-0.0242895 0.00711943 -2.10474e-06)
(-0.0340385 0.00753878 -2.30431e-06)
(-0.0439855 0.00750521 -2.30769e-06)
(-0.0535866 0.00707512 -2.14374e-06)
(-0.0623545 0.00630069 -1.88058e-06)
(-0.0698877 0.00526639 -1.62245e-06)
(-0.000744857 0.00198823 -1.85146e-06)
(-0.00499419 0.00785205 1.69395e-06)
(-0.0136371 0.0129822 8.56952e-08)
(-0.0250264 0.0167032 -6.11593e-08)
(-0.0382406 0.0190011 9.84583e-08)
(-0.0524646 0.0200063 9.24945e-08)
(-0.0668854 0.019855 9.97803e-08)
(-0.080733 0.0186618 1.41014e-07)
(-0.0932962 0.0165645 1.86867e-07)
(-0.103975 0.0137977 1.11431e-07)
(-0.00117588 0.00524782 -2.6752e-06)
(-0.00707183 0.0159093 2.34951e-06)
(-0.0184226 0.0246143 7.3595e-09)
(-0.0329235 0.0308528 -1.83486e-07)
(-0.0494492 0.0346917 9.21866e-08)
(-0.0670661 0.0363186 1.25063e-07)
(-0.0848193 0.0359088 1.55072e-07)
(-0.101771 0.0336177 2.30732e-07)
(-0.117013 0.0296685 3.70739e-07)
(-0.129731 0.0244828 3.20879e-07)
(-0.00146384 0.00949571 -3.24059e-06)
(-0.00852521 0.0259565 2.73382e-06)
(-0.0218292 0.0387238 -2.92546e-07)
(-0.038558 0.0477105 -6.44325e-07)
(-0.057425 0.05318 -3.70098e-07)
(-0.0774166 0.055409 -3.47624e-07)
(-0.0974843 0.0545941 -3.03601e-07)
(-0.11656 0.0508938 -1.61051e-07)
(-0.133546 0.0445791 2.55055e-07)
(-0.147348 0.0362548 4.53812e-07)
(-0.00160848 0.014361 -3.50641e-06)
(-0.0092939 0.0372984 3.0073e-06)
(-0.0236725 0.0544689 -3.80706e-07)
(-0.0416334 0.0663618 -8.15218e-07)
(-0.0617958 0.0735223 -5.46775e-07)
(-0.0831078 0.0763428 -5.39455e-07)
(-0.104475 0.0750208 -5.23493e-07)
(-0.124742 0.0696569 -4.11164e-07)
(-0.142638 0.0604822 4.20824e-07)
(-0.156673 0.0481978 1.22012e-06)
(-0.00161386 0.0194538 -3.50086e-06)
(-0.00936107 0.0491474 3.0704e-06)
(-0.0238705 0.0708686 -4.05183e-07)
(-0.0419794 0.0857367 -8.8956e-07)
(-0.0622875 0.0946205 -6.63886e-07)
(-0.0837486 0.098046 -6.89468e-07)
(-0.105276 0.0961896 -7.65884e-07)
(-0.125697 0.0890156 -9.2551e-07)
(-0.143647 0.0765612 5.46655e-07)
(-0.157122 0.0593652 3.05847e-06)
(-0.00148813 0.0243892 -3.22351e-06)
(-0.00874974 0.0606957 2.93615e-06)
(-0.0224438 0.0868874 -3.69813e-07)
(-0.0395744 0.104673 -8.67151e-07)
(-0.0587803 0.115244 -7.02535e-07)
(-0.0790452 0.11927 -7.18485e-07)
(-0.0993315 0.116901 -8.13985e-07)
(-0.118531 0.107895 -1.45586e-06)
(-0.135405 0.0918878 1.56709e-06)
(-0.147447 0.0686913 1.06927e-05)
(-0.00124959 0.0288098 -2.69152e-06)
(-0.00754291 0.0711755 2.6549e-06)
(-0.0195608 0.101504 -2.55157e-07)
(-0.0346378 0.121968 -7.32467e-07)
(-0.0514682 0.134034 -6.80958e-07)
(-0.0690374 0.138527 -7.6168e-07)
(-0.0863265 0.135617 -1.04806e-06)
(-0.102301 0.12488 -3.60157e-06)
(-0.116177 0.105463 -1.00372e-06)
(-0.125432 0.0756541 2.40031e-05)
(-0.000932807 0.0324251 -1.96249e-06)
(-0.00590711 0.0799427 2.29403e-06)
(-0.0155949 0.113819 -3.50077e-08)
(-0.0277528 0.136486 -4.17197e-07)
(-0.0410976 0.149577 -4.64486e-07)
(-0.0545031 0.15404 -7.2824e-07)
(-0.0667675 0.150125 -1.5885e-06)
(-0.0765795 0.137379 -9.19909e-06)
(-0.0835444 0.11473 -2.12653e-05)
(-0.0870242 0.0794275 6.74074e-06)
(0.000280924 -0.000283735 -1.65051e-08)
(-4.10578e-05 0.000170022 -1.28373e-06)
(-0.00187417 0.000645323 -1.9298e-06)
(-0.00476385 0.000961615 -2.47398e-06)
(-0.00833623 0.00113877 -2.79218e-06)
(-0.0122686 0.0012128 -2.91852e-06)
(-0.0162939 0.00120961 -2.91849e-06)
(-0.020188 0.00114206 -2.79504e-06)
(-0.0237528 0.00101695 -2.52972e-06)
(-0.0268209 0.000845562 -2.10533e-06)
(-0.000192404 4.10528e-05 1.10177e-06)
(-0.00244885 0.00236947 -2.67979e-07)
(-0.00782853 0.00458432 1.16785e-06)
(-0.0153402 0.00616482 1.80663e-06)
(-0.0242895 0.00711942 2.11892e-06)
(-0.0340384 0.00753877 2.31557e-06)
(-0.0439855 0.00750521 2.31794e-06)
(-0.0535865 0.00707511 2.15344e-06)
(-0.0623544 0.00630068 1.88843e-06)
(-0.0698876 0.00526639 1.62881e-06)
(-0.000744857 0.00198822 1.88775e-06)
(-0.00499418 0.00785203 -1.66624e-06)
(-0.0136371 0.0129821 -6.39898e-08)
(-0.0250264 0.0167032 7.83006e-08)
(-0.0382405 0.0190011 -8.39386e-08)
(-0.0524645 0.0200063 -8.06919e-08)
(-0.0668852 0.0198549 -8.87646e-08)
(-0.0807328 0.0186618 -1.30159e-07)
(-0.093296 0.0165645 -1.77778e-07)
(-0.103975 0.0137977 -1.04208e-07)
(-0.00117587 0.00524781 2.70031e-06)
(-0.00707182 0.0159093 -2.32761e-06)
(-0.0184225 0.0246143 1.21121e-08)
(-0.0329234 0.0308528 2.00399e-07)
(-0.0494491 0.0346916 -7.6724e-08)
(-0.0670659 0.0363186 -1.11775e-07)
(-0.0848191 0.0359087 -1.42382e-07)
(-0.10177 0.0336177 -2.18335e-07)
(-0.117013 0.0296685 -3.60447e-07)
(-0.129731 0.0244828 -3.12956e-07)
(-0.00146383 0.0094957 3.26226e-06)
(-0.00852519 0.0259565 -2.71419e-06)
(-0.0218291 0.0387237 3.109e-07)
(-0.0385579 0.0477104 6.61137e-07)
(-0.0574249 0.05318 3.86192e-07)
(-0.0774165 0.0554089 3.61935e-07)
(-0.0974841 0.0545941 3.17142e-07)
(-0.11656 0.0508938 1.73823e-07)
(-0.133546 0.044579 -2.44643e-07)
(-0.147347 0.0362548 -4.45874e-07)
(-0.00160848 0.014361 3.52746e-06)
(-0.00929388 0.0372984 -2.98843e-06)
(-0.0236724 0.0544688 3.9928e-07)
(-0.0416333 0.0663617 8.32831e-07)
(-0.0617957 0.0735222 5.63838e-07)
(-0.0831077 0.0763427 5.54672e-07)
(-0.104475 0.0750207 5.37365e-07)
(-0.124742 0.0696569 4.23613e-07)
(-0.142638 0.0604822 -4.10897e-07)
(-0.156672 0.0481978 -1.21246e-06)
(-0.00161385 0.0194538 3.52052e-06)
(-0.00936104 0.0491473 -3.05247e-06)
(-0.0238704 0.0708685 4.2326e-07)
(-0.0419793 0.0857366 9.06799e-07)
(-0.0622874 0.0946204 6.80378e-07)
(-0.0837484 0.0980459 7.03981e-07)
(-0.105276 0.0961895 7.78692e-07)
(-0.125696 0.0890155 9.36599e-07)
(-0.143647 0.0765612 -5.37939e-07)
(-0.157122 0.0593652 -3.05171e-06)
(-0.00148813 0.0243891 3.24132e-06)
(-0.00874972 0.0606956 -2.91921e-06)
(-0.0224437 0.0868872 3.86853e-07)
(-0.0395743 0.104673 8.83219e-07)
(-0.0587802 0.115244 7.1751e-07)
(-0.0790451 0.11927 7.31509e-07)
(-0.0993314 0.116901 8.25515e-07)
(-0.118531 0.107895 1.46602e-06)
(-0.135405 0.0918878 -1.55874e-06)
(-0.147447 0.0686913 -1.06861e-05)
(-0.00124958 0.0288097 2.70853e-06)
(-0.00754289 0.0711754 -2.63834e-06)
(-0.0195607 0.101504 2.71668e-07)
(-0.0346378 0.121968 7.47851e-07)
(-0.0514681 0.134034 6.94887e-07)
(-0.0690374 0.138527 7.73875e-07)
(-0.0863264 0.135617 1.05936e-06)
(-0.102301 0.12488 3.61198e-06)
(-0.116177 0.105463 1.01255e-06)
(-0.125432 0.0756541 -2.3996e-05)
(-0.000932803 0.0324251 1.97824e-06)
(-0.0059071 0.0799426 -2.2785e-06)
(-0.0155949 0.113819 5.04961e-08)
(-0.0277528 0.136486 4.31582e-07)
(-0.0410975 0.149577 4.77324e-07)
(-0.054503 0.15404 7.39808e-07)
(-0.0667674 0.150125 1.5998e-06)
(-0.0765795 0.137379 9.20987e-06)
(-0.0835444 0.11473 2.12742e-05)
(-0.0870242 0.0794276 -6.7331e-06)
(0.00027617 -0.000279365 -5.07903e-07)
(-4.78767e-05 0.000175754 -0.000207568)
(-0.00187775 0.000658861 -0.000414706)
(-0.00476632 0.000980577 -0.000559385)
(-0.0083376 0.00116066 -0.000600126)
(-0.012269 0.00123607 -0.000517964)
(-0.0162936 0.00123287 -0.000307434)
(-0.0201869 0.00116402 3.03229e-05)
(-0.0237506 0.00103659 0.000488725)
(-0.0268177 0.00086226 0.00105451)
(-0.000199398 4.80931e-05 0.000205923)
(-0.00245164 0.00237145 -5.07259e-06)
(-0.00782133 0.00459511 -0.000156973)
(-0.0153358 0.00618044 -0.000237351)
(-0.0242874 0.0071367 -0.000229311)
(-0.0340378 0.00755679 -0.000117793)
(-0.0439864 0.00752304 0.000103197)
(-0.0535884 0.0070918 0.000435222)
(-0.0623563 0.0063154 0.000876055)
(-0.0698888 0.00527908 0.00141833)
(-0.000760116 0.00199344 0.000417235)
(-0.00500493 0.00784578 0.000140629)
(-0.0136306 0.0129789 -1.17995e-05)
(-0.0250244 0.0166998 -7.1897e-05)
(-0.0382405 0.0189959 -4.7515e-05)
(-0.0524647 0.0200001 7.00085e-05)
(-0.0668861 0.0198484 0.000284535)
(-0.080734 0.0186551 0.000598986)
(-0.0932962 0.0165577 0.00101521)
(-0.103973 0.0137921 0.00153151)
(-0.00119758 0.00525223 0.000551069)
(-0.00708735 0.0159055 0.000194909)
(-0.018414 0.024615 2.06371e-05)
(-0.0329217 0.0308551 -4.10876e-05)
(-0.0494501 0.0346935 -1.8254e-05)
(-0.0670668 0.03632 9.23763e-05)
(-0.0848205 0.0359098 0.000293136)
(-0.101772 0.0336178 0.000589297)
(-0.117013 0.0296666 0.000988361)
(-0.129727 0.0244807 0.0014965)
(-0.00148963 0.00949841 0.000538913)
(-0.00854271 0.0259544 0.000114292)
(-0.0218176 0.0387256 -8.28987e-05)
(-0.0385552 0.0477142 -0.000155524)
(-0.0574259 0.0531841 -0.000145914)
(-0.0774177 0.0554132 -5.39461e-05)
(-0.0974864 0.0545982 0.000123514)
(-0.116564 0.0508967 0.000396712)
(-0.133548 0.0445778 0.000782289)
(-0.14734 0.0362515 0.00130056)
(-0.00163647 0.0143617 0.000336928)
(-0.00931227 0.0372972 -0.000138492)
(-0.0236588 0.0544698 -0.000354309)
(-0.0416297 0.066364 -0.000444193)
(-0.0617964 0.0735251 -0.000458759)
(-0.0831087 0.0763461 -0.00039852)
(-0.104478 0.0750247 -0.000256582)
(-0.124749 0.0696603 -1.41598e-05)
(-0.142645 0.0604779 0.000359699)
(-0.156658 0.0481866 0.000913361)
(-0.00164201 0.0194526 -7.4934e-05)
(-0.00937914 0.0491472 -0.000581236)
(-0.0238558 0.0708688 -0.000808607)
(-0.0419748 0.0857375 -0.000920256)
(-0.0622875 0.0946221 -0.00096966)
(-0.0837487 0.0980483 -0.000956112)
(-0.105278 0.0961933 -0.000866231)
(-0.125709 0.0890203 -0.000669074)
(-0.143664 0.0765512 -0.000313844)
(-0.157094 0.059329 0.00030473)
(-0.00151451 0.0243861 -0.000695614)
(-0.00876636 0.0606964 -0.00121326)
(-0.0224293 0.0868866 -0.00144416)
(-0.0395694 0.104672 -0.00158091)
(-0.0587795 0.115244 -0.00167559)
(-0.0790443 0.119271 -0.00172582)
(-0.0993322 0.116907 -0.00171047)
(-0.118553 0.107911 -0.00158446)
(-0.135454 0.0918924 -0.0012762)
(-0.147402 0.0686339 -0.000570489)
(-0.00127252 0.0288051 -0.00150399)
(-0.00755716 0.0711766 -0.00201615)
(-0.0195476 0.101502 -0.00224261)
(-0.0346325 0.121965 -0.00240601)
(-0.0514661 0.134031 -0.0025542)
(-0.0690329 0.138525 -0.00268451)
(-0.0863159 0.135621 -0.00276882)
(-0.102318 0.124913 -0.00274715)
(-0.116278 0.105536 -0.00253743)
(-0.125386 0.0756853 -0.00172874)
(-0.00095121 0.0324196 -0.00246103)
(-0.00591865 0.0799439 -0.00295593)
(-0.0155846 0.113816 -0.00317042)
(-0.0277489 0.136478 -0.00335869)
(-0.041096 0.149565 -0.00356365)
(-0.0544961 0.154019 -0.00378726)
(-0.0667354 0.150085 -0.00400373)
(-0.0765396 0.137318 -0.00414984)
(-0.083628 0.11467 -0.0041959)
(-0.0869479 0.0793162 -0.00354655)
(-0.0292822 0.00066554 -0.001707)
(-0.0311323 0.000479186 -0.00242109)
(-0.0324421 0.000325059 -0.00317433)
(-0.0333274 0.000210441 -0.00394992)
(-0.0339081 0.000132867 -0.0047368)
(-0.034288 8.55646e-05 -0.00552864)
(-0.034549 6.13332e-05 -0.00632245)
(-0.0347526 5.44354e-05 -0.00711754)
(-0.0349452 6.09699e-05 -0.00791488)
(-0.0351619 7.84123e-05 -0.00871687)
(-0.0354292 0.000104732 -0.00952734)
(-0.0357648 0.000137273 -0.0103517)
(-0.0361735 0.000171476 -0.0111968)
(-0.0366406 0.00019955 -0.0120711)
(-0.0371216 0.000209377 -0.0129837)
(-0.0375309 0.000184387 -0.0139425)
(-0.0377306 0.000104835 -0.0149525)
(-0.0375334 -5.10321e-05 -0.0160099)
(-0.0367165 -0.000290455 -0.0171012)
(-0.0350608 -0.000603247 -0.0181965)
(-0.0759424 0.00412753 -0.00204785)
(-0.0805042 0.00303692 -0.00274474)
(-0.0837641 0.0021242 -0.00349066)
(-0.0860011 0.0014308 -0.0042706)
(-0.0874978 0.000946454 -0.00507315)
(-0.0884982 0.0006366 -0.0058904)
(-0.0891942 0.000462276 -0.00671745)
(-0.0897301 0.000390127 -0.00755176)
(-0.0902123 0.000394818 -0.00839277)
(-0.0907183 0.000457009 -0.00924156)
(-0.0913009 0.000559078 -0.0101007)
(-0.0919878 0.000679682 -0.0109743)
(-0.0927735 0.000787841 -0.0118674)
(-0.0936053 0.000837312 -0.0127862)
(-0.0943639 0.000762831 -0.0137367)
(-0.094843 0.000481193 -0.0147239)
(-0.0947352 -9.90589e-05 -0.0157493)
(-0.0936329 -0.00105739 -0.016809)
(-0.0910674 -0.00241667 -0.0178891)
(-0.0865979 -0.00410399 -0.0189645)
(-0.112402 0.0107491 -0.00213779)
(-0.11861 0.00789743 -0.00281365)
(-0.122948 0.00553126 -0.0035417)
(-0.12587 0.00374233 -0.00430761)
(-0.127797 0.00249264 -0.00509984)
(-0.12907 0.00168721 -0.00591003)
(-0.129946 0.00122319 -0.00673256)
(-0.130609 0.00101311 -0.00756416)
(-0.13119 0.000989484 -0.00840344)
(-0.13178 0.00109931 -0.00925062)
(-0.132438 0.00129357 -0.0101073)
(-0.13319 0.00151455 -0.0109764)
(-0.134022 0.0016823 -0.0118617)
(-0.134861 0.00168239 -0.0127678)
(-0.135553 0.00135819 -0.0136997)
(-0.135835 0.000514301 -0.0146615)
(-0.135312 -0.00105923 -0.0156553)
(-0.133456 -0.00353341 -0.0166791)
(-0.129637 -0.00695499 -0.0177236)
(-0.12323 -0.0111374 -0.0187696)
(-0.139404 0.0188134 -0.00210691)
(-0.146163 0.0136103 -0.00278977)
(-0.15063 0.00939741 -0.00352488)
(-0.153483 0.0062829 -0.00429709)
(-0.155278 0.00414585 -0.00509436)
(-0.156416 0.00278407 -0.00590823)
(-0.157171 0.00199986 -0.0067332)
(-0.157725 0.00163383 -0.00756598)
(-0.158198 0.00156702 -0.00840497)
(-0.158669 0.00170809 -0.00924991)
(-0.159187 0.00197442 -0.0101017)
(-0.159775 0.00227063 -0.010962)
(-0.160419 0.00246652 -0.0118337)
(-0.161054 0.00237627 -0.0127202)
(-0.161543 0.00174406 -0.0136258)
(-0.161634 0.000245334 -0.0145555)
(-0.160929 -0.00247979 -0.0155136)
(-0.158845 -0.0067427 -0.0165036)
(-0.15462 -0.0126611 -0.0175239)
(-0.147392 -0.019955 -0.0185645)
(-0.157163 0.0271743 -0.00195037)
(-0.163315 0.0191039 -0.00267337)
(-0.16691 0.0128317 -0.00344283)
(-0.168934 0.00837084 -0.00424245)
(-0.170055 0.00540917 -0.00505993)
(-0.170682 0.00356886 -0.00588784)
(-0.171054 0.00252481 -0.00672192)
(-0.171302 0.00203541 -0.00755983)
(-0.171502 0.00193116 -0.00840043)
(-0.1717 0.00208859 -0.00924336)
(-0.171923 0.00240078 -0.0100888)
(-0.172187 0.00274706 -0.0109376)
(-0.17249 0.0029622 -0.0117911)
(-0.172807 0.00280565 -0.0126516)
(-0.173062 0.0019352 -0.0135226)
(-0.173092 -0.000104617 -0.0144099)
(-0.17258 -0.0038562 -0.015322)
(-0.170975 -0.0098498 -0.0162693)
(-0.167413 -0.0183995 -0.0172627)
(-0.16068 -0.0292532 -0.0183102)
(-0.165465 0.0347024 -0.00166267)
(-0.169704 0.0232936 -0.00247218)
(-0.171387 0.0149717 -0.00330772)
(-0.171886 0.00939254 -0.00415595)
(-0.171902 0.00587095 -0.00500686)
(-0.171762 0.00376919 -0.00585665)
(-0.171595 0.00261111 -0.00670436)
(-0.171435 0.00207739 -0.00754987)
(-0.171286 0.00196211 -0.00839321)
(-0.171141 0.00212652 -0.00923432)
(-0.170996 0.00245811 -0.0100729)
(-0.170856 0.0028334 -0.0109085)
(-0.170739 0.00308056 -0.0117409)
(-0.170672 0.00293904 -0.0125706)
(-0.170683 0.00201628 -0.0133999)
(-0.170761 -0.000251911 -0.0142346)
(-0.170779 -0.00461318 -0.0150867)
(-0.170358 -0.0119222 -0.0159756)
(-0.168639 -0.0229173 -0.016929)
(-0.16394 -0.0376838 -0.0179905)
(-0.1635 0.0400038 -0.00126266)
(-0.164267 0.0249334 -0.00222214)
(-0.163036 0.0149745 -0.00315516)
(-0.161526 0.00885936 -0.00406681)
(-0.160251 0.00527453 -0.00495653)
(-0.159301 0.00325884 -0.00582931)
(-0.15861 0.00219824 -0.00669026)
(-0.158078 0.00172849 -0.00754267)
(-0.157619 0.00163833 -0.00838826)
(-0.157167 0.00179925 -0.00922731)
(-0.156683 0.00211634 -0.010059)
(-0.156157 0.00248938 -0.0108814)
(-0.155616 0.00277485 -0.0116924)
(-0.155135 0.00274097 -0.0124897)
(-0.15485 0.00200829 -0.0132728)
(-0.154948 -2.98444e-05 -0.0140458)
(-0.155601 -0.00429538 -0.0148229)
(-0.156812 -0.0120464 -0.0156312)
(-0.158045 -0.024771 -0.016519)
(-0.15719 -0.0435642 -0.0175967)
(-0.149375 0.0410259 -0.000802608)
(-0.144811 0.0225051 -0.00198928)
(-0.140022 0.0121266 -0.00303928)
(-0.13655 0.00656243 -0.00401407)
(-0.13424 0.00363874 -0.00493444)
(-0.13275 0.00213339 -0.00582149)
(-0.131765 0.00139523 -0.00668904)
(-0.131048 0.00109141 -0.00754413)
(-0.130438 0.00105305 -0.00838975)
(-0.129826 0.00119028 -0.00922621)
(-0.129144 0.00144505 -0.0100518)
(-0.128362 0.00175974 -0.0108629)
(-0.127499 0.00204804 -0.0116549)
(-0.126644 0.00215678 -0.0124222)
(-0.125997 0.00180445 -0.0131599)
(-0.125909 0.000472275 -0.0138673)
(-0.126883 -0.00277576 -0.0145586)
(-0.12954 -0.0095124 -0.0152641)
(-0.134311 -0.0222673 -0.0160474)
(-0.139363 -0.0444821 -0.0171247)
(-0.1188 0.0353582 -0.000555979)
(-0.107219 0.0151203 -0.00199098)
(-0.0995404 0.00662809 -0.00308037)
(-0.0952929 0.00303915 -0.00405917)
(-0.0929012 0.00148182 -0.00497076)
(-0.0915186 0.000798205 -0.00584766)
(-0.0906689 0.000506098 -0.00670802)
(-0.0900693 0.000406214 -0.00755875)
(-0.0895513 0.000416486 -0.00840173)
(-0.0890082 0.000502207 -0.00923595)
(-0.0883688 0.00064635 -0.0100581)
(-0.0875903 0.000834434 -0.0108628)
(-0.0866647 0.00104204 -0.0116422)
(-0.0856431 0.00121629 -0.0123864)
(-0.0846867 0.00123773 -0.0130836)
(-0.084151 0.00083372 -0.013724)
(-0.0846647 -0.000629037 -0.014315)
(-0.0874316 -0.00465728 -0.0148641)
(-0.0947475 -0.0146025 -0.0154106)
(-0.107587 -0.0380012 -0.0163255)
(-0.0607751 0.0217721 -0.00117506)
(-0.0452675 0.00623985 -0.00258355)
(-0.0389792 0.00188174 -0.0033239)
(-0.0367398 0.000591126 -0.0040664)
(-0.0357886 0.000194623 -0.00482744)
(-0.0353167 7.55086e-05 -0.00560256)
(-0.0350456 4.46829e-05 -0.00638898)
(-0.0348467 4.45535e-05 -0.0071814)
(-0.0346536 5.92505e-05 -0.00797492)
(-0.0344237 8.57654e-05 -0.00876491)
(-0.0341229 0.000125002 -0.00954584)
(-0.0337212 0.000178968 -0.0103101)
(-0.0331935 0.000249271 -0.011047)
(-0.0325272 0.000334004 -0.0117406)
(-0.0317422 0.000417842 -0.0123683)
(-0.0309388 0.000441739 -0.0128979)
(-0.0304289 0.000194793 -0.0132868)
(-0.031113 -0.00111657 -0.0134988)
(-0.0364498 -0.00606203 -0.0134266)
(-0.0539859 -0.024167 -0.0136735)
(-0.0292856 0.000651902 1.57769e-06)
(-0.0311351 0.000468661 1.09599e-06)
(-0.032444 0.000317337 7.1902e-07)
(-0.0333287 0.00020498 4.4806e-07)
(-0.0339088 0.000129086 2.69694e-07)
(-0.0342883 8.29292e-05 1.62946e-07)
(-0.034549 5.93957e-05 1.07554e-07)
(-0.0347524 5.28398e-05 8.80076e-08)
(-0.0349449 5.94427e-05 9.40203e-08)
(-0.0351614 7.67517e-05 1.19408e-07)
(-0.0354287 0.000102806 1.60029e-07)
(-0.0357642 0.00013503 2.11574e-07)
(-0.0361728 0.00016898 2.67348e-07)
(-0.0366399 0.000197023 3.16e-07)
(-0.037121 0.00020725 3.40265e-07)
(-0.0375307 0.000183322 3.16961e-07)
(-0.0377312 0.000105798 1.99532e-07)
(-0.0375351 -4.68744e-05 -5.73626e-08)
(-0.0367199 -0.000281944 -5.02562e-07)
(-0.0350657 -0.000589757 -1.1593e-06)
(-0.0759413 0.0041163 -1.43357e-06)
(-0.0805024 0.00302776 -1.19291e-06)
(-0.0837619 0.00211725 -9.38226e-07)
(-0.0859989 0.00142576 -7.11256e-07)
(-0.0874959 0.000942921 -5.26343e-07)
(-0.0884966 0.000634151 -3.89944e-07)
(-0.089193 0.000460533 -3.00967e-07)
(-0.0897293 0.000388784 -2.53519e-07)
(-0.0902118 0.000393631 -2.39766e-07)
(-0.0907178 0.000455795 -2.5072e-07)
(-0.0913005 0.000557703 -2.7564e-07)
(-0.0919872 0.000678067 -3.00669e-07)
(-0.0927725 0.000785985 -3.07177e-07)
(-0.0936037 0.000835328 -2.70156e-07)
(-0.0943615 0.000760998 -1.59728e-07)
(-0.0948395 0.000479978 5.04384e-08)
(-0.0947308 -9.89301e-05 3.89068e-07)
(-0.0936279 -0.00105489 8.48247e-07)
(-0.0910631 -0.00241083 1.40113e-06)
(-0.0865953 -0.00409482 1.91511e-06)
(-0.112404 0.0107511 -1.81445e-07)
(-0.11861 0.00789789 -3.10045e-07)
(-0.122947 0.0055313 -3.35974e-07)
(-0.125868 0.00374227 -3.1691e-07)
(-0.127795 0.00249265 -2.69273e-07)
(-0.129069 0.00168735 -2.14049e-07)
(-0.129945 0.00122347 -1.64208e-07)
(-0.130608 0.00101353 -1.24717e-07)
(-0.131189 0.000990047 -9.62661e-08)
(-0.131779 0.00110001 -7.69922e-08)
(-0.132437 0.0012944 -6.33103e-08)
(-0.13319 0.00151543 -5.07335e-08)
(-0.134021 0.00168312 -3.42316e-08)
(-0.13486 0.00168296 -7.3196e-09)
(-0.135551 0.00135832 3.83517e-08)
(-0.135832 0.00051378 1.04855e-07)
(-0.135309 -0.00106067 1.86113e-07)
(-0.133453 -0.0035357 2.90705e-07)
(-0.129635 -0.00695802 3.96208e-07)
(-0.123232 -0.0111426 3.36153e-07)
(-0.139409 0.0188101 -2.76343e-07)
(-0.146164 0.0136066 -4.4547e-07)
(-0.150628 0.00939505 -4.38737e-07)
(-0.153481 0.00628162 -3.88244e-07)
(-0.155276 0.00414536 -3.0799e-07)
(-0.156414 0.00278407 -2.27577e-07)
(-0.157169 0.00200011 -1.61267e-07)
(-0.157723 0.00163419 -1.11118e-07)
(-0.158196 0.00156742 -7.54963e-08)
(-0.158667 0.00170849 -5.16259e-08)
(-0.159186 0.00197477 -3.61662e-08)
(-0.159774 0.00227088 -2.57724e-08)
(-0.160418 0.00246659 -1.7472e-08)
(-0.161053 0.00237607 -6.66056e-09)
(-0.161541 0.00174357 1.86748e-08)
(-0.161632 0.000244655 7.0764e-08)
(-0.160926 -0.00248046 1.19639e-07)
(-0.158842 -0.00674256 2.14831e-07)
(-0.154619 -0.0126588 3.93114e-07)
(-0.147397 -0.0199523 3.43438e-07)
(-0.157171 0.0271657 -7.56919e-07)
(-0.163314 0.0190967 -8.4168e-07)
(-0.166906 0.0128283 -6.73838e-07)
(-0.16893 0.00836956 -5.24464e-07)
(-0.170051 0.0054091 -3.67675e-07)
(-0.17068 0.00356936 -2.40759e-07)
(-0.171052 0.00252546 -1.53369e-07)
(-0.1713 0.00203603 -9.70125e-08)
(-0.171501 0.00193167 -6.3041e-08)
(-0.171699 0.00208899 -4.50513e-08)
(-0.171922 0.00240105 -3.82708e-08)
(-0.172186 0.00274717 -3.89946e-08)
(-0.172489 0.0029621 -4.43748e-08)
(-0.172806 0.0028053 -4.95971e-08)
(-0.173061 0.00193462 -3.78675e-08)
(-0.17309 -0.000105171 1.27911e-08)
(-0.172576 -0.00385627 7.31255e-08)
(-0.170969 -0.00984779 2.18387e-07)
(-0.167409 -0.0183914 6.78698e-07)
(-0.160688 -0.0292412 9.45246e-07)
(-0.165479 0.0346849 -1.6419e-06)
(-0.169699 0.0232819 -1.37736e-06)
(-0.171379 0.0149682 -8.47244e-07)
(-0.17188 0.00939225 -5.65322e-07)
(-0.171898 0.00587194 -3.31411e-07)
(-0.171759 0.0037705 -1.7407e-07)
(-0.171593 0.00261228 -8.61736e-08)
(-0.171434 0.00207831 -3.95919e-08)
(-0.171285 0.00196281 -1.67037e-08)
(-0.17114 0.00212704 -8.11025e-09)
(-0.170995 0.00245849 -8.981e-09)
(-0.170855 0.00283364 -1.70234e-08)
(-0.170738 0.00308062 -3.18276e-08)
(-0.170672 0.00293885 -5.22134e-08)
(-0.170681 0.00201584 -5.95329e-08)
(-0.170758 -0.000252308 -1.77339e-08)
(-0.170774 -0.00461277 1.14929e-09)
(-0.170347 -0.0119186 1.33053e-07)
(-0.168628 -0.022902 1.14781e-06)
(-0.163955 -0.0376581 2.36848e-06)
(-0.16353 0.0399795 -4.39993e-06)
(-0.164253 0.0249255 -2.85456e-06)
(-0.163021 0.0149779 -1.29385e-06)
(-0.161518 0.00886333 -6.72864e-07)
(-0.160246 0.00527775 -2.84514e-07)
(-0.159298 0.00326121 -8.65978e-08)
(-0.158608 0.00219985 -9.9296e-09)
(-0.158077 0.00172961 1.52857e-08)
(-0.157618 0.00163918 1.8844e-08)
(-0.157166 0.0018 1.21417e-08)
(-0.156683 0.00211707 -9.20108e-10)
(-0.156157 0.0024901 -1.96522e-08)
(-0.155615 0.00277551 -4.47884e-08)
(-0.155134 0.00274134 -7.84994e-08)
(-0.154848 0.00200808 -1.03747e-07)
(-0.154945 -3.06727e-05 -5.09977e-08)
(-0.155594 -0.00429706 8.15627e-08)
(-0.156793 -0.0120489 3.64888e-07)
(-0.158021 -0.0247601 2.73879e-06)
(-0.15722 -0.0435308 6.49961e-06)
(-0.149432 0.0409857 -7.50055e-06)
(-0.14478 0.0225147 -2.98161e-06)
(-0.140004 0.0121472 -5.80207e-07)
(-0.136545 0.00657391 -2.27395e-07)
(-0.134238 0.00364452 2.6972e-08)
(-0.132749 0.00213648 1.17634e-07)
(-0.131765 0.00139695 1.10181e-07)
(-0.131048 0.00109255 8.98335e-08)
(-0.130438 0.00105407 7.41825e-08)
(-0.129825 0.00119143 6.31675e-08)
(-0.129143 0.00144646 5.39642e-08)
(-0.128362 0.00176148 4.23882e-08)
(-0.127499 0.00205 2.15466e-08)
(-0.126645 0.00215859 -2.78622e-08)
(-0.125997 0.00180526 -1.04684e-07)
(-0.125909 0.000470684 -5.99986e-08)
(-0.126882 -0.00278386 6.32798e-08)
(-0.12952 -0.00953344 -3.36528e-07)
(-0.134268 -0.0222792 2.44444e-06)
(-0.13942 -0.0444288 1.04399e-05)
(-0.118869 0.0351693 -9.41184e-06)
(-0.107153 0.015064 4.14083e-06)
(-0.0995292 0.0066179 4.57226e-06)
(-0.0953017 0.0030325 1.91309e-06)
(-0.092906 0.00147691 9.74471e-07)
(-0.0915208 0.000795203 5.82395e-07)
(-0.0906699 0.000504166 3.56071e-07)
(-0.0900695 0.000404802 2.6199e-07)
(-0.089551 0.000415283 2.4776e-07)
(-0.0890076 0.000501008 2.77799e-07)
(-0.0883681 0.000645027 3.34305e-07)
(-0.0875897 0.000832943 4.0218e-07)
(-0.0866647 0.00104047 4.54387e-07)
(-0.0856445 0.00121499 4.21063e-07)
(-0.0846899 0.00123745 2.09558e-07)
(-0.0841589 0.000835439 -1.4033e-07)
(-0.084682 -0.000625428 -1.25747e-06)
(-0.0874273 -0.00465005 -5.61932e-06)
(-0.0946623 -0.0145415 -7.46742e-06)
(-0.107637 -0.0377599 1.15063e-05)
(-0.0608135 0.0216331 -5.16502e-05)
(-0.0451145 0.0061748 -8.4667e-06)
(-0.0389366 0.00185577 -5.27926e-07)
(-0.0367359 0.000576548 -1.36547e-06)
(-0.0357858 0.00018623 -8.78849e-07)
(-0.0353146 7.08746e-05 -4.01248e-07)
(-0.0350446 4.19334e-05 -2.20724e-07)
(-0.0348463 4.26069e-05 -1.52013e-07)
(-0.0346534 5.75195e-05 -1.31282e-07)
(-0.0344237 8.39024e-05 -1.42848e-07)
(-0.034123 0.000122797 -1.76807e-07)
(-0.0337214 0.000176338 -2.2391e-07)
(-0.0331937 0.000246342 -2.71277e-07)
(-0.0325271 0.000331322 -2.95166e-07)
(-0.031741 0.000416685 -2.06828e-07)
(-0.0309377 0.000444228 2.34244e-07)
(-0.030431 0.000204052 6.27509e-07)
(-0.0310732 -0.0010941 -1.80719e-06)
(-0.0362468 -0.00599234 3.88935e-06)
(-0.0539751 -0.0239842 6.42152e-05)
(-0.0292856 0.000651902 -1.57351e-06)
(-0.031135 0.000468661 -1.09177e-06)
(-0.032444 0.000317337 -7.15512e-07)
(-0.0333286 0.000204979 -4.45897e-07)
(-0.0339087 0.000129086 -2.68824e-07)
(-0.0342882 8.29291e-05 -1.6273e-07)
(-0.0345489 5.93955e-05 -1.07555e-07)
(-0.0347524 5.28395e-05 -8.81739e-08)
(-0.0349448 5.94423e-05 -9.43202e-08)
(-0.0351614 7.6751e-05 -1.19648e-07)
(-0.0354287 0.000102805 -1.60064e-07)
(-0.0357641 0.000135029 -2.11532e-07)
(-0.0361728 0.000168978 -2.67492e-07)
(-0.0366398 0.000197022 -3.16465e-07)
(-0.037121 0.000207249 -3.40865e-07)
(-0.0375306 0.000183321 -3.17169e-07)
(-0.0377311 0.000105798 -1.98647e-07)
(-0.0375351 -4.68733e-05 5.99438e-08)
(-0.0367199 -0.000281941 5.07287e-07)
(-0.0350656 -0.000589753 1.16621e-06)
(-0.0759411 0.0041163 1.43943e-06)
(-0.0805023 0.00302776 1.19831e-06)
(-0.0837618 0.00211725 9.42647e-07)