/*--------------------------------*- C++ -*----------------------------------*\
| =========                 |                                                 |
| \\      /  F ield         | OpenFOAM: The Open Source CFD Toolbox           |
|  \\    /   O peration     | Version:  2.4.0                                 |
|   \\  /    A nd           | Web:      www.OpenFOAM.org                      |
|    \\/     M anipulation  |                                                 |
\*---------------------------------------------------------------------------*/
FoamFile
{
    version     2.0;
    format      ascii;
    class       volScalarField;
    location    "2.3";
    object      p;
}
// * * * * * * * * * * * * * * * * * * * * * * * * * * * * * * * * * * * * * //

dimensions      [0 2 -2 0 0 0 0];

internalField   nonuniform List<scalar> 
4800
(
2.52709e-08
-0.00157671
-0.00321225
-0.00440396
-0.0048329
-0.00435099
-0.002913
-0.000524152
0.00276938
0.00687094
0.00157347
-3.36077e-05
-0.00119201
-0.00185969
-0.00191566
-0.0012517
0.000178242
0.00238887
0.00536851
0.00906875
0.00324563
0.00107715
-8.82741e-05
-0.00060337
-0.000535653
0.000172955
0.00155302
0.00362971
0.00642216
0.00992421
0.0043562
0.00154858
0.000213568
-0.000315774
-0.000261803
0.000390792
0.0016615
0.00359346
0.00624888
0.00967985
0.00436691
0.00105485
-0.000459345
-0.0010745
-0.00112489
-0.000620406
0.000464627
0.00221108
0.00475132
0.00824189
0.00292368
-0.000686555
-0.00234701
-0.00309658
-0.00333573
-0.00308038
-0.0022768
-0.000779961
0.00165342
0.00538684
-0.000142439
-0.00381661
-0.00556908
-0.00648758
-0.00699668
-0.00710361
-0.00670666
-0.00557107
-0.00329719
0.000900312
-0.00483116
-0.00833605
-0.0101181
-0.0112297
-0.0120855
-0.0126794
-0.0128522
-0.012268
-0.0103546
-0.00549648
-0.01098
-0.0141099
-0.0158585
-0.0171717
-0.0184312
-0.0196261
-0.0205461
-0.0207582
-0.0195935
-0.0139007
-0.0182823
-0.0208846
-0.0225388
-0.0240345
-0.0257121
-0.0275914
-0.0294782
-0.0309452
-0.0317562
-0.0272539
-8.15982e-07
-0.00159782
-0.00324353
-0.00444394
-0.00487806
-0.00439826
-0.00296034
-0.000569585
0.00272817
0.00683653
0.0015906
-3.83033e-05
-0.00117488
-0.00183254
-0.00188352
-0.00121642
0.000213623
0.00242177
0.00539736
0.00909363
0.00327557
0.00105131
-8.95667e-05
-0.00060238
-0.000537066
0.00017163
0.00155158
0.00362762
0.00641932
0.00992248
0.00439968
0.00151239
0.000213621
-0.000312686
-0.000262905
0.000389198
0.00165945
0.00359023
0.0062434
0.00967505
0.00441997
0.00101245
-0.000454585
-0.00106415
-0.00111871
-0.000614536
0.000469848
0.00221408
0.00474778
0.00823513
0.00298143
-0.00073337
-0.00234077
-0.00308342
-0.00332667
-0.0030714
-0.00226804
-0.000772954
0.00164739
0.00536822
-8.46259e-05
-0.00386456
-0.00556241
-0.0064732
-0.00698578
-0.00709229
-0.00669411
-0.00555601
-0.00330509
0.000853185
-0.0047779
-0.00838203
-0.010112
-0.0112157
-0.0120741
-0.0126678
-0.012839
-0.0122446
-0.0103778
-0.00566075
-0.0109356
-0.0141515
-0.0158543
-0.01716
-0.0184204
-0.0196143
-0.0205301
-0.0207026
-0.0195773
-0.0142695
-0.01825
-0.0209206
-0.0225381
-0.0240278
-0.0257049
-0.0275806
-0.0294551
-0.0308058
-0.0314314
-0.0273628
-7.50558e-07
-0.00159781
-0.00324355
-0.00444397
-0.00487809
-0.00439827
-0.00296035
-0.000569595
0.00272816
0.00683652
0.00159061
-3.83232e-05
-0.00117491
-0.00183257
-0.00188355
-0.00121644
0.000213612
0.00242175
0.00539735
0.00909363
0.00327553
0.00105127
-8.95989e-05
-0.000602408
-0.000537095
0.000171611
0.00155157
0.00362761
0.00641931
0.00992247
0.00439964
0.00151235
0.000213592
-0.000312713
-0.000262932
0.000389181
0.00165944
0.00359022
0.00624339
0.00967504
0.00441994
0.00101242
-0.000454609
-0.00106417
-0.00111873
-0.000614549
0.000469842
0.00221407
0.00474777
0.00823512
0.00298139
-0.000733402
-0.00234079
-0.00308344
-0.0033267
-0.00307142
-0.00226805
-0.000772968
0.00164738
0.00536821
-8.46591e-05
-0.00386459
-0.00556243
-0.00647322
-0.0069858
-0.00709231
-0.00669413
-0.00555603
-0.00330511
0.000853172
-0.00477792
-0.00838205
-0.0101121
-0.0112157
-0.0120741
-0.0126678
-0.0128391
-0.0122446
-0.0103778
-0.00566076
-0.0109356
-0.0141515
-0.0158543
-0.01716
-0.0184204
-0.0196143
-0.0205301
-0.0207026
-0.0195773
-0.0142695
-0.01825
-0.0209206
-0.0225381
-0.0240278
-0.0257049
-0.0275806
-0.0294552
-0.0308058
-0.0314314
-0.0273628
5.12902e-07
-0.00157666
-0.00321232
-0.00440403
-0.00483296
-0.00435103
-0.00291302
-0.000524171
0.00276936
0.00687092
0.00157351
-3.36606e-05
-0.00119211
-0.00185978
-0.00191573
-0.00125175
0.000178209
0.00238885
0.00536848
0.00906873
0.00324554
0.00107706
-8.83663e-05
-0.000603437
-0.000535713
0.000172905
0.00155299
0.00362969
0.00642214
0.00992419
0.00435609
0.00154849
0.000213479
-0.000315842
-0.000261869
0.000390738
0.00166147
0.00359344
0.00624885
0.00967982
0.00436681
0.00105477
-0.000459423
-0.00107455
-0.00112495
-0.00062045
0.000464604
0.00221106
0.00475129
0.00824186
0.0029236
-0.000686628
-0.00234708
-0.00309663
-0.00333578
-0.00308042
-0.00227682
-0.000779988
0.00165339
0.0053868
-0.000142527
-0.00381668
-0.00556915
-0.00648764
-0.00699674
-0.00710366
-0.00670669
-0.0055711
-0.00329723
0.000900279
-0.00483123
-0.00833611
-0.0101182
-0.0112298
-0.0120856
-0.0126794
-0.0128522
-0.012268
-0.0103547
-0.00549651
-0.0109801
-0.0141099
-0.0158585
-0.0171718
-0.0184312
-0.0196261
-0.0205461
-0.0207582
-0.0195936
-0.0139008
-0.0182823
-0.0208847
-0.0225389
-0.0240345
-0.0257121
-0.0275914
-0.0294782
-0.0309452
-0.0317562
-0.0272539
0.0116276
0.0168529
0.0223785
0.0280778
0.0338668
0.0396968
0.0455445
0.0514045
0.0572846
0.0632041
0.0691942
0.0752989
0.0815752
0.0880913
0.0949206
0.102129
0.109754
0.117777
0.126082
0.134438
0.0133919
0.0181999
0.0233633
0.0287751
0.0343534
0.0400411
0.0458027
0.0516199
0.0574889
0.0634185
0.0694293
0.0755523
0.0818283
0.0883045
0.095029
0.102041
0.109355
0.11694
0.1247
0.132444
0.0140688
0.018717
0.0237459
0.0290532
0.0345557
0.0401924
0.0459223
0.0517213
0.0575796
0.0634994
0.0694934
0.0755839
0.081801
0.0881808
0.0947613
0.101576
0.108644
0.115951
0.123433
0.130947
0.0138431
0.018537
0.0236163
0.0289709
0.0345128
0.0401796
0.0459305
0.0517409
0.0575993
0.0635038
0.0694611
0.0754854
0.0815977
0.0878253
0.0942016
0.100765
0.107553
0.114592
0.121878
0.129338
0.0126767
0.0176604
0.0229935
0.0285536
0.0342495
0.0400249
0.0458477
0.0516999
0.0575729
0.0634639
0.0693745
0.0753104
0.0812822
0.0873069
0.0934128
0.0996452
0.106067
0.112765
0.119827
0.127316
0.0105231
0.0161414
0.0219674
0.0278934
0.0338436
0.0397877
0.0457171
0.0516301
0.0575266
0.0634056
0.0692645
0.0750996
0.0809087
0.0866947
0.0924745
0.0982937
0.104244
0.110474
0.117205
0.124768
0.00751066
0.014241
0.020802
0.0272085
0.033456
0.0395783
0.0456119
0.0515807
0.0574971
0.0633626
0.0691701
0.074905
0.0805491
0.0860851
0.0915082
0.0968481
0.102213
0.107808
0.114015
0.121662
0.0040433
0.0124719
0.0199158
0.0267986
0.0332817
0.0395165
0.0456042
0.0515968
0.0575164
0.0633645
0.0691272
0.0747771
0.080277
0.0855836
0.090658
0.0954956
0.100199
0.104989
0.110372
0.11797
0.00213202
0.012481
0.0202269
0.0271316
0.0335508
0.0397137
0.0457512
0.0517145
0.0576172
0.0634511
0.0691908
0.0747938
0.0802005
0.0853336
0.0901018
0.0944307
0.0983706
0.101941
0.105487
0.111869
0.00666084
0.0177366
0.0233466
0.0288636
0.0345176
0.0402698
0.0461001
0.0519712
0.0578467
0.0636905
0.0694582
0.0750887
0.0804943
0.0855488
0.0900711
0.0938066
0.0964103
0.0975947
0.0965799
0.0983597
0.0116017
0.0168348
0.0223666
0.0280703
0.0338622
0.0396939
0.0455426
0.0514029
0.0572829
0.0632019
0.0691913
0.0752951
0.0815704
0.0880857
0.0949146
0.102124
0.10975
0.117777
0.12609
0.134457
0.0134139
0.0182182
0.0233778
0.0287861
0.0343616
0.0400473
0.0458076
0.051624
0.0574929
0.0634228
0.069434
0.0755575
0.0818336
0.0883093
0.0950321
0.102041
0.10935
0.116928
0.124678
0.132414
0.0140715
0.0187217
0.0237511
0.0290581
0.0345599
0.0401958
0.0459249
0.0517233
0.0575812
0.0635006
0.0694944
0.0755847
0.0818016
0.088181
0.0947608
0.101575
0.108641
0.115947
0.123427
0.130941
0.0138474
0.0185439
0.0236232
0.028977
0.0345176
0.0401832
0.045933
0.0517427
0.0576004
0.0635046
0.0694617
0.0754858
0.081598
0.0878254
0.0942014
0.100764
0.107551
0.114589
0.121872
0.129333
0.0126884
0.0176735
0.023004
0.0285619
0.0342553
0.0400288
0.0458501
0.0517015
0.0575739
0.0634646
0.0693751
0.0753111
0.0812829
0.0873078
0.0934135
0.0996451
0.106066
0.112762
0.119816
0.127302
0.0105482
0.0161628
0.0219807
0.0279023
0.0338488
0.0397905
0.0457184
0.0516307
0.0575269
0.0634057
0.0692646
0.0750999
0.0809092
0.0866955
0.0924756
0.0982943
0.104244
0.110472
0.117188
0.124732
0.0075775
0.0142849
0.0208222
0.027219
0.0334604
0.0395797
0.045612
0.0515805
0.0574968
0.0633625
0.0691701
0.0749054
0.0805498
0.0860864
0.09151
0.096849
0.102212
0.107803
0.113973
0.121561
0.00415694
0.0125178
0.019925
0.0268022
0.0332813
0.0395146
0.0456024
0.0515954
0.0575152
0.0633635
0.0691263
0.0747764
0.0802766
0.085584
0.0906595
0.0954962
0.100198
0.104994
0.110334
0.117808
0.00227418
0.0124181
0.0201568
0.0271018
0.0335354
0.0397045
0.0457454
0.0517101
0.057613
0.0634464
0.0691852
0.0747871
0.0801928
0.0853264
0.0900979
0.0944321
0.0983901
0.102028
0.105604
0.111693
0.00749066
0.0178764
0.0233564
0.0288861
0.0345321
0.0402766
0.0461039
0.0519739
0.0578491
0.0636931
0.0694614
0.0750927
0.0804992
0.0855542
0.0900751
0.0938036
0.0964
0.0976249
0.0965185
0.097315
0.0116017
0.0168348
0.0223666
0.0280702
0.0338622
0.0396939
0.0455426
0.0514029
0.0572829
0.0632019
0.0691913
0.0752951
0.0815704
0.0880857
0.0949146
0.102124
0.10975
0.117777
0.12609
0.134457
0.0134139
0.0182182
0.0233778
0.0287861
0.0343616
0.0400473
0.0458076
0.051624
0.0574929
0.0634228
0.069434
0.0755575
0.0818336
0.0883093
0.0950321
0.102041
0.10935
0.116927
0.124678
0.132414
0.0140715
0.0187217
0.0237511
0.0290581
0.0345599
0.0401958
0.0459249
0.0517233
0.0575812
0.0635006
0.0694944
0.0755847
0.0818016
0.088181
0.0947608
0.101575
0.108641
0.115947
0.123427
0.130941
0.0138474
0.0185439
0.0236232
0.028977
0.0345176
0.0401832
0.045933
0.0517427
0.0576004
0.0635046
0.0694617
0.0754858
0.081598
0.0878254
0.0942014
0.100764
0.107551
0.114589
0.121872
0.129333
0.0126884
0.0176735
0.023004
0.0285619
0.0342553
0.0400288
0.0458501
0.0517015
0.0575739
0.0634646
0.0693751
0.0753111
0.0812829
0.0873078
0.0934135
0.0996451
0.106066
0.112762
0.119816
0.127302
0.0105481
0.0161627
0.0219807
0.0279023
0.0338488
0.0397905
0.0457184
0.0516307
0.0575269
0.0634057
0.0692646
0.0750999
0.0809092
0.0866955
0.0924756
0.0982943
0.104244
0.110472
0.117188
0.124732
0.00757749
0.0142849
0.0208222
0.027219
0.0334604
0.0395797
0.045612
0.0515805
0.0574968
0.0633625
0.0691701
0.0749054
0.0805498
0.0860864
0.09151
0.096849
0.102212
0.107803
0.113973
0.121561
0.00415694
0.0125178
0.019925
0.0268022
0.0332813
0.0395146
0.0456024
0.0515954
0.0575152
0.0633635
0.0691263
0.0747764
0.0802766
0.085584
0.0906595
0.0954962
0.100198
0.104994
0.110334
0.117808
0.00227417
0.0124181
0.0201568
0.0271018
0.0335354
0.0397045
0.0457454
0.0517101
0.057613
0.0634464
0.0691852
0.0747871
0.0801929
0.0853264
0.0900979
0.0944321
0.0983901
0.102028
0.105604
0.111693
0.00749065
0.0178764
0.0233564
0.0288861
0.0345321
0.0402766
0.0461039
0.0519739
0.0578491
0.0636931
0.0694614
0.0750928
0.0804992
0.0855542
0.0900751
0.0938036
0.0964
0.0976249
0.0965185
0.097315
0.0116276
0.0168528
0.0223785
0.0280778
0.0338668
0.0396967
0.0455445
0.0514045
0.0572846
0.0632041
0.0691942
0.0752989
0.0815752
0.0880913
0.0949206
0.102129
0.109754
0.117777
0.126082
0.134438
0.0133919
0.0181999
0.0233633
0.0287751
0.0343534
0.0400411
0.0458027
0.0516199
0.0574889
0.0634186
0.0694293
0.0755524
0.0818283
0.0883045
0.095029
0.102041
0.109355
0.11694
0.1247
0.132444
0.0140688
0.018717
0.0237459
0.0290532
0.0345557
0.0401924
0.0459223
0.0517213
0.0575796
0.0634994
0.0694934
0.0755839
0.081801
0.0881808
0.0947613
0.101576
0.108644
0.115951
0.123433
0.130947
0.0138431
0.018537
0.0236163
0.0289709
0.0345128
0.0401796
0.0459305
0.0517409
0.0575993
0.0635037
0.0694611
0.0754854
0.0815977
0.0878252
0.0942016
0.100765
0.107553
0.114592
0.121878
0.129338
0.0126767
0.0176604
0.0229935
0.0285536
0.0342495
0.0400249
0.0458477
0.0516999
0.0575729
0.0634639
0.0693745
0.0753104
0.0812822
0.0873069
0.0934128
0.0996452
0.106067
0.112765
0.119827
0.127316
0.010523
0.0161414
0.0219674
0.0278934
0.0338436
0.0397877
0.0457171
0.0516301
0.0575266
0.0634056
0.0692645
0.0750996
0.0809087
0.0866947
0.0924745
0.0982938
0.104244
0.110474
0.117205
0.124768
0.00751064
0.014241
0.020802
0.0272085
0.033456
0.0395783
0.0456119
0.0515807
0.0574971
0.0633626
0.0691701
0.074905
0.0805491
0.0860852
0.0915083
0.0968481
0.102213
0.107808
0.114015
0.121662
0.00404328
0.0124719
0.0199158
0.0267987
0.0332817
0.0395165
0.0456041
0.0515968
0.0575164
0.0633645
0.0691271
0.0747771
0.080277
0.0855836
0.090658
0.0954956
0.100199
0.104989
0.110372
0.11797
0.00213201
0.012481
0.0202269
0.0271316
0.0335508
0.0397137
0.0457512
0.0517145
0.0576172
0.0634511
0.0691908
0.0747939
0.0802005
0.0853336
0.0901018
0.0944307
0.0983706
0.101941
0.105487
0.111869
0.00666084
0.0177366
0.0233466
0.0288636
0.0345176
0.0402698
0.0461001
0.0519712
0.0578467
0.0636905
0.0694582
0.0750887
0.0804943
0.0855488
0.0900711
0.0938066
0.0964103
0.0975948
0.09658
0.0983597
0.142485
0.149789
0.15594
0.160633
0.163702
0.165149
0.16514
0.164031
0.162358
0.160784
0.139885
0.14666
0.152436
0.156959
0.160092
0.161836
0.162331
0.161861
0.16075
0.159205
0.138231
0.144912
0.150654
0.155206
0.158431
0.160321
0.160996
0.160695
0.159591
0.157569
0.136735
0.143598
0.149542
0.154287
0.157681
0.159706
0.160468
0.160181
0.158924
0.156377
0.135057
0.142338
0.148685
0.153777
0.157442
0.159657
0.160523
0.16025
0.15887
0.155949
0.133177
0.141141
0.148089
0.153668
0.157697
0.160162
0.161177
0.160962
0.159537
0.156434
0.131289
0.140219
0.147913
0.154063
0.158499
0.161248
0.162451
0.162347
0.160973
0.157877
0.12982
0.140002
0.148493
0.155196
0.159995
0.162996
0.164388
0.16443
0.163192
0.160275
0.129007
0.141161
0.1504
0.157465
0.162427
0.165539
0.16705
0.167233
0.166184
0.163583
0.133504
0.146841
0.155247
0.161655
0.166159
0.169033
0.17049
0.170749
0.169902
0.167705
0.142518
0.149834
0.155994
0.16069
0.16376
0.165202
0.165184
0.164061
0.162376
0.160783
0.139849
0.146619
0.15239
0.156911
0.160045
0.161793
0.162295
0.161835
0.160745
0.159184
0.138232
0.144916
0.15066
0.155213
0.158437
0.160326
0.160996
0.160694
0.159608
0.157538
0.136742
0.14361
0.149556
0.154301
0.157694
0.159717
0.160471
0.160182
0.158951
0.156337
0.135064
0.142349
0.148696
0.153788
0.157451
0.159663
0.160522
0.160249
0.158902
0.155904
0.133188
0.141153
0.148101
0.15368
0.157706
0.160168
0.161176
0.160961
0.159573
0.156387
0.131312
0.140234
0.147927
0.154076
0.158508
0.161253
0.162449
0.162345
0.161008
0.15783
0.129959
0.140058
0.148517
0.155211
0.160002
0.162999
0.164384
0.164428
0.163225
0.16023
0.129332
0.141177
0.150377
0.157457
0.162421
0.165536
0.167044
0.16723
0.166213
0.163541
0.133395
0.146473
0.155083
0.161608
0.16614
0.169027
0.170485
0.170747
0.169927
0.167671
0.142518
0.149833
0.155994
0.16069
0.16376
0.165202
0.165184
0.164061
0.162376
0.160783
0.139849
0.146619
0.15239
0.156911
0.160045
0.161793
0.162295
0.161835
0.160745
0.159184
0.138232
0.144916
0.15066
0.155213
0.158437
0.160326
0.160996
0.160694
0.159608
0.157538
0.136742
0.14361
0.149556
0.154301
0.157694
0.159717
0.160471
0.160182
0.158951
0.156337
0.135064
0.142349
0.148696
0.153788
0.157451
0.159663
0.160522
0.160249
0.158902
0.155904
0.133188
0.141153
0.148101
0.15368
0.157706
0.160168
0.161176
0.160961
0.159573
0.156387
0.131312
0.140235
0.147927
0.154076
0.158508
0.161253
0.162449
0.162345
0.161008
0.15783
0.129959
0.140058
0.148517
0.155211
0.160002
0.162999
0.164384
0.164428
0.163225
0.16023
0.129332
0.141177
0.150377
0.157457
0.162421
0.165536
0.167044
0.16723
0.166213
0.163541
0.133395
0.146473
0.155083
0.161608
0.16614
0.169027
0.170485
0.170747
0.169927
0.167671
0.142485
0.149789
0.15594
0.160632
0.163702
0.165149
0.16514
0.164031
0.162358
0.160784
0.139885
0.14666
0.152436
0.156959
0.160092
0.161836
0.162331
0.161861
0.16075
0.159205
0.138231
0.144912
0.150654
0.155206
0.158431
0.160321
0.160996
0.160695
0.159591
0.157569
0.136735
0.143598
0.149542
0.154287
0.157681
0.159706
0.160468
0.160181
0.158924
0.156377
0.135057
0.142338
0.148685
0.153777
0.157442
0.159657
0.160523
0.16025
0.15887
0.155949
0.133177
0.141141
0.148089
0.153668
0.157697
0.160162
0.161177
0.160962
0.159537
0.156434
0.131289
0.140219
0.147913
0.154063
0.158499
0.161248
0.162451
0.162347
0.160973
0.157877
0.12982
0.140003
0.148493
0.155196
0.159995
0.162996
0.164388
0.16443
0.163192
0.160275
0.129007
0.141161
0.1504
0.157465
0.162427
0.165539
0.16705
0.167233
0.166184
0.163583
0.133504
0.146841
0.155247
0.161655
0.166159
0.169033
0.17049
0.170749
0.169902
0.167705
0.167373
0.162844
0.164766
0.168253
0.171292
0.173473
0.174665
0.174911
0.174249
0.172492
0.178392
0.173154
0.173168
0.174969
0.176906
0.178462
0.179373
0.179582
0.179087
0.177759
0.18394
0.180857
0.180583
0.181513
0.182727
0.183801
0.184468
0.184636
0.184287
0.183338
0.189388
0.187719
0.187439
0.187904
0.188648
0.189366
0.189837
0.189968
0.189738
0.189101
0.194969
0.194101
0.193902
0.194141
0.194595
0.195065
0.195389
0.195489
0.195351
0.19496
0.200655
0.200244
0.200136
0.200267
0.200541
0.20084
0.201053
0.201127
0.201058
0.200855
0.206446
0.206298
0.206258
0.206328
0.206481
0.206653
0.206778
0.206825
0.206803
0.206742
0.212327
0.212353
0.212346
0.212365
0.212419
0.212481
0.212523
0.212533
0.212535
0.212588
0.218327
0.218459
0.218458
0.218413
0.218362
0.218307
0.218253
0.218208
0.218213
0.218346
0.224482
0.224676
0.224645
0.224505
0.224318
0.224117
0.223937
0.223807
0.223785
0.223968
0.230858
0.231063
0.230953
0.230668
0.230295
0.229899
0.229545
0.229288
0.229198
0.229391
0.237547
0.237688
0.23743
0.236929
0.236299
0.235638
0.235047
0.234606
0.234398
0.234537
0.244668
0.24462
0.244117
0.243309
0.242332
0.241323
0.240419
0.239727
0.239329
0.239322
0.252366
0.251921
0.251038
0.249812
0.248387
0.246941
0.245646
0.244626
0.24395
0.24366
0.260826
0.2596
0.258167
0.256406
0.25444
0.252484
0.250729
0.249308
0.248251
0.247478
0.270158
0.267637
0.265394
0.262983
0.260421
0.257932
0.255696
0.253822
0.252261
0.250762
0.280436
0.275696
0.272376
0.26928
0.266173
0.263242
0.260596
0.258277
0.256101
0.253552
0.291326
0.283015
0.278408
0.274777
0.27138
0.268303
0.265497
0.26286
0.259996
0.256017
0.302776
0.288607
0.282323
0.278532
0.275432
0.272853
0.27044
0.267833
0.264319
0.258502
0.313987
0.288981
0.280937
0.278376
0.27707
0.276321
0.275378
0.273537
0.269635
0.261605
0.168203
0.162986
0.16488
0.16832
0.171317
0.173484
0.174669
0.174914
0.174271
0.172466
0.178531
0.173091
0.173214
0.175013
0.176927
0.178475
0.17938
0.179586
0.179106
0.177741
0.18395
0.180788
0.180593
0.181533
0.18274
0.183811
0.184475
0.184641
0.184301
0.183326
0.18941
0.18769
0.187442
0.187914
0.188657
0.189375
0.189843
0.189973
0.189748
0.189094
0.194983
0.194087
0.193902
0.194146
0.194601
0.195071
0.195394
0.195493
0.195358
0.194956
0.20066
0.200238
0.200134
0.200268
0.200544
0.200843
0.201057
0.20113
0.201061
0.200853
0.206448
0.206296
0.206257
0.206328
0.206483
0.206655
0.20678
0.206827
0.206804
0.206742
0.212327
0.212354
0.212346
0.212365
0.212419
0.212482
0.212524
0.212534
0.212534
0.212589
0.218325
0.218463
0.218458
0.218413
0.218362
0.218308
0.218254
0.218209
0.21821
0.218349
0.224479
0.22468
0.224644
0.224504
0.224318
0.224118
0.223937
0.223808
0.223781
0.223972
0.230853
0.231068
0.230953
0.230667
0.230295
0.229898
0.229545
0.229288
0.229194
0.229395
0.237541
0.237692
0.237429
0.236928
0.236298
0.235637
0.235047
0.234607
0.234393
0.234542
0.244662
0.244622
0.244115
0.243307
0.242331
0.241322
0.240419
0.239728
0.239327
0.239327
0.252361
0.251916
0.251034
0.249809
0.248385
0.24694
0.245646
0.244627
0.243952
0.243664
0.260825
0.259582
0.258161
0.256402
0.254436
0.252482
0.250729
0.249311
0.24826
0.24748
0.270171
0.267599
0.265387
0.26298
0.260417
0.25793
0.255696
0.253827
0.252282
0.250757
0.280488
0.275627
0.27237
0.26928
0.266168
0.26324
0.260597
0.258286
0.25614
0.253537
0.291396
0.282842
0.278385
0.274775
0.271372
0.268303
0.265499
0.262873
0.26006
0.255989
0.302896
0.28828
0.282326
0.278574
0.275446
0.272865
0.270448
0.267855
0.264417
0.258454
0.315322
0.289082
0.28123
0.278561
0.277139
0.276354
0.275394
0.273567
0.269777
0.261529
0.168203
0.162986
0.16488
0.16832
0.171317
0.173484
0.174669
0.174914
0.174271
0.172466
0.178531
0.173091
0.173214
0.175013
0.176927
0.178475
0.17938
0.179586
0.179106
0.177741
0.18395
0.180788
0.180593
0.181533
0.18274
0.183811
0.184475
0.184641
0.184301
0.183326
0.18941
0.18769
0.187442
0.187914
0.188657
0.189375
0.189843
0.189973
0.189748
0.189094
0.194983
0.194087
0.193902
0.194146
0.194601
0.195071
0.195394
0.195493
0.195358
0.194956
0.20066
0.200238
0.200134
0.200268
0.200544
0.200843
0.201057
0.20113
0.201061
0.200853
0.206448
0.206296
0.206257
0.206328
0.206483
0.206655
0.20678
0.206827
0.206804
0.206742
0.212327
0.212354
0.212346
0.212365
0.212419
0.212482
0.212524
0.212534
0.212534
0.212589
0.218325
0.218463
0.218458
0.218413
0.218362
0.218308
0.218254
0.218209
0.21821
0.218349
0.224479
0.22468
0.224644
0.224504
0.224318
0.224118
0.223937
0.223808
0.223781
0.223972
0.230853
0.231068
0.230953
0.230667
0.230295
0.229898
0.229545
0.229288
0.229194
0.229395
0.237541
0.237692
0.237429
0.236928
0.236298
0.235637
0.235047
0.234607
0.234393
0.234542
0.244662
0.244622
0.244115
0.243307
0.242331
0.241322
0.240419
0.239728
0.239327
0.239327
0.252361
0.251916
0.251034
0.249809
0.248385
0.24694
0.245646
0.244627
0.243952
0.243664
0.260825
0.259582
0.258161
0.256402
0.254436
0.252482
0.250729
0.249311
0.24826
0.24748
0.270171
0.267599
0.265387
0.26298
0.260417
0.25793
0.255696
0.253827
0.252282
0.250757
0.280488
0.275627
0.27237
0.26928
0.266168
0.26324
0.260597
0.258286
0.25614
0.253537
0.291396
0.282842
0.278385
0.274775
0.271372
0.268303
0.265499
0.262873
0.26006
0.255989
0.302896
0.28828
0.282326
0.278574
0.275446
0.272865
0.270448
0.267855
0.264417
0.258454
0.315322
0.289082
0.28123
0.278561
0.277139
0.276354
0.275394
0.273567
0.269777
0.261529
0.167373
0.162844
0.164766
0.168253
0.171292
0.173473
0.174665
0.174911
0.174249
0.172492
0.178392
0.173154
0.173168
0.174969
0.176906
0.178462
0.179373
0.179582
0.179087
0.177759
0.18394
0.180858
0.180583
0.181513
0.182727
0.183801
0.184468
0.184636
0.184287
0.183338
0.189388
0.187719
0.187439
0.187904
0.188648
0.189366
0.189837
0.189968
0.189738
0.189101
0.194969
0.194101
0.193902
0.194141
0.194595
0.195065
0.195389
0.195489
0.195351
0.19496
0.200655
0.200244
0.200136
0.200267
0.200541
0.20084
0.201053
0.201127
0.201058
0.200855
0.206446
0.206298
0.206258
0.206328
0.206481
0.206653
0.206778
0.206825
0.206803
0.206742
0.212327
0.212353
0.212346
0.212365
0.212419
0.212481
0.212523
0.212533
0.212535
0.212588
0.218327
0.218459
0.218458
0.218413
0.218362
0.218307
0.218253
0.218208
0.218213
0.218346
0.224482
0.224676
0.224645
0.224505
0.224318
0.224117
0.223937
0.223807
0.223785
0.223968
0.230858
0.231063
0.230953
0.230668
0.230295
0.229899
0.229545
0.229288
0.229198
0.229391
0.237547
0.237688
0.23743
0.236929
0.236299
0.235638
0.235047
0.234606
0.234398
0.234537
0.244668
0.24462
0.244117
0.243309
0.242332
0.241323
0.240419
0.239727
0.239329
0.239322
0.252366
0.251921
0.251038
0.249812
0.248387
0.246941
0.245646
0.244626
0.24395
0.24366
0.260826
0.259601
0.258167
0.256406
0.25444
0.252484
0.250729
0.249308
0.248251
0.247478
0.270158
0.267637
0.265394
0.262983
0.260421
0.257932
0.255696
0.253822
0.252261
0.250762
0.280436
0.275696
0.272376
0.26928
0.266173
0.263242
0.260596
0.258277
0.256101
0.253552
0.291326
0.283015
0.278409
0.274777
0.27138
0.268303
0.265497
0.26286
0.259996
0.256017
0.302776
0.288607
0.282323
0.278532
0.275432
0.272853
0.27044
0.267834
0.264319
0.258502
0.313987
0.288981
0.280937
0.278376
0.277071
0.276321
0.275378
0.273537
0.269635
0.261605
0.253149
0.261791
0.267146
0.271283
0.274851
0.278095
0.280297
0.280456
0.276791
0.266309
0.224034
0.239952
0.251227
0.260796
0.269877
0.278515
0.285568
0.28937
0.287051
0.27418
0.206599
0.221984
0.235371
0.248873
0.263319
0.278267
0.291884
0.301425
0.302241
0.28767
0.193096
0.206945
0.221132
0.237531
0.256934
0.278724
0.300542
0.318372
0.325053
0.310721
0.18324
0.195862
0.210485
0.229184
0.253122
0.282031
0.313589
0.342785
0.359461
0.349802
0.177299
0.189567
0.204982
0.225965
0.25432
0.290637
0.333529
0.377966
0.411061
0.415038
0.175104
0.188087
0.205062
0.228827
0.261942
0.306295
0.362473
0.427159
0.486386
0.520774
0.175786
0.190233
0.209352
0.236331
0.274642
0.327942
0.39991
0.490625
0.590443
0.694211
0.177697
0.193285
0.213844
0.242869
0.284795
0.345531
0.433402
0.556648
0.725452
1.00528
0.179105
0.194186
0.213562
0.240613
0.280041
0.339211
0.432132
0.586337
0.872652
1.48974
0.253483
0.261313
0.267017
0.271271
0.274849
0.278104
0.280301
0.280489
0.276987
0.266197
0.22446
0.239893
0.251166
0.260762
0.269855
0.278509
0.285561
0.289407
0.287314
0.274027
0.206856
0.222005
0.235341
0.248832
0.26328
0.27824
0.291854
0.301459
0.302582
0.287474
0.193186
0.20693
0.22108
0.237463
0.256861
0.278658
0.300468
0.318389
0.325464
0.310482
0.183268
0.195829
0.210416
0.229087
0.253008
0.281909
0.31345
0.342761
0.359896
0.349546
0.177307
0.189531
0.204902
0.225846
0.254161
0.290437
0.333287
0.377849
0.411418
0.414989
0.175118
0.188065
0.204994
0.228704
0.261744
0.305982
0.362041
0.426826
0.486361
0.521261
0.17583
0.190267
0.209373
0.236332
0.274589
0.32774
0.399534
0.490293
0.589127
0.693889
0.177767
0.193397
0.214028
0.243159
0.285225
0.346091
0.434145
0.557251
0.722215
1.00298
0.179155
0.194225
0.213582
0.240617
0.280055
0.339287
0.432491
0.586773
0.868963
1.49899
0.253483
0.261313
0.267017
0.271271
0.274849
0.278104
0.280301
0.280489
0.276987
0.266197
0.22446
0.239893
0.251166
0.260762
0.269855
0.278509
0.285561
0.289407
0.287314
0.274027
0.206856
0.222005
0.235341
0.248832
0.26328
0.27824
0.291854
0.301459
0.302582
0.287474
0.193186
0.20693
0.22108
0.237463
0.256861
0.278658
0.300468
0.318389
0.325464
0.310482
0.183268
0.195829
0.210416
0.229087
0.253008
0.281909
0.31345
0.342761
0.359896
0.349546
0.177307
0.189531
0.204902
0.225846
0.254161
0.290437
0.333287
0.377849
0.411418
0.414989
0.175118
0.188065
0.204994
0.228704
0.261744
0.305982
0.362041
0.426826
0.486361
0.521261
0.17583
0.190267
0.209373
0.236332
0.274589
0.32774
0.399534
0.490293
0.589127
0.693889
0.177767
0.193397
0.214028
0.243159
0.285225
0.346091
0.434145
0.557251
0.722215
1.00298
0.179155
0.194225
0.213582
0.240617
0.280055
0.339287
0.432491
0.586773
0.868963
1.49899
0.253149
0.261791
0.267146
0.271283
0.274851
0.278096
0.280297
0.280456
0.276791
0.266309
0.224034
0.239952
0.251227
0.260796
0.269877
0.278515
0.285568
0.28937
0.287051
0.27418
0.206599
0.221984
0.235371
0.248873
0.263319
0.278267
0.291884
0.301425
0.302241
0.28767
0.193096
0.206945
0.221132
0.237531
0.256934
0.278725
0.300542
0.318372
0.325053
0.310721
0.18324
0.195862
0.210485
0.229184
0.253122
0.282031
0.313589
0.342785
0.359461
0.349802
0.177299
0.189567
0.204982
0.225965
0.25432
0.290637
0.333529
0.377966
0.411061
0.415038
0.175104
0.188087
0.205062
0.228827
0.261942
0.306295
0.362473
0.427159
0.486386
0.520774
0.175786
0.190233
0.209352
0.236331
0.274642
0.327942
0.39991
0.490625
0.590443
0.694211
0.177697
0.193285
0.213844
0.242869
0.284795
0.345531
0.433402
0.556648
0.725452
1.00528
0.179105
0.194186
0.213562
0.240613
0.280041
0.339211
0.432132
0.586338
0.872652
1.48974
-0.152997
-0.132384
-0.114416
-0.0978254
-0.0812421
-0.0644654
-0.0474907
-0.0303558
-0.0131229
0.00413553
0.0213415
0.0384238
0.055309
0.0719503
0.0883706
0.104755
0.121582
0.139888
0.162968
0.200678
-0.139196
-0.125721
-0.111222
-0.09599
-0.0800767
-0.0636919
-0.0469705
-0.0300101
-0.0128955
0.00429797
0.0215043
0.0386618
0.0557335
0.0727182
0.0896874
0.106847
0.124595
0.143556
0.165246
0.193164
-0.136062
-0.124056
-0.110358
-0.0955058
-0.0798197
-0.0635616
-0.0469032
-0.0299664
-0.0128449
0.00438611
0.0216655
0.0389431
0.0561853
0.0733843
0.0905785
0.107885
0.125518
0.143777
0.163225
0.18479
-0.137302
-0.124976
-0.11109
-0.0960968
-0.080302
-0.0639433
-0.0471885
-0.0301569
-0.0129359
0.00440805
0.0218217
0.0392596
0.0566807
0.0740493
0.091338
0.108535
0.125643
0.142665
0.159664
0.17675
-0.140062
-0.127044
-0.112654
-0.0972715
-0.0811777
-0.0645849
-0.0476426
-0.0304538
-0.0130906
0.00439406
0.0219568
0.039554
0.057133
0.0746227
0.091925
0.108908
0.125399
0.141194
0.15612
0.170138
-0.142572
-0.128916
-0.114042
-0.0982857
-0.0819076
-0.0650989
-0.04799
-0.0306673
-0.0131884
0.00440509
0.0220759
0.0397786
0.0574464
0.0749757
0.0922118
0.108939
0.124885
0.139752
0.153328
0.165669
-0.143162
-0.129248
-0.114222
-0.098373
-0.0819386
-0.0650939
-0.0479595
-0.0306149
-0.0131135
0.00450486
0.0222011
0.0399229
0.0575893
0.0750743
0.0921918
0.108691
0.124271
0.138644
0.151663
0.163542
-0.140943
-0.127371
-0.112713
-0.0972016
-0.0810499
-0.0644293
-0.0474657
-0.0302482
-0.0128404
0.0047071
0.0223442
0.0400063
0.0576004
0.074989
0.091979
0.108323
0.123748
0.138026
0.151118
0.163377
-0.135922
-0.123472
-0.109777
-0.095044
-0.0794942
-0.0633238
-0.046689
-0.0297089
-0.012473
0.00494694
0.0224859
0.0400642
0.0575798
0.0748939
0.0918204
0.108132
0.123592
0.138031
0.151477
0.164353
-0.127743
-0.117574
-0.105621
-0.0921751
-0.0775489
-0.0620253
-0.0458356
-0.0291578
-0.0121257
0.0051579
0.0226047
0.040134
0.0576434
0.0749971
0.0920193
0.108495
0.124192
0.138931
0.152694
0.165798
-0.153368
-0.132265
-0.114401
-0.0978475
-0.0812547
-0.0644729
-0.047496
-0.0303592
-0.0131246
0.00413521
0.0213421
0.0384247
0.055309
0.0719474
0.088361
0.104734
0.121559
0.13984
0.162636
0.200062
-0.139138
-0.125553
-0.111146
-0.0959534
-0.0800504
-0.0636734
-0.046958
-0.0300016
-0.01289
0.00430131
0.0215066
0.0386645
0.0557387
0.072729
0.0897067
0.106879
0.124655
0.143629
0.165147
0.192905
-0.136122
-0.124031
-0.110333
-0.0954875
-0.079805
-0.0635509
-0.0468959
-0.0299613
-0.0128414
0.00438848
0.021667
0.0389441