/*--------------------------------*- C++ -*----------------------------------*\
| =========                 |                                                 |
| \\      /  F ield         | OpenFOAM: The Open Source CFD Toolbox           |
|  \\    /   O peration     | Version:  2.4.0                                 |
|   \\  /    A nd           | Web:      www.OpenFOAM.org                      |
|    \\/     M anipulation  |                                                 |
\*---------------------------------------------------------------------------*/
FoamFile
{
    version     2.0;
    format      ascii;
    class       surfaceScalarField;
    location    "2.3";
    object      phi;
}
// * * * * * * * * * * * * * * * * * * * * * * * * * * * * * * * * * * * * * //

dimensions      [0 3 -1 0 0 0 0];

internalField   nonuniform List<scalar> 
12720
(
1.44526e-07
-1.44621e-07
9.2257e-11
-5.51369e-07
6.94157e-07
1.73748e-09
-2.06588e-06
1.51194e-06
2.57392e-09
-4.15371e-06
2.08454e-06
3.29032e-09
-6.58196e-06
2.42454e-06
3.71637e-09
-9.15918e-06
2.57333e-06
3.88998e-09
-1.17278e-05
2.56472e-06
3.89615e-09
-1.41512e-05
2.4197e-06
3.73879e-09
-1.63103e-05
2.15563e-06
3.39173e-09
1.8009e-06
2.8317e-09
-1.8114e-05
-7.24867e-07
5.81655e-07
-1.40966e-09
-3.27037e-06
3.23925e-06
4.07918e-10
-7.41975e-06
5.6628e-06
-1.48821e-09
-1.27535e-05
7.42065e-06
-2.35852e-09
-1.88302e-05
8.50402e-06
-2.79246e-09
-2.52382e-05
8.98438e-06
-3.06471e-09
-3.16045e-05
8.93415e-06
-3.07366e-09
-3.75929e-05
8.41092e-06
-2.8573e-09
-4.29132e-05
7.47848e-06
-2.5059e-09
6.2434e-06
-2.16163e-09
-4.73536e-05
-1.67389e-06
2.25801e-06
-2.46358e-09
-6.04887e-06
7.61199e-06
2.24492e-09
-1.2533e-05
1.21469e-05
1.12296e-10
-2.05393e-05
1.5427e-05
-8.60387e-11
-2.94917e-05
1.74562e-05
1.22791e-10
-3.88425e-05
1.83351e-05
1.15044e-10
-4.80744e-05
1.81659e-05
1.25009e-10
-5.67031e-05
1.70394e-05
1.81418e-10
-6.43015e-05
1.50766e-05
2.47166e-10
1.24968e-05
1.50712e-10
-7.0555e-05
-2.44804e-06
4.70963e-06
-3.57828e-09
-8.36368e-06
1.35245e-05
3.14388e-09
-1.67759e-05
2.05591e-05
-4.64157e-12
-2.69149e-05
2.55662e-05
-2.68274e-10
-3.80942e-05
2.86355e-05
9.57933e-11
-4.96724e-05
2.99132e-05
1.38464e-10
-6.1029e-05
2.95223e-05
1.77781e-10
-7.15601e-05
2.75702e-05
2.80874e-10
-8.07082e-05
2.42243e-05
4.7556e-10
1.98309e-05
4.17162e-10
-8.80428e-05
-2.99184e-06
7.70584e-06
-4.3671e-09
-1.00274e-05
2.05564e-05
3.68261e-09
-1.98426e-05
3.03747e-05
-4.13582e-10
-3.15152e-05
3.72397e-05
-8.99073e-10
-4.42736e-05
4.13944e-05
-5.3683e-10
-5.74118e-05
4.30519e-05
-5.0996e-10
-7.02339e-05
4.23448e-05
-4.53558e-10
-8.20306e-05
3.93673e-05
-2.60925e-10
-9.20997e-05
3.4293e-05
3.07245e-10
2.75715e-05
5.86694e-10
-9.98408e-05
-3.28416e-06
1.09948e-05
-4.75191e-09
-1.09431e-05
2.82112e-05
4.06693e-09
-2.15471e-05
4.09793e-05
-5.42346e-10
-3.40809e-05
4.97746e-05
-1.14311e-09
-4.77228e-05
5.50372e-05
-7.86505e-10
-6.1733e-05
5.70628e-05
-7.7943e-10
-7.53697e-05
5.59823e-05
-7.60895e-10
-8.7835e-05
5.18332e-05
-6.08666e-10
-9.82589e-05
4.47164e-05
5.23581e-10
3.50754e-05
1.61748e-09
-0.000105764
-3.3178e-06
1.43173e-05
-4.75762e-09
-1.10666e-05
3.59559e-05
4.16593e-09
-2.17867e-05
5.17e-05
-5.79796e-10
-3.44384e-05
6.24276e-05
-1.24971e-09
-4.81897e-05
6.87894e-05
-9.47727e-10
-6.23007e-05
7.11749e-05
-9.82901e-10
-7.60236e-05
6.97062e-05
-1.08948e-09
-8.85107e-05
6.43216e-05
-1.30808e-09
-9.8727e-05
5.4932e-05
6.86231e-10
4.17027e-05
4.09406e-09
-0.000105358
-3.10019e-06
1.74219e-05
-4.38291e-09
-1.04067e-05
4.32584e-05
3.9944e-09
-2.05514e-05
6.18452e-05
-5.29366e-10
-3.25287e-05
7.44061e-05
-1.21583e-09
-4.55244e-05
8.17862e-05
-9.91938e-10
-5.8823e-05
8.44745e-05
-1.00981e-09
-7.17125e-05
8.25968e-05
-1.1436e-09
-8.33674e-05
7.59786e-05
-2.03138e-09
-9.26721e-05
6.42347e-05
2.0088e-09
4.67152e-05
1.42706e-08
-9.76989e-05
-2.66171e-06
2.00872e-05
-3.6551e-09
-9.04699e-06
4.964e-05
3.6171e-09
-1.79691e-05
7.07677e-05
-3.67247e-10
-2.84891e-05
8.49271e-05
-1.02123e-09
-3.98078e-05
9.31058e-05
-9.40057e-10
-5.12172e-05
9.5885e-05
-1.02679e-09
-6.20406e-05
9.34216e-05
-1.38829e-09
-7.15274e-05
8.54702e-05
-4.82784e-09
-7.86981e-05
7.14068e-05
-1.40962e-09
4.90331e-05
3.20344e-08
-8.1048e-05
-2.06475e-06
-2.65592e-09
2.21547e-05
-7.17142e-06
3.12362e-09
5.47436e-05
-1.43635e-05
-6.3286e-11
7.79599e-05
-2.2771e-05
-5.8338e-10
9.33351e-05
-3.15648e-05
-6.26958e-10
0.0001019
-3.99422e-05
-9.36031e-10
0.000104263
-4.71042e-05
-2.00212e-09
0.000100586
-5.21498e-05
-1.21075e-08
9.05278e-05
-5.3978e-05
-2.82167e-08
7.32632e-05
9.46028e-09
-5.14011e-05
4.64468e-05
1.4594e-07
-1.45843e-07
-4.9913e-12
-5.51992e-07
6.99668e-07
5.42901e-13
-2.06662e-06
1.5172e-06
2.74603e-12
-4.15384e-06
2.0905e-06
2.71767e-12
-6.58182e-06
2.4317e-06
2.16619e-12
-9.15904e-06
2.5811e-06
1.35963e-12
-1.17278e-05
2.57262e-06
6.93173e-13
-1.41514e-05
2.42735e-06
7.84632e-13
-1.63106e-05
2.16265e-06
8.40471e-13
1.80678e-06
6.7121e-13
-1.81146e-05
-7.29638e-07
5.82383e-07
4.86346e-13
-3.27592e-06
3.24636e-06
3.03997e-12
-7.42465e-06
5.66443e-06
3.44323e-12
-1.27569e-05
7.42037e-06
2.8075e-12
-1.88318e-05
8.50383e-06
2.30479e-12
-2.52383e-05
8.98449e-06
1.59106e-12
-3.16034e-05
8.93467e-06
1.01831e-12
-3.75909e-05
8.41201e-06
9.37127e-13
-4.29109e-05
7.48016e-06
9.46936e-13
6.24495e-06
7.97677e-13
-4.73513e-05
-1.67926e-06
2.25918e-06
3.74935e-12
-6.04963e-06
7.61897e-06
4.25346e-12
-1.25338e-05
1.21488e-05
3.33219e-12
-2.05403e-05
1.54267e-05
2.59721e-12
-2.94922e-05
1.74558e-05
2.42107e-12
-3.88426e-05
1.8335e-05
1.73956e-12
-4.8074e-05
1.81663e-05
9.8461e-13
-5.67025e-05
1.70407e-05
8.54751e-13
-6.43011e-05
1.5079e-05
9.23289e-13
1.24989e-05
8.21843e-13
-7.05549e-05
-2.45477e-06
4.71036e-06
4.00413e-12
-8.36258e-06
1.35299e-05
3.81761e-12
-1.67748e-05
2.05609e-05
2.95376e-12
-2.69147e-05
2.55664e-05
2.4613e-12
-3.80941e-05
2.86354e-05
2.40439e-12
-4.96723e-05
2.99133e-05
1.69339e-12
-6.10288e-05
2.95229e-05
9.18233e-13
-7.15598e-05
2.75719e-05
8.39748e-13
-8.07086e-05
2.42282e-05
1.00409e-12
1.98348e-05
9.72704e-13
-8.80441e-05
-3.00022e-06
7.70621e-06
3.15017e-12
-1.0026e-05
2.05594e-05
3.04443e-12
-1.9841e-05
3.03755e-05
2.3878e-12
-3.15148e-05
3.72393e-05
2.02513e-12
-4.42736e-05
4.13936e-05
2.02789e-12
-5.74118e-05
4.30511e-05
1.38892e-12
-7.02337e-05
4.23443e-05
7.39907e-13
-8.20301e-05
3.93681e-05
8.23954e-13
-9.21e-05
3.42984e-05
1.11725e-12
2.75786e-05
1.1414e-12
-9.98432e-05
-3.2934e-06
1.09949e-05
2.90769e-12
-1.09416e-05
2.82117e-05
2.83612e-12
-2.15455e-05
4.09788e-05
2.37595e-12
-3.40807e-05
4.97734e-05
2.00063e-12
-4.77233e-05
5.50354e-05
2.00299e-12
-6.17338e-05
5.70608e-05
1.52082e-12
-7.53703e-05
5.598e-05
1.07729e-12
-8.78345e-05
5.18317e-05
1.23607e-12
-9.82591e-05
4.47235e-05
1.44536e-12
3.50898e-05
1.33468e-12
-0.000105769
-3.32712e-06
1.43172e-05
2.91143e-12
-1.10652e-05
3.59539e-05
2.78212e-12
-2.17853e-05
5.16984e-05
2.45351e-12
-3.44388e-05
6.24257e-05
2.13088e-12
-4.81912e-05
6.87868e-05
2.13526e-12
-6.2303e-05
7.11716e-05
1.84185e-12
-7.60257e-05
6.97017e-05
1.61744e-12
-8.85107e-05
6.43154e-05
1.71576e-12
-9.87259e-05
5.49394e-05
1.63292e-12
4.17347e-05
1.19828e-12
-0.000105367
-3.10883e-06
1.74217e-05
2.52455e-12
-1.04054e-05
4.32545e-05
2.38209e-12
-2.05504e-05
6.18429e-05
2.16151e-12
-3.25299e-05
7.44039e-05
1.91307e-12
-4.55271e-05
8.17831e-05
1.95547e-12
-5.8827e-05
8.44705e-05
1.88978e-12
-7.17169e-05
8.25905e-05
1.86763e-12
-8.33675e-05
7.5964e-05
1.84332e-12
-9.26597e-05
6.42335e-05
1.50043e-12
4.6797e-05
7.52248e-13
-9.77077e-05
-2.66898e-06
2.0087e-05
2.06947e-12
-9.04576e-06
4.96348e-05
1.96691e-12
-1.79684e-05
7.07651e-05
1.82294e-12
-2.84909e-05
8.49254e-05
1.64519e-12
-3.98125e-05
9.31037e-05
1.72698e-12
-5.12256e-05
9.58826e-05
1.82313e-12
-6.20548e-05
9.34183e-05
1.85775e-12
-7.15467e-05
8.54511e-05
1.77783e-12
-7.86743e-05
7.13597e-05
1.11901e-12
4.91495e-05
6.03365e-13
-8.09948e-05
-2.07005e-06
1.82178e-12
2.21544e-05
-7.1699e-06
1.74092e-12
5.47378e-05
-1.43623e-05
1.66555e-12
7.79574e-05
-2.27719e-05
1.58265e-12
9.33344e-05
-3.15696e-05
1.6702e-12
0.000101901
-3.9954e-05
1.74695e-12
0.000104266
-4.71327e-05
1.66273e-12
0.000100595
-5.2237e-05
1.38039e-12
9.05433e-05
-5.4117e-05
8.66241e-13
7.32115e-05
6.58192e-13
-5.11755e-05
4.62174e-05
1.45935e-07
-1.45849e-07
-9.02988e-11
-5.51994e-07
6.99668e-07
-1.74007e-09
-2.06662e-06
1.5172e-06
-2.56969e-09
-4.15384e-06
2.0905e-06
-3.28665e-09
-6.58182e-06
2.4317e-06
-3.71349e-09
-9.15903e-06
2.5811e-06
-3.88777e-09
-1.17278e-05
2.57261e-06
-3.89526e-09
-1.41514e-05
2.42735e-06
-3.73808e-09
-1.63106e-05
2.16265e-06
-3.39082e-09
1.80678e-06
-2.83089e-09
-1.81146e-05
-7.29637e-07
5.82382e-07
1.40786e-09
-3.27592e-06
3.24636e-06
-4.05053e-10
-7.42464e-06
5.66443e-06
1.49429e-09
-1.27569e-05
7.42036e-06
2.36315e-09
-1.88318e-05
8.50383e-06
2.79584e-09
-2.52382e-05
8.98449e-06
3.06758e-09
-3.16034e-05
8.93467e-06
3.07551e-09
-3.75909e-05
8.41201e-06
2.85885e-09
-4.29109e-05
7.48016e-06
2.50739e-09
6.24495e-06
2.16286e-09
-4.73512e-05
-1.67926e-06
2.25917e-06
2.4682e-09
-6.04962e-06
7.61897e-06
-2.24031e-09
-1.25338e-05
1.21487e-05
-1.07082e-10
-2.05403e-05
1.54267e-05
8.93749e-11
-2.94922e-05
1.74558e-05
-1.20013e-10
-3.88425e-05
1.8335e-05
-1.12417e-10
-4.8074e-05
1.81662e-05
-1.23459e-10
-5.67025e-05
1.70406e-05
-1.80269e-10
-6.43011e-05
1.5079e-05
-2.45896e-10
1.24989e-05
-1.49476e-10
-7.05549e-05
-2.45477e-06
4.71036e-06
3.58429e-09
-8.36257e-06
1.35299e-05
-3.13926e-09
-1.67747e-05
2.05609e-05
9.85091e-12
-2.69146e-05
2.55664e-05
2.71892e-10
-3.80941e-05
2.86354e-05
-9.23552e-11
-4.96723e-05
2.99133e-05
-1.35306e-10
-6.10288e-05
2.95229e-05
-1.75869e-10
-7.15598e-05
2.75719e-05
-2.79361e-10
-8.07085e-05
2.42282e-05
-4.73865e-10
1.98348e-05
-4.15507e-10
-8.8044e-05
-3.00021e-06
7.70621e-06
4.37207e-09
-1.0026e-05
2.05594e-05
-3.67863e-09
-1.9841e-05
3.03755e-05
4.18216e-10
-3.15148e-05
3.72393e-05
9.02127e-10
-4.42736e-05
4.13936e-05
5.39762e-10
-5.74118e-05
4.30511e-05
5.12593e-10
-7.02337e-05
4.23443e-05
4.5506e-10
-8.20301e-05
3.93681e-05
2.62181e-10
-9.21e-05
3.42984e-05
-3.05597e-10
2.75786e-05
-5.84935e-10
-9.98431e-05
-3.2934e-06
1.09949e-05
4.75613e-09
-1.09416e-05
2.82117e-05
-4.06339e-09
-2.15455e-05
4.09788e-05
5.46325e-10
-3.40807e-05
4.97733e-05
1.14561e-09
-4.77233e-05
5.50354e-05
7.8894e-10
-6.17338e-05
5.70608e-05
7.81638e-10
-7.53703e-05
5.598e-05
7.6222e-10
-8.78345e-05
5.18317e-05
6.09895e-10
-9.8259e-05
4.47235e-05
-5.21901e-10
3.50898e-05
-1.6157e-09
-0.000105769
-3.32712e-06
1.43172e-05
4.76215e-09
-1.10652e-05
3.59539e-05
-4.16223e-09
-2.17853e-05
5.16984e-05
5.837e-10
-3.44388e-05
6.24256e-05
1.25231e-09
-4.81911e-05
6.87868e-05
9.50325e-10
-6.23029e-05
7.11716e-05
9.85337e-10
-7.60257e-05
6.97017e-05
1.09119e-09
-8.85107e-05
6.43154e-05
1.30958e-09
-9.87259e-05
5.49394e-05
-6.84462e-10
4.17347e-05
-4.09226e-09
-0.000105367
-3.10882e-06
1.74216e-05
4.38703e-09
-1.04054e-05
4.32544e-05
-3.99105e-09
-2.05504e-05
6.18428e-05
5.32748e-10
-3.25298e-05
7.44039e-05
1.21816e-09
-4.55271e-05
8.1783e-05
9.94384e-10
-5.8827e-05
8.44705e-05
1.01217e-09
-7.17169e-05
8.25905e-05
1.14531e-09
-8.33675e-05
7.5964e-05
2.03264e-09
-9.26596e-05
6.42335e-05
-2.00734e-09
4.6797e-05
-1.42689e-08
-9.77076e-05
-2.66898e-06
2.0087e-05
3.65844e-09
-9.04575e-06
4.96348e-05
-3.61426e-09
-1.79684e-05
7.07651e-05
3.69915e-10
-2.84909e-05
8.49254e-05
1.0232e-09
-3.98125e-05
9.31037e-05
9.42214e-10
-5.12256e-05
9.58825e-05
1.02885e-09
-6.20548e-05
9.34183e-05
1.38967e-09
-7.15467e-05
8.54511e-05
4.82839e-09
-7.86743e-05
7.13597e-05
1.41025e-09
4.91495e-05
-3.20333e-08
-8.09948e-05
-2.07005e-06
2.65872e-09
2.21544e-05
-7.1699e-06
-3.12104e-09
5.47378e-05
-1.43623e-05
6.55375e-11
7.79574e-05
-2.27719e-05
5.85341e-10
9.33344e-05
-3.15696e-05
6.29184e-10
0.000101901
-3.9954e-05
9.38151e-10
0.000104266
-4.71327e-05
2.00351e-09
0.000100595
-5.2237e-05
1.21079e-08
9.05433e-05
-5.4117e-05
2.82173e-08
7.32115e-05
-9.45929e-09
-5.11755e-05
4.62174e-05
1.44528e-07
-1.44619e-07
-5.51372e-07
6.94158e-07
-2.06588e-06
1.51194e-06
-4.1537e-06
2.08454e-06
-6.58195e-06
2.42453e-06
-9.15917e-06
2.57333e-06
-1.17278e-05
2.56472e-06
-1.41512e-05
2.4197e-06
-1.63102e-05
2.15562e-06
1.8009e-06
-1.8114e-05
-7.24862e-07
5.81653e-07
-3.27036e-06
3.23925e-06
-7.41973e-06
5.66279e-06
-1.27535e-05
7.42065e-06
-1.88302e-05
8.50402e-06
-2.52381e-05
8.98437e-06
-3.16045e-05
8.93414e-06
-3.75928e-05
8.41092e-06
-4.29132e-05
7.47848e-06
6.2434e-06
-4.73535e-05
-1.67388e-06
2.258e-06
-6.04885e-06
7.61198e-06
-1.2533e-05
1.21469e-05
-2.05393e-05
1.5427e-05
-2.94916e-05
1.74562e-05
-3.88425e-05
1.83351e-05
-4.80744e-05
1.81659e-05
-5.6703e-05
1.70394e-05
-6.43014e-05
1.50766e-05
1.24967e-05
-7.05549e-05
-2.44803e-06
4.70962e-06
-8.36366e-06
1.35245e-05
-1.67759e-05
2.05591e-05
-2.69148e-05
2.55662e-05
-3.80941e-05
2.86354e-05
-4.96724e-05
2.99132e-05
-6.10289e-05
2.95223e-05
-7.156e-05
2.75702e-05
-8.07081e-05
2.42242e-05
1.98309e-05
-8.80427e-05
-2.99184e-06
7.70583e-06
-1.00274e-05
2.05563e-05
-1.98426e-05
3.03747e-05
-3.15151e-05
3.72397e-05
-4.42736e-05
4.13944e-05
-5.74117e-05
4.30518e-05
-7.02338e-05
4.23448e-05
-8.20305e-05
3.93672e-05
-9.20996e-05
3.4293e-05
2.75715e-05
-9.98407e-05
-3.28415e-06
1.09947e-05
-1.09431e-05
2.82112e-05
-2.15471e-05
4.09792e-05
-3.40808e-05
4.97746e-05
-4.77228e-05
5.50371e-05
-6.1733e-05
5.70628e-05
-7.53696e-05
5.59823e-05
-8.78349e-05
5.18331e-05
-9.82588e-05
4.47164e-05
3.50754e-05
-0.000105764
-3.31779e-06
1.43173e-05
-1.10666e-05
3.59558e-05
-2.17866e-05
5.16999e-05
-3.44383e-05
6.24275e-05
-4.81896e-05
6.87894e-05
-6.23007e-05
7.11748e-05
-7.60235e-05
6.97062e-05
-8.85106e-05
6.43216e-05
-9.87269e-05
5.4932e-05
4.17027e-05
-0.000105358
-3.10018e-06
1.74219e-05
-1.04067e-05
4.32583e-05
-2.05514e-05
6.18451e-05
-3.25287e-05
7.4406e-05
-4.55244e-05
8.17861e-05
-5.8823e-05
8.44745e-05
-7.17125e-05
8.25968e-05
-8.33674e-05
7.59786e-05
-9.2672e-05
6.42346e-05
4.67152e-05
-9.76988e-05
-2.66171e-06
2.00872e-05
-9.04697e-06
4.964e-05
-1.79691e-05
7.07676e-05
-2.8489e-05
8.4927e-05
-3.98078e-05
9.31058e-05
-5.12172e-05
9.58849e-05
-6.20406e-05
9.34216e-05
-7.15273e-05
8.54701e-05
-7.8698e-05
7.14067e-05
4.90331e-05
-8.1048e-05
-2.06475e-06
2.21546e-05
-7.17141e-06
5.47435e-05
-1.43635e-05
7.79598e-05
-2.2771e-05
9.3335e-05
-3.15648e-05
0.0001019
-3.99422e-05
0.000104263
-4.71042e-05
0.000100586
-5.21497e-05
9.05278e-05
-5.3978e-05
7.32632e-05
-5.14011e-05
4.64468e-05
-1.95218e-05
1.40565e-06
2.12683e-09
-2.05549e-05
1.03166e-06
1.48539e-09
-2.12757e-05
7.19789e-07
9.81445e-10
-2.17604e-05
4.84115e-07
6.18108e-10
-2.20815e-05
3.2072e-07
3.78108e-10
-2.22992e-05
2.17486e-07
2.33703e-10
-2.24604e-05
1.61055e-07
1.5863e-10
-2.26008e-05
1.40226e-07
1.33027e-10
-2.27476e-05
1.46662e-07
1.43236e-10
-2.29219e-05
1.74073e-07
1.80654e-10
-2.31387e-05
2.16639e-07
2.39488e-10
-2.34061e-05
2.67047e-07
3.13607e-10
-2.37208e-05
3.14332e-07
3.93743e-10
-2.40631e-05
3.41789e-07
4.64306e-10
-2.43891e-05
3.2549e-07
4.99202e-10
-2.4624e-05
2.3449e-07
4.56525e-10
-2.46593e-05
3.50343e-08
2.82372e-10
-2.43548e-05
-3.0446e-07
-5.62422e-11
-2.35619e-05
-7.92262e-07
-6.52803e-10
-1.40369e-06
-1.55043e-09
-2.21567e-05
-5.08271e-05
4.88104e-06
-1.91146e-09
-5.33932e-05
3.59944e-06
-1.59452e-09
-5.52043e-05
2.53214e-06
-1.25949e-09
-5.64423e-05
1.72305e-06
-9.60439e-10
-5.72783e-05
1.15738e-06
-7.16421e-10
-5.78543e-05
7.94091e-07
-5.37011e-10
-5.82809e-05
5.88078e-07
-4.21463e-10
-5.86411e-05
5.00776e-07
-3.62101e-10
-5.89964e-05
5.02316e-07
-3.48517e-10
-5.9391e-05
5.68968e-07
-3.68735e-10
-5.98522e-05
6.7825e-07
-4.08147e-10
-6.03876e-05
8.02925e-07
-4.47727e-10
-6.09774e-05
9.04621e-07
-4.61699e-10
-6.15632e-05
9.28004e-07
-4.1568e-10
-6.20347e-05
7.97218e-07
-2.67495e-10
-6.2218e-05
4.17764e-07
2.64845e-11
-6.18719e-05
-3.11572e-07
4.96244e-10
-6.0704e-05
-1.47349e-06
1.12922e-09
-5.84093e-05
-3.08882e-06
1.88825e-09
-5.06676e-06
2.60159e-09
-5.47488e-05
-7.53479e-05
9.67414e-06
-2.37842e-10
-7.881e-05
7.06195e-06
-4.11856e-10
-8.1203e-05
4.92565e-06
-4.50295e-10
-8.28107e-05
3.33116e-06
-4.27285e-10
-8.38816e-05
2.22864e-06
-3.64511e-10
-8.46109e-05
1.52371e-06
-2.90829e-10
-8.51433e-05
1.12071e-06
-2.24299e-10
-8.55832e-05
9.40791e-07
-1.71797e-10
-8.60046e-05
9.23897e-07
-1.33987e-10
-8.64582e-05
1.02271e-06
-1.08094e-10
-8.69729e-05
1.19298e-06
-8.97653e-11
-8.75522e-05
1.38231e-06
-7.34483e-11
-8.81661e-05
1.51857e-06
-5.23984e-11
-8.87372e-05
1.49918e-06
-1.83177e-11
-8.91243e-05
1.18427e-06
3.96931e-11
-8.91057e-05
3.9904e-07
1.29898e-10
-8.83714e-05
-1.04616e-06
2.46669e-10
-8.65349e-05
-3.31033e-06
3.83204e-10
-8.31813e-05
-6.44303e-06
5.22874e-10
-1.02811e-05
4.44029e-10
-7.79673e-05
-9.3419e-05
1.50507e-05
-3.73256e-10
-9.71001e-05
1.07436e-05
-6.01622e-10
-9.95103e-05
7.33643e-06
-5.96647e-10
-0.000101049
4.87078e-06
-5.30196e-10
-0.000102029
3.20886e-06
-4.21685e-10
-0.000102671
2.16539e-06
-3.11969e-10
-0.000103123
1.57319e-06
-2.21175e-10
-0.000103486
1.30371e-06
-1.52576e-10
-0.000103825
1.26375e-06
-1.03908e-10
-0.000104185
1.38278e-06
-7.08925e-11
-0.000104589
1.59709e-06
-4.9281e-11
-0.00010504
1.83289e-06
-3.53953e-11
-0.00010551
1.98899e-06
-2.57618e-11
-0.000105931
1.92022e-06
-1.46865e-11
-0.000106172
1.42447e-06
1.28033e-11
-0.000106013
2.40066e-07
7.16229e-11
-0.000105128
-1.93121e-06
1.38644e-10
-0.000103071
-5.36707e-06
2.65699e-10
-9.93116e-05
-1.02032e-05
5.08179e-10
-1.62497e-05
4.46988e-10
-9.33435e-05
-0.000105044
2.0255e-05
-1.01637e-09
-0.000108229
1.39294e-05
-1.13693e-09
-0.000110073
9.18137e-06
-9.18769e-10
-0.00011111
5.90851e-06
-7.18134e-10
-0.000111691
3.79103e-06
-5.05326e-10
-0.000112029
2.50294e-06
-3.31939e-10
-0.000112242
1.78684e-06
-2.11929e-10
-0.0001124
1.46211e-06
-1.34636e-10
-0.000112544
1.40705e-06
-8.8237e-11
-0.000112696
1.53544e-06
-6.33129e-11
-0.000112873
1.77351e-06
-5.35279e-11
-0.000113077
2.03785e-06
-5.48561e-11
-0.000113302
2.21317e-06
-6.43097e-11
-0.00011351
2.12917e-06
-7.5402e-11
-0.000113624
1.53821e-06
-6.13376e-11
-0.000113482
9.77892e-08
1.36235e-11
-0.000112799
-2.61445e-06
7.56603e-11
-0.000111108
-7.05843e-06
2.64134e-10
-0.000107739
-1.35723e-05
8.89708e-10
-2.20821e-05
1.26557e-09
-0.000101908
-0.000109956
2.44484e-05
-2.17882e-09
-0.000111869
1.58445e-05
-1.85134e-09
-0.000112576
9.8897e-06
-1.1549e-09
-0.000112739
6.07206e-06
-7.73102e-10
-0.000112694
3.74665e-06
-4.54726e-10
-0.000112589
2.39779e-06
-2.39856e-10
-0.000112475
1.6737e-06
-1.18867e-10
-0.000112367
1.3533e-06
-5.48485e-11
-0.00011226
1.30097e-06
-2.37045e-11
-0.000112154
1.42873e-06
-1.16965e-11
-0.000112047
1.66683e-06
-1.217e-11
-0.000111948
1.93888e-06
-2.28849e-11
-0.000111872
2.13712e-06
-4.40468e-11
-0.000111837
2.09461e-06
-7.4627e-11
-0.000111851
1.55195e-06
-9.14526e-11
-0.00011187
1.16673e-07
-5.01924e-11
-0.000111729
-2.75558e-06
-2.2391e-11
-0.00011102
-7.7676e-06
1.51248e-10
-0.000108947
-1.56468e-05
1.52469e-09
-2.67633e-05
3.20336e-09
-0.000104269
-0.000107504
2.65997e-05
-5.8068e-09
-0.000107307
1.56515e-05
-3.8172e-09
-0.000106397
8.98163e-06
-1.75571e-09
-0.000105468
5.14392e-06
-9.1491e-10
-0.000104723
3.0021e-06
-3.88452e-10
-0.000104168
1.84263e-06
-1.19743e-10
-0.000103747
1.25254e-06
-1.43556e-11
-0.000103398
1.00428e-06
2.01606e-11
-0.00010307
9.7341e-07
2.4376e-11
-0.000102729
1.08782e-06
1.49153e-11
-0.000102358
1.296e-06
-2.78421e-12
-0.000101963
1.54393e-06
-2.84344e-11
-0.000101579
1.75296e-06
-6.33919e-11
-0.000101277
1.79258e-06
-1.1101e-10
-0.000101166
1.44071e-06
-1.49826e-10
-0.00010137
3.21227e-07
-8.4613e-11
-0.000101949
-2.17707e-06
9.34018e-11
-0.000102717
-6.99956e-06
4.68232e-10
-0.00010289
-1.54777e-05
3.67079e-09
-2.90758e-05
8.79695e-09
-0.000100586
-9.63415e-05
2.52522e-05
-9.87264e-09
-9.32402e-05
1.25541e-05
-3.98887e-09
-9.05399e-05
6.2822e-06
-8.01337e-10
-8.86263e-05
3.23059e-06
-3.07268e-10
-8.73612e-05
1.73693e-06
3.8469e-11
-8.65269e-05
1.00819e-06
1.60728e-10
-8.59415e-05
6.67028e-07
1.51874e-10
-8.54742e-05
5.36833e-07
1.24684e-10
-8.50353e-05
5.34396e-07
1.03174e-10
-8.45658e-05
6.18203e-07
8.82642e-11
-8.40326e-05
7.62804e-07
7.60976e-11
-8.34321e-05
9.4329e-07
6.04931e-11
-8.28006e-05
1.12143e-06
3.21367e-11
-8.22348e-05
1.22688e-06
-3.46445e-11
-8.19181e-05
1.12416e-06
-1.33446e-10
-8.21425e-05
5.45632e-07
-5.14993e-11
-8.32727e-05
-1.04694e-06
1.09779e-10
-8.56137e-05
-4.6581e-06
-4.51785e-10
-8.88353e-05
-1.22594e-05
3.25339e-09
-2.74032e-05
1.4074e-08
-9.0522e-05
-7.36318e-05
1.78483e-05
-1.23495e-08
-6.74393e-05
6.35622e-06
5.4618e-09
-6.36336e-05
2.47032e-06
6.0916e-09
-6.14471e-05
1.04152e-06
2.58708e-09
-6.01929e-05
4.81458e-07
1.33262e-09
-5.94411e-05
2.55579e-07
8.05585e-10
-5.89413e-05
1.66728e-07
5.03062e-10
-5.85464e-05
1.4155e-07
3.78425e-10
-5.81653e-05
1.5289e-07
3.62319e-10
-5.7738e-05
1.90535e-07
4.07665e-10
-5.72259e-05
2.50176e-07
4.89836e-10
-5.66116e-05
3.28424e-07
5.87526e-10
-5.59098e-05
4.18992e-07
6.63697e-10
-5.51903e-05
5.06759e-07
6.22993e-10
-5.46209e-05
5.54416e-07
3.42562e-10
-5.45501e-05
4.74945e-07
-1.20185e-10
-5.55466e-05
-4.88103e-08
-1.69906e-09
-5.86278e-05
-1.56927e-06
-7.54925e-09
-6.48613e-05
-6.01579e-06
-1.01812e-08
-1.90298e-05
1.52966e-08
-7.325e-05
-3.34845e-05
-6.8289e-08
-2.71168e-05
-1.1502e-08
-2.46457e-05
-8.02272e-10
-2.36023e-05
-1.84989e-09
-2.31196e-05
-1.19937e-09
-2.28635e-05
-5.59425e-10
-2.26964e-05
-3.14409e-10
-2.25547e-05
-2.21495e-10
-2.24016e-05
-1.95179e-10
-2.22108e-05
-2.14099e-10
-2.19604e-05
-2.65033e-10
-2.16316e-05
-3.35044e-10
-2.12122e-05
-4.05385e-10
-2.0705e-05
-4.42857e-10
-2.01503e-05
-3.32148e-10
-1.96756e-05
2.45743e-10
-1.97252e-05
8.45323e-10
-2.1292e-05
-2.47825e-09
-2.73129e-05
5.05592e-09
8.5972e-08
-4.64286e-05
-1.95223e-05
1.40988e-06
4.5048e-13
-2.05554e-05
1.03452e-06
3.88557e-13
-2.1276e-05
7.21631e-07
4.31144e-13
-2.17606e-05
4.85242e-07
4.23787e-13
-2.20817e-05
3.21392e-07
3.15666e-13
-2.22993e-05
2.179e-07
1.9069e-13
-2.24605e-05
1.61351e-07
9.81599e-14
-2.26009e-05
1.40499e-07
-4.35224e-14
-2.27477e-05
1.46979e-07
-2.10168e-13
-2.2922e-05
1.74482e-07
-3.03097e-13
-2.3139e-05
2.17174e-07
-3.81892e-13
-2.34064e-05
2.67724e-07
-4.15019e-13
-2.37211e-05
3.15146e-07
-3.15611e-13
-2.40633e-05
3.42696e-07
-1.42287e-13
-2.43892e-05
3.26403e-07
2.60755e-14
-2.46241e-05
2.35268e-07
2.20034e-13
-2.4659e-05
3.52659e-08
4.64557e-13
-2.43544e-05
-3.04698e-07
7.40476e-13
-2.35615e-05
-7.93568e-07
1.00349e-12
-1.40667e-06
1.21939e-12
-2.21564e-05
-5.08246e-05
4.88129e-06
5.97499e-13
-5.33907e-05
3.59909e-06
5.13809e-13
-5.52021e-05
2.5317e-06
5.35346e-13
-5.64404e-05
1.72266e-06
5.58243e-13
-5.72769e-05
1.15709e-06
4.57426e-13
-5.78534e-05
7.93903e-07
2.78107e-13
-5.82804e-05
5.87961e-07
1.24521e-13
-5.8641e-05
5.00695e-07
6.17217e-15
-5.89966e-05
5.02234e-07
-1.35792e-13
-5.93913e-05
5.68849e-07
-2.51559e-13
-5.98526e-05
6.78057e-07
-3.20755e-13
-6.0388e-05
8.02622e-07
-2.92026e-13
-6.09775e-05
9.04185e-07
-1.42053e-13
-6.15626e-05
9.27445e-07
7.32918e-14
-6.20331e-05
7.96615e-07
2.95449e-13
-6.22151e-05
4.17285e-07
5.35238e-13
-6.18676e-05
-3.1169e-07
7.49702e-13
-6.06985e-05
-1.47273e-06
8.91939e-13
-5.84033e-05
-3.08688e-06
9.81336e-13
-5.0643e-06
1.03399e-12
-5.47431e-05
-7.53471e-05
9.67323e-06
6.30266e-13
-7.88085e-05
7.06011e-06
4.90005e-13
-8.12013e-05
4.92403e-06
4.591e-13
-8.28091e-05
3.32996e-06
5.26617e-13
-8.38802e-05
2.22786e-06
5.24463e-13
-8.46099e-05
1.52327e-06
4.31577e-13
-8.51426e-05
1.12049e-06
2.8189e-13
-8.55828e-05
9.40674e-07
1.10023e-13
-8.60045e-05
9.23802e-07
-2.31554e-14
-8.64583e-05
1.02256e-06
-5.94616e-14
-8.6973e-05
1.19271e-06
-6.45645e-14
-8.75523e-05
1.38186e-06
-5.74096e-14
-8.81661e-05
1.51788e-06
-1.01519e-15
-8.87369e-05
1.49824e-06
8.43014e-14
-8.91234e-05
1.18319e-06
1.51841e-13
-8.91041e-05
3.9808e-07
2.04955e-13
-8.83689e-05
-1.04661e-06
2.14653e-13
-8.65318e-05
-3.30945e-06
1.82022e-13
-8.31782e-05
-6.43998e-06
1.72427e-13
-1.02772e-05
2.66015e-13
-7.79649e-05
-9.34187e-05
1.50475e-05
7.80686e-13
-9.70985e-05
1.07393e-05
5.07574e-13
-9.95082e-05
7.33318e-06
2.96166e-13
-0.000101047
4.8686e-06
2.98637e-13
-0.000102028
3.20756e-06
3.35024e-13
-0.000102669
2.16472e-06
2.79443e-13
-0.000103122
1.5729e-06
1.13958e-13
-0.000103485
1.3036e-06
-3.18117e-14
-0.000103825
1.2637e-06
-1.29438e-14
-0.000104185
1.38268e-06
1.1299e-13
-0.000104589
1.59686e-06
1.68162e-13
-0.00010504
1.83244e-06
1.63114e-13
-0.00010551
1.98823e-06
1.70105e-13
-0.000105931
1.91911e-06
1.77361e-13
-0.000106171
1.42308e-06
1.33724e-13
-0.000106012
2.38823e-07
2.17872e-14
-0.000105126
-1.93213e-06
-1.50968e-13
-0.000103069
-5.3663e-06
-2.11728e-13
-9.93098e-05
-1.01987e-05
-1.06309e-13
-1.62436e-05
1.59961e-13
-9.33429e-05
-0.000105043
2.02465e-05
9.70561e-13
-0.000108226
1.39208e-05
6.67882e-13
-0.00011007
9.17607e-06
3.47853e-13
-0.000111107
5.9054e-06
2.58046e-13
-0.00011169
3.7894e-06
2.12806e-13
-0.000112027
2.50221e-06
1.38096e-13
-0.000112241
1.78658e-06
-8.97239e-14
-0.0001124
1.46205e-06
-2.83788e-13
-0.000112543
1.40705e-06
-2.52075e-13
-0.000112696
1.53539e-06
-4.3564e-14
-0.000112873
1.7733e-06
9.3595e-14
-0.000113078
2.0374e-06
1.30196e-13
-0.000113302
2.21235e-06
1.00369e-13
-0.000113511
2.12787e-06
-3.8111e-15
-0.000113624
1.53644e-06
-1.60507e-13
-0.000113482
9.63808e-08
-2.91834e-13
-0.000112797
-2.61617e-06
-2.59634e-13
-0.000111105
-7.05816e-06
-7.3533e-16
-0.000107737
-1.35657e-05
3.75175e-13
-2.20712e-05
7.94072e-13
-0.000101909
-0.000109953
2.44284e-05
1.12676e-12
-0.000111863
1.58294e-05
9.16475e-13
-0.000112571
9.88293e-06
5.97072e-13
-0.000112736
6.06889e-06
4.78478e-13
-0.000112692
3.74535e-06
4.57485e-13
-0.000112587
2.39742e-06
4.51873e-13
-0.000112475
1.67369e-06
1.94491e-13
-0.000112366
1.35341e-06
-1.60815e-13
-0.00011226
1.30107e-06
-2.62987e-13
-0.000112153
1.42875e-06
-1.09559e-13
-0.000112047
1.6667e-06
5.96887e-14
-0.000111948
1.9385e-06
8.32206e-14
-0.000111872
2.13635e-06
-9.31214e-14
-0.000111838
2.09328e-06
-4.17735e-13
-0.000111851
1.54994e-06
-7.24264e-13
-0.00011187
1.14915e-07
-7.37375e-13
-0.000111727
-2.7585e-06
-4.28197e-13
-0.000111017
-7.76881e-06
4.34203e-14
-0.000108944
-1.56367e-05
3.18364e-13
-2.67406e-05
3.83848e-13
-0.000104271
-0.000107497
2.65525e-05
8.34915e-13
-0.000107297
1.5626e-05
6.92954e-13
-0.000106391
8.97487e-06
5.18833e-13
-0.000105465
5.14207e-06
4.44107e-13
-0.000104722
3.00185e-06
5.39672e-13
-0.000104167
1.8429e-06
6.83363e-13
-0.000103746
1.25286e-06
5.38362e-13
-0.000103398
1.00451e-06
1.9044e-13
-0.00010307
9.73549e-07
6.1752e-15
-0.000102729
1.08784e-06
8.24387e-14
-0.000102358
1.29587e-06
2.04092e-13
-0.000101963
1.54357e-06
1.26862e-13
-0.000101579
1.75224e-06
-2.17137e-13
-0.000101277
1.79125e-06
-6.32602e-13
-0.000101166
1.43857e-06
-7.98599e-13
-0.00010137
3.1872e-07
-5.58313e-13
-0.000101947
-2.18106e-06
-1.37395e-13
-0.000102713
-7.00255e-06
7.94419e-14
-0.000102886
-1.54605e-05
-2.12065e-13
-2.90218e-05
-7.27599e-13
-0.000100596
-9.63274e-05
2.51623e-05
5.04437e-13
-9.323e-05
1.25247e-05
3.48539e-13
-9.05366e-05
6.2807e-06
1.12041e-13
-8.86261e-05
3.23128e-06
-1.04517e-13
-8.73618e-05
1.73755e-06
-3.51129e-16
-8.65275e-05
1.00873e-06
3.63618e-13
-8.59418e-05
6.6737e-07
3.87189e-13
-8.54742e-05
5.3702e-07
1.66695e-13
-8.5035e-05
5.34486e-07
3.32136e-14
-8.45653e-05
6.18222e-07
8.59215e-14
-8.40321e-05
7.62746e-07
1.24665e-13
-8.34316e-05
9.4312e-07
-8.06928e-14
-8.28004e-05
1.12106e-06
-4.74069e-13
-8.22353e-05
1.22614e-06
-7.06392e-13
-8.19196e-05
1.12273e-06
-5.12387e-13
-8.21445e-05
5.43492e-07
-1.22219e-13
-8.32763e-05
-1.04915e-06
1.18162e-13
-8.56163e-05
-4.663e-06
4.11092e-15
-8.88329e-05
-1.22405e-05
-7.08893e-13
-2.73033e-05
-1.44722e-12
-9.05375e-05
-7.36138e-05
1.77689e-05
5.49731e-13
-6.7447e-05
6.36335e-06
3.95761e-13
-6.36423e-05
2.48206e-06
3.10812e-13
-6.14535e-05
1.04505e-06
1.83776e-13
-6.01967e-05
4.82129e-07
6.39082e-14
-5.9443e-05
2.55793e-07
1.87975e-13
-5.8942e-05
1.66906e-07
2.03313e-13
-5.85464e-05
1.41778e-07
6.16253e-14
-5.81647e-05
1.53221e-07
-9.85629e-15
-5.77371e-05
1.9102e-07
1.06218e-14
-5.72248e-05
2.50877e-07
-7.91357e-14
-5.66105e-05
3.29417e-07
-3.97199e-13
-5.59091e-05
4.20368e-07
-6.85826e-13
-5.5191e-05
5.08639e-07
-6.11315e-13
-5.46247e-05
5.56766e-07
-1.87458e-13
-5.45565e-05
4.75209e-07
-5.72619e-14
-5.55612e-05
-4.61281e-08
-2.3815e-13
-5.86537e-05
-1.57811e-06
-6.84661e-13
-6.48766e-05
-6.02782e-06
-1.64038e-12
-1.89662e-05
-1.98557e-12
-7.31983e-05
-3.34748e-05
3.11731e-13
-2.7123e-05
3.0886e-13
-2.46417e-05
4.49398e-14
-2.35985e-05
4.80751e-14
-2.31176e-05
2.3315e-13
-2.28624e-05
3.31461e-13
-2.26958e-05
2.55638e-13
-2.25542e-05
1.14482e-13
-2.24012e-05
6.16202e-14
-2.22104e-05
2.42045e-14
-2.19598e-05
-1.59748e-13
-2.16307e-05
-4.2486e-13
-2.12107e-05
-4.84153e-13
-2.07025e-05
-2.359e-13
-2.01461e-05
-7.83303e-15
-1.96706e-05
-1.16058e-13
-1.97159e-05
-6.0851e-13
-2.12965e-05
-1.52672e-12
-2.73193e-05
-1.95171e-12
-2.30144e-12
-4.61995e-05
-1.95223e-05
1.40988e-06
-2.12629e-09
-2.05554e-05
1.03452e-06
-1.48501e-09
-2.1276e-05
7.21631e-07
-9.81046e-10
-2.17606e-05
4.85242e-07
-6.17663e-10
-2.20816e-05
3.21391e-07
-3.77686e-10
-2.22993e-05
2.179e-07
-2.33449e-10
-2.24605e-05
1.61351e-07
-1.58526e-10
-2.26009e-05
1.40499e-07
-1.32999e-10
-2.27477e-05
1.46979e-07
-1.43301e-10
-2.2922e-05
1.74482e-07
-1.80981e-10
-2.31389e-05
2.17173e-07
-2.40067e-10
-2.34063e-05
2.67724e-07
-3.14237e-10
-2.37211e-05
3.15145e-07
-3.9423e-10
-2.40633e-05
3.42696e-07
-4.64532e-10
-2.43892e-05
3.26403e-07
-4.99097e-10
-2.4624e-05
2.35268e-07
-4.55989e-10
-2.4659e-05
3.52664e-08
-2.81361e-10
-2.43544e-05
-3.04696e-07
5.76951e-11
-2.35615e-05
-7.93567e-07
6.54666e-10
-1.40667e-06
1.55267e-09
-2.21564e-05
-5.08245e-05
4.88129e-06
1.9124e-09
-5.33907e-05
3.59909e-06
1.59533e-09
-5.5202e-05
2.5317e-06
1.26031e-09
-5.64404e-05
1.72266e-06
9.61342e-10
-5.72768e-05
1.15709e-06
7.17372e-10
-5.78534e-05
7.93902e-07
5.37756e-10
-5.82804e-05
5.8796e-07
4.2195e-10
-5.8641e-05
5.00694e-07
3.62278e-10
-5.89966e-05
5.02233e-07
3.48394e-10
-5.93913e-05
5.68848e-07
3.68366e-10
-5.98526e-05