/*--------------------------------*- C++ -*----------------------------------*\
| =========                 |                                                 |
| \\      /  F ield         | OpenFOAM: The Open Source CFD Toolbox           |
|  \\    /   O peration     | Version:  2.4.0                                 |
|   \\  /    A nd           | Web:      www.OpenFOAM.org                      |
|    \\/     M anipulation  |                                                 |
\*---------------------------------------------------------------------------*/
FoamFile
{
    version     2.0;
    format      ascii;
    class       volVectorField;
    location    "2.3";
    object      U;
}
// * * * * * * * * * * * * * * * * * * * * * * * * * * * * * * * * * * * * * //

dimensions      [0 1 -1 0 0 0 0];

internalField   nonuniform List<vector> 
4800
(
(0.000297493 -0.000300803 5.06866e-08)
(-2.44398e-06 0.000163061 0.000214495)
(-0.00185611 0.000663684 0.000436201)
(-0.00481978 0.00100058 0.000597831)
(-0.00850278 0.00119097 0.000656146)
(-0.0125689 0.0012724 0.000591165)
(-0.0167394 0.001272 0.000396847)
(-0.02078 0.00120342 7.39011e-05)
(-0.0244839 0.00107396 -0.000371456)
(-0.0276771 0.000895632 -0.00092618)
(-0.000187958 1.80287e-06 -0.000213788)
(-0.00247612 0.00238902 5.1365e-06)
(-0.00799955 0.00470435 0.000169064)
(-0.0157738 0.00636838 0.000263731)
(-0.0250644 0.0073798 0.00027137)
(-0.0352037 0.00783163 0.000176294)
(-0.0455622 0.00780937 -2.79903e-05)
(-0.0555694 0.00737225 -0.000343617)
(-0.0647157 0.00657513 -0.000768991)
(-0.0725822 0.00550661 -0.00129731)
(-0.000774064 0.00198062 -0.000440621)
(-0.00515704 0.00802765 -0.000152033)
(-0.0141122 0.0133881 1.27029e-05)
(-0.0259767 0.0172986 8.6125e-05)
(-0.0397636 0.0197264 7.66227e-05)
(-0.0546173 0.0208026 -2.46132e-05)
(-0.0696851 0.0206685 -0.000221757)
(-0.0841579 0.0194448 -0.000518381)
(-0.0972905 0.017277 -0.000917249)
(-0.108457 0.0144121 -0.00141762)
(-0.00124051 0.0053537 -0.000591614)
(-0.00737981 0.0164115 -0.000218641)
(-0.0192199 0.025525 -3.05135e-05)
(-0.0344078 0.0320872 4.489e-05)
(-0.0517238 0.0361413 3.74792e-05)
(-0.0701826 0.0378753 -5.57135e-05)
(-0.08878 0.0374722 -0.000237211)
(-0.106528 0.0350986 -0.000513121)
(-0.122477 0.0309924 -0.000892306)
(-0.135779 0.0256009 -0.00138249)
(-0.00155794 0.0097901 -0.000593708)
(-0.00895877 0.0269372 -0.000147664)
(-0.0229081 0.0403241 6.52807e-05)
(-0.0405049 0.0497789 0.00015276)
(-0.0603412 0.0555448 0.000160257)
(-0.0813408 0.0579018 8.82101e-05)
(-0.102397 0.0570589 -6.67482e-05)
(-0.122384 0.0531916 -0.000316083)
(-0.140153 0.0465941 -0.000678507)
(-0.154565 0.0379138 -0.00117693)
(-0.00172211 0.0149037 -0.000398994)
(-0.00981438 0.0388783 0.000101423)
(-0.0249487 0.056905 0.000334841)
(-0.0439024 0.0694146 0.000441428)
(-0.0651524 0.076943 0.000475886)
(-0.0875741 0.0798928 0.000439413)
(-0.110008 0.0784805 0.000324631)
(-0.131236 0.0728314 0.000110922)
(-0.149927 0.0632066 -0.000235772)
(-0.164528 0.0503684 -0.000768218)
(-0.00173433 0.0202795 1.53422e-05)
(-0.00991665 0.0513979 0.000548655)
(-0.0252297 0.0742269 0.000795106)
(-0.044382 0.0898597 0.00092577)
(-0.065819 0.0991705 0.000998747)
(-0.0884133 0.102706 0.00101399)
(-0.111008 0.10067 0.000957198)
(-0.132368 0.0930611 0.000794791)
(-0.151063 0.0799494 0.000471592)
(-0.164986 0.0619425 -0.00012525)
(-0.00160208 0.0255021 0.00064926)
(-0.0092839 0.0636272 0.00119415)
(-0.0237596 0.0911791 0.00144501)
(-0.0419016 0.109871 0.00160325)
(-0.0621918 0.120913 0.00172569)
(-0.0835261 0.125009 0.00181051)
(-0.104791 0.122348 0.00183509)
(-0.124831 0.11274 0.0017509)
(-0.142347 0.0958517 0.00148089)
(-0.154636 0.0715306 0.000796946)
(-0.00134514 0.0301842 0.00148078)
(-0.00800384 0.0747363 0.00201867)
(-0.0207149 0.106663 0.0022652)
(-0.0366914 0.128159 0.00245226)
(-0.0544763 0.140722 0.00263225)
(-0.0729611 0.145222 0.00280288)
(-0.0910421 0.141884 0.00293402)
(-0.107655 0.130367 0.00296148)
(-0.122014 0.109885 0.00279792)
(-0.131252 0.0786845 0.00201216)
(-0.00100184 0.0340102 0.00246839)
(-0.00625713 0.0840281 0.00298609)
(-0.0164982 0.11971 0.00321978)
(-0.0293805 0.143511 0.00343302)
(-0.0434818 0.157098 0.00367264)
(-0.0575742 0.161467 0.00394086)
(-0.0703474 0.156931 0.00420952)
(-0.080445 0.143131 0.00441078)
(-0.0875786 0.119131 0.0045134)
(-0.090724 0.0821901 0.00390119)
(0.000302399 -0.000305295 4.73066e-08)
(4.57912e-06 0.000157212 1.35258e-06)
(-0.00185243 0.000649818 2.00648e-06)
(-0.00481721 0.000981055 2.56495e-06)
(-0.00850133 0.00116835 2.89655e-06)
(-0.0125684 0.00124828 3.03111e-06)
(-0.0167396 0.00124785 3.03549e-06)
(-0.020781 0.00118057 2.91296e-06)
(-0.0244861 0.00105352 2.64268e-06)
(-0.0276805 0.000878213 2.20629e-06)
(-0.000180689 -5.46362e-06 -1.09905e-06)
(-0.00247316 0.00238702 3.18618e-07)
(-0.00800699 0.00469324 -1.15545e-06)
(-0.0157784 0.00635222 -1.83244e-06)
(-0.0250667 0.00736187 -2.17011e-06)
(-0.0352044 0.00781289 -2.38248e-06)
(-0.0455612 0.00779078 -2.38988e-06)
(-0.0555674 0.00735483 -2.22163e-06)
(-0.0647137 0.00655974 -1.94832e-06)
(-0.0725811 0.00549332 -1.68069e-06)
(-0.000758262 0.00197513 -1.91688e-06)
(-0.00514592 0.00803412 1.74877e-06)
(-0.014119 0.0133912 8.95176e-08)
(-0.0259789 0.0173019 -6.49874e-08)
(-0.0397637 0.0197315 9.74443e-08)
(-0.0546171 0.0208088 9.0769e-08)
(-0.0696842 0.0206751 9.79095e-08)
(-0.0841567 0.0194516 1.41716e-07)
(-0.0972904 0.0172839 1.92909e-07)
(-0.108459 0.0144177 1.17795e-07)
(-0.00121789 0.00534894 -2.78473e-06)
(-0.00736368 0.0164154 2.44785e-06)
(-0.0192288 0.0255241 -1.63082e-09)
(-0.0344096 0.0320847 -2.06848e-07)
(-0.0517228 0.0361391 7.63308e-08)
(-0.0701817 0.0378736 1.08864e-07)
(-0.0887786 0.0374709 1.38826e-07)
(-0.106527 0.0350983 2.18993e-07)
(-0.122477 0.0309942 3.70563e-07)
(-0.135783 0.025603 3.25122e-07)
(-0.00153089 0.00978712 -3.39961e-06)
(-0.00894049 0.0269395 2.86642e-06)
(-0.0229204 0.0403221 -3.2005e-07)
(-0.0405079 0.0497748 -6.97781e-07)
(-0.0603403 0.0555404 -4.16035e-07)
(-0.0813397 0.0578972 -3.95731e-07)
(-0.102395 0.0570545 -3.52365e-07)
(-0.12238 0.0531885 -2.02414e-07)
(-0.14015 0.0465954 2.3975e-07)
(-0.154572 0.0379173 4.57124e-07)
(-0.00169261 0.0149028 -3.69939e-06)
(-0.00979511 0.0388796 3.16532e-06)
(-0.0249633 0.0569039 -4.20102e-07)
(-0.0439064 0.0694122 -8.87508e-07)
(-0.0651517 0.0769399 -6.10199e-07)
(-0.0875732 0.0798893 -6.05177e-07)
(-0.110005 0.0784765 -5.91081e-07)
(-0.131229 0.0728279 -4.72482e-07)
(-0.14992 0.0632111 4.08321e-07)
(-0.164542 0.0503801 1.25903e-06)
(-0.00170456 0.0202807 -3.70381e-06)
(-0.00989765 0.051398 3.24224e-06)
(-0.0252454 0.0742267 -4.49159e-07)
(-0.0443869 0.0898589 -9.70367e-07)
(-0.0658191 0.0991689 -7.35532e-07)
(-0.0884132 0.102703 -7.63174e-07)
(-0.111005 0.100666 -8.46185e-07)
(-0.132355 0.0930564 -1.01605e-06)
(-0.151045 0.07996 5.34999e-07)
(-0.165015 0.0619803 3.18514e-06)
(-0.00157415 0.0255054 -3.41226e-06)
(-0.00926642 0.0636265 3.10846e-06)
(-0.0237751 0.0911799 -4.10191e-07)
(-0.041907 0.109872 -9.44253e-07)
(-0.0621926 0.120913 -7.70109e-07)
(-0.083527 0.125008 -7.84069e-07)
(-0.104791 0.122344 -8.88042e-07)
(-0.124809 0.112725 -1.57843e-06)
(-0.142295 0.0958475 1.5636e-06)
(-0.154683 0.0715908 1.10999e-05)
(-0.00132085 0.0301891 -2.84568e-06)
(-0.00798885 0.0747352 2.81467e-06)
(-0.0207289 0.106665 -2.84362e-07)
(-0.0366969 0.128163 -7.93124e-07)
(-0.0544784 0.140726 -7.29951e-07)
(-0.0729656 0.145225 -7.973e-07)
(-0.091053 0.141881 -1.07827e-06)
(-0.107638 0.130334 -3.75351e-06)
(-0.121909 0.10981 -1.09542e-06)
(-0.1313 0.078654 2.4916e-05)
(-0.000982395 0.0340161 -2.06754e-06)
(-0.00624504 0.0840267 2.43068e-06)
(-0.0165093 0.119714 -4.80497e-08)
(-0.0293846 0.143519 -4.52632e-07)
(-0.0434832 0.15711 -4.8648e-07)
(-0.057581 0.161489 -7.2676e-07)
(-0.0703804 0.156974 -1.55585e-06)
(-0.0804861 0.143195 -9.41577e-06)
(-0.0874907 0.119193 -2.19456e-05)
(-0.0908023 0.0823071 7.35846e-06)
(0.000302394 -0.0003053 -8.10295e-08)
(4.57176e-06 0.000157213 -1.35626e-06)
(-0.00185243 0.000649818 -2.00012e-06)
(-0.00481721 0.000981055 -2.55816e-06)
(-0.00850133 0.00116835 -2.89092e-06)
(-0.0125684 0.00124828 -3.02734e-06)
(-0.0167396 0.00124785 -3.03361e-06)
(-0.020781 0.00118057 -2.91112e-06)
(-0.0244861 0.00105352 -2.64057e-06)
(-0.0276804 0.000878212 -2.20457e-06)
(-0.000180688 -5.46995e-06 1.09565e-06)
(-0.00247315 0.00238702 -3.13692e-07)
(-0.00800699 0.00469323 1.16427e-06)
(-0.0157784 0.00635222 1.83996e-06)
(-0.0250667 0.00736187 2.17635e-06)
(-0.0352043 0.00781289 2.38708e-06)
(-0.0455612 0.00779078 2.3928e-06)
(-0.0555674 0.00735483 2.22426e-06)
(-0.0647137 0.00655974 1.9509e-06)
(-0.072581 0.00549332 1.6828e-06)
(-0.00075826 0.00197513 1.92472e-06)
(-0.00514591 0.00803412 -1.73975e-06)
(-0.014119 0.0133912 -8.11098e-08)
(-0.0259789 0.0173018 7.14454e-08)
(-0.0397637 0.0197315 -9.14031e-08)
(-0.0546171 0.0208088 -8.61446e-08)
(-0.0696842 0.0206751 -9.53438e-08)
(-0.0841567 0.0194516 -1.39596e-07)
(-0.0972903 0.0172839 -1.90584e-07)
(-0.108459 0.0144177 -1.15685e-07)
(-0.00121789 0.00534894 2.79453e-06)
(-0.00736367 0.0164154 -2.43904e-06)
(-0.0192288 0.0255241 9.64111e-09)
(-0.0344096 0.0320847 2.13281e-07)
(-0.0517227 0.0361391 -7.0007e-08)
(-0.0701817 0.0378736 -1.04068e-07)
(-0.0887785 0.0374709 -1.36235e-07)
(-0.106526 0.0350983 -2.16745e-07)
(-0.122477 0.0309942 -3.67879e-07)
(-0.135783 0.025603 -3.2251e-07)
(-0.00153088 0.00978711 3.40774e-06)
(-0.00894048 0.0269394 -2.85899e-06)
(-0.0229204 0.0403221 3.26904e-07)
(-0.0405079 0.0497748 7.03153e-07)
(-0.0603402 0.0555403 4.21314e-07)
(-0.0813397 0.0578972 3.99588e-07)
(-0.102395 0.0570545 3.54338e-07)
(-0.12238 0.0531885 2.04446e-07)
(-0.14015 0.0465954 -2.36905e-07)
(-0.154572 0.0379173 -4.54142e-07)
(-0.00169261 0.0149028 3.70688e-06)
(-0.0097951 0.0388796 -3.15826e-06)
(-0.0249632 0.0569039 4.26641e-07)
(-0.0439064 0.0694122 8.92603e-07)
(-0.0651517 0.0769399 6.15147e-07)
(-0.0875731 0.0798892 6.08987e-07)
(-0.110005 0.0784764 5.93564e-07)
(-0.131229 0.0728279 4.75287e-07)
(-0.14992 0.0632111 -4.04831e-07)
(-0.164542 0.0503801 -1.25567e-06)
(-0.00170456 0.0202807 3.71159e-06)
(-0.00989764 0.051398 -3.23521e-06)
(-0.0252453 0.0742267 4.55782e-07)
(-0.0443868 0.0898588 9.75649e-07)
(-0.065819 0.0991689 7.4073e-07)
(-0.0884131 0.102703 7.67678e-07)
(-0.111005 0.100666 8.4989e-07)
(-0.132355 0.0930564 1.01992e-06)
(-0.151045 0.07996 -5.31095e-07)
(-0.165015 0.0619803 -3.18199e-06)
(-0.00157415 0.0255054 3.41907e-06)
(-0.00926641 0.0636265 -3.10245e-06)
(-0.0237751 0.0911799 4.15897e-07)
(-0.041907 0.109872 9.48855e-07)
(-0.0621925 0.120913 7.74809e-07)
(-0.083527 0.125008 7.88581e-07)
(-0.104791 0.122344 8.9222e-07)
(-0.124809 0.112725 1.58247e-06)
(-0.142295 0.0958475 -1.56007e-06)
(-0.154683 0.0715908 -1.10976e-05)
(-0.00132085 0.0301891 2.85118e-06)
(-0.00798885 0.0747352 -2.80972e-06)
(-0.0207289 0.106665 2.88986e-07)
(-0.0366969 0.128163 7.96984e-07)
(-0.0544783 0.140726 7.34038e-07)
(-0.0729656 0.145225 8.01532e-07)
(-0.091053 0.141881 1.08236e-06)
(-0.107638 0.130334 3.7569e-06)
(-0.121909 0.10981 1.09782e-06)
(-0.1313 0.078654 -2.49143e-05)
(-0.000982393 0.0340161 2.07228e-06)
(-0.00624504 0.0840267 -2.42627e-06)
(-0.0165092 0.119714 5.21464e-08)
(-0.0293845 0.143519 4.56374e-07)
(-0.0434832 0.15711 4.90519e-07)
(-0.057581 0.161489 7.30937e-07)
(-0.0703804 0.156974 1.55963e-06)
(-0.0804861 0.143195 9.41848e-06)
(-0.0874907 0.119193 2.19475e-05)
(-0.0908023 0.0823072 -7.35676e-06)
(0.000297492 -0.000300804 -1.52343e-08)
(-2.44966e-06 0.000163065 -0.000214491)
(-0.00185611 0.000663686 -0.000436208)
(-0.00481977 0.00100058 -0.000597838)
(-0.00850277 0.00119097 -0.000656152)
(-0.0125689 0.00127239 -0.000591169)
(-0.0167394 0.001272 -0.000396849)
(-0.0207799 0.00120342 -7.39031e-05)
(-0.0244839 0.00107396 0.000371454)
(-0.0276771 0.000895632 0.000926178)
(-0.000187951 1.79835e-06 0.000213792)
(-0.00247611 0.00238903 -5.1417e-06)
(-0.00799953 0.00470434 -0.000169073)
(-0.0157737 0.00636837 -0.000263739)
(-0.0250644 0.00737979 -0.000271377)
(-0.0352036 0.00783162 -0.000176299)
(-0.0455621 0.00780937 2.79872e-05)
(-0.0555693 0.00737225 0.000343614)
(-0.0647156 0.00657512 0.000768988)
(-0.0725821 0.00550661 0.00129731)
(-0.000774059 0.00198062 0.000440613)
(-0.00515702 0.00802764 0.000152024)
(-0.0141121 0.013388 -1.27118e-05)
(-0.0259767 0.0172986 -8.61318e-05)
(-0.0397636 0.0197264 -7.66291e-05)
(-0.0546172 0.0208026 2.46083e-05)
(-0.069685 0.0206685 0.000221754)
(-0.0841578 0.0194448 0.000518379)
(-0.0972904 0.017277 0.000917246)
(-0.108457 0.0144121 0.00141762)
(-0.00124051 0.00535369 0.000591603)
(-0.00737979 0.0164114 0.000218632)
(-0.0192198 0.0255249 3.0505e-05)
(-0.0344077 0.0320872 -4.48968e-05)
(-0.0517237 0.0361412 -3.74858e-05)
(-0.0701825 0.0378753 5.57085e-05)
(-0.0887798 0.0374721 0.000237208)
(-0.106528 0.0350985 0.000513118)
(-0.122477 0.0309924 0.000892303)
(-0.135778 0.0256009 0.00138249)
(-0.00155794 0.00979009 0.0005937)
(-0.00895875 0.0269372 0.000147656)
(-0.0229081 0.040324 -6.5288e-05)
(-0.0405049 0.0497788 -0.000152766)
(-0.0603411 0.0555447 -0.000160263)
(-0.0813407 0.0579017 -8.82142e-05)
(-0.102397 0.0570589 6.67462e-05)
(-0.122384 0.0531916 0.000316081)
(-0.140153 0.046594 0.000678504)
(-0.154565 0.0379138 0.00117693)
(-0.0017221 0.0149036 0.000398986)
(-0.00981435 0.0388783 -0.000101431)
(-0.0249486 0.0569049 -0.000334848)
(-0.0439023 0.0694146 -0.000441434)
(-0.0651523 0.0769429 -0.000475891)
(-0.087574 0.0798927 -0.000439417)
(-0.110008 0.0784805 -0.000324634)
(-0.131236 0.0728313 -0.000110925)
(-0.149927 0.0632066 0.000235769)
(-0.164527 0.0503684 0.000768215)
(-0.00173432 0.0202794 -1.53504e-05)
(-0.00991662 0.0513978 -0.000548662)
(-0.0252297 0.0742268 -0.000795113)
(-0.0443819 0.0898596 -0.000925775)
(-0.0658189 0.0991704 -0.000998753)
(-0.0884132 0.102706 -0.001014)
(-0.111007 0.10067 -0.000957202)
(-0.132367 0.0930611 -0.000794795)
(-0.151063 0.0799494 -0.000471596)
(-0.164986 0.0619425 0.000125247)
(-0.00160207 0.0255021 -0.000649267)
(-0.00928388 0.0636271 -0.00119415)
(-0.0237596 0.091179 -0.00144502)
(-0.0419016 0.109871 -0.00160325)
(-0.0621917 0.120913 -0.00172569)
(-0.083526 0.125009 -0.00181052)
(-0.104791 0.122348 -0.00183509)
(-0.124831 0.11274 -0.0017509)
(-0.142347 0.0958516 -0.00148089)
(-0.154636 0.0715306 -0.000796948)
(-0.00134514 0.0301841 -0.00148079)
(-0.00800382 0.0747363 -0.00201868)
(-0.0207148 0.106663 -0.0022652)
(-0.0366913 0.128159 -0.00245227)
(-0.0544763 0.140722 -0.00263226)
(-0.0729611 0.145222 -0.00280289)
(-0.091042 0.141884 -0.00293402)
(-0.107655 0.130367 -0.00296149)
(-0.122014 0.109884 -0.00279792)
(-0.131252 0.0786845 -0.00201216)
(-0.00100184 0.0340102 -0.0024684)
(-0.00625712 0.084028 -0.00298609)
(-0.0164982 0.11971 -0.00321979)
(-0.0293804 0.143511 -0.00343302)
(-0.0434817 0.157098 -0.00367264)
(-0.0575741 0.161467 -0.00394086)
(-0.0703474 0.156931 -0.00420953)
(-0.080445 0.143131 -0.00441079)
(-0.0875786 0.119131 -0.00451341)
(-0.090724 0.0821901 -0.00390119)
(-0.0302489 0.000693632 -0.00156955)
(-0.0321858 0.000501745 -0.00227619)
(-0.0335636 0.000342588 -0.00302331)
(-0.0345011 0.000223845 -0.00379379)
(-0.035122 0.000143216 -0.00457628)
(-0.035534 9.39727e-05 -0.00536423)
(-0.0358224 6.89278e-05 -0.00615453)
(-0.0360526 6.23468e-05 -0.00694645)
(-0.036274 7.03184e-05 -0.00774105)
(-0.0365248 9.02688e-05 -0.00854095)
(-0.0368343 0.000120036 -0.00935037)
(-0.0372216 0.000156695 -0.0101753)
(-0.0376922 0.000195212 -0.0110234)
(-0.0382298 0.000227041 -0.0119038)
(-0.0387858 0.00023894 -0.0128267)
(-0.039267 0.00021263 -0.0138008)
(-0.0395261 0.000126586 -0.0148314)
(-0.0393597 -3.85882e-05 -0.0159158)
(-0.0385274 -0.000294331 -0.0170387)
(-0.0367962 -0.000629202 -0.0181686)
(-0.0789148 0.00431677 -0.0019147)
(-0.0836995 0.00318801 -0.00260129)
(-0.0871322 0.00224169 -0.00333865)
(-0.0895013 0.00152134 -0.00411151)
(-0.0910999 0.00101735 -0.00490821)
(-0.0921816 0.000695063 -0.00572061)
(-0.0929477 0.000515166 -0.00654359)
(-0.0935504 0.000443883 -0.00737456)
(-0.0941034 0.000455346 -0.00821298)
(-0.0946902 0.000529428 -0.0090601)
(-0.0953686 0.000647239 -0.00991881)
(-0.0961685 0.00078542 -0.0107936)
(-0.0970836 0.000909953 -0.0116901)
(-0.0980561 0.000970316 -0.0126153)
(-0.0989559 0.000895657 -0.0135758)
(-0.0995587 0.000596052 -0.0145773)
(-0.0995308 -2.64758e-05 -0.0156218)
(-0.098435 -0.00105293 -0.0167049)
(-0.0957706 -0.0025095 -0.0178127)
(-0.091067 -0.00431611 -0.0189184)
(-0.117284 0.0112567 -0.00201002)
(-0.123799 0.00829721 -0.00267419)
(-0.128368 0.00583888 -0.00339265)
(-0.131461 0.00397786 -0.00415081)
(-0.133518 0.00267662 -0.00493684)
(-0.134893 0.00183886 -0.00574202)
(-0.135856 0.00135998 -0.00656052)
(-0.1366 0.00115072 -0.0073889)
(-0.137266 0.00114165 -0.00822577)
(-0.137952 0.00127726 -0.00907143)
(-0.13872 0.0015049 -0.0099277)
(-0.139601 0.00176146 -0.0107978)
(-0.140576 0.0019593 -0.0116859)
(-0.141565 0.00197362 -0.0125973)
(-0.142402 0.00163486 -0.0135373)
(-0.1428 0.000733269 -0.0145108)
(-0.142335 -0.00095469 -0.0155203)
(-0.140437 -0.00360969 -0.0165641)
(-0.136438 -0.00727597 -0.0176329)
(-0.129677 -0.0117491 -0.0187063)
(-0.145908 0.0197101 -0.00197789)
(-0.152996 0.0143009 -0.00264863)
(-0.157696 0.0099184 -0.00337425)
(-0.160715 0.00667545 -0.00413914)
(-0.162628 0.00444876 -0.00493074)
(-0.163855 0.00303144 -0.0057402)
(-0.164684 0.00222118 -0.00656168)
(-0.165306 0.00185452 -0.00739169)
(-0.165848 0.00180858 -0.00822855)
(-0.166395 0.00198742 -0.00907202)
(-0.167001 0.0023022 -0.00992306)
(-0.16769 0.00264872 -0.0107837)
(-0.168445 0.00288433 -0.0116568)
(-0.169197 0.00280666 -0.0125465)
(-0.169793 0.00213923 -0.0134574)
(-0.169965 0.0005344 -0.0143949)
(-0.169282 -0.00238922 -0.0153646)
(-0.167125 -0.0069588 -0.0163701)
(-0.162685 -0.0132903 -0.0174107)
(-0.155053 -0.0210755 -0.0184765)
(-0.164827 0.0284637 -0.00181179)
(-0.171264 0.0200652 -0.00252385)
(-0.175037 0.0135357 -0.00328554)
(-0.177173 0.00888816 -0.00407968)
(-0.178365 0.00580027 -0.0048932)
(-0.17904 0.00388308 -0.00571812)
(-0.179447 0.00280235 -0.00654985)
(-0.179725 0.00230948 -0.00738582)
(-0.179955 0.00222897 -0.00822477)
(-0.180185 0.00243106 -0.00906632)
(-0.180444 0.0028008 -0.00991069)
(-0.18075 0.00320639 -0.0107587)
(-0.181102 0.00346697 -0.0116118)
(-0.18147 0.00332098 -0.0124725)
(-0.181775 0.00239946 -0.0133447)
(-0.181838 0.000215749 -0.014235)
(-0.181325 -0.00380461 -0.0151524)
(-0.179653 -0.0102169 -0.0161091)
(-0.175908 -0.0193413 -0.0171173)
(-0.168814 -0.0308952 -0.018187)
(-0.173689 0.0363204 -0.00150509)
(-0.178101 0.024444 -0.00230744)
(-0.179853 0.0157791 -0.00313916)
(-0.180372 0.0099649 -0.00398541)
(-0.180385 0.00629116 -0.00483518)
(-0.180234 0.00409897 -0.00568416)
(-0.18005 0.00289736 -0.00653111)
(-0.179872 0.00235699 -0.00737577)
(-0.179701 0.00226444 -0.0082181)
(-0.179532 0.00247396 -0.00905795)
(-0.179359 0.0028647 -0.00989493)
(-0.17919 0.0033018 -0.0107285)
(-0.179044 0.00359733 -0.0115584)
(-0.17895 0.00346843 -0.012385)
(-0.17894 0.0024929 -0.0132107)
(-0.179006 6.91788e-05 -0.014042)
(-0.179015 -0.00459407 -0.014892)
(-0.178571 -0.0123922 -0.0157819)
(-0.176774 -0.0240904 -0.0167423)
(-0.171858 -0.0397592 -0.0178214)
(-0.171591 0.041814 -0.00107773)
(-0.172349 0.026131 -0.00203757)
(-0.171037 0.0157642 -0.00297315)
(-0.169433 0.00939154 -0.00388768)
(-0.168073 0.00564986 -0.00477974)
(-0.16705 0.00354434 -0.00565414)
(-0.166293 0.00244064 -0.00651599)
(-0.165699 0.00196246 -0.00736866)
(-0.165174 0.00189074 -0.00821385)
(-0.164649 0.00209062 -0.00905179)
(-0.164081 0.00246025 -0.00988144)
(-0.163461 0.00289008 -0.0107007)
(-0.162818 0.00322319 -0.0115071)
(-0.162235 0.00320827 -0.012298)
(-0.16186 0.00243802 -0.0130727)
(-0.161898 0.000266837 -0.0138355)
(-0.162538 -0.00427875 -0.0146018)
(-0.163793 -0.0125192 -0.0154008)
(-0.165108 -0.0260082 -0.0162849)
(-0.164275 -0.0458767 -0.017373)
(-0.156569 0.0428095 -0.000585732)
(-0.151756 0.0235503 -0.00178498)
(-0.146718 0.0127521 -0.00284577)
(-0.14305 0.00695412 -0.00382863)
(-0.140592 0.00390025 -0.0047545)
(-0.138989 0.00232453 -0.00564508)
(-0.13791 0.00155331 -0.00651475)
(-0.137108 0.00124224 -0.00737087)
(-0.13641 0.00121605 -0.00821654)
(-0.1357 0.00138051 -0.009052)
(-0.134904 0.00167329 -0.00987525)
(-0.133991 0.0020312 -0.0106824)
(-0.132981 0.00235962 -0.0114681)
(-0.131971 0.00249267 -0.0122263)
(-0.131179 0.00212882 -0.0129513)
(-0.130985 0.00071725 -0.0136423)
(-0.131926 -0.00272937 -0.0143141)
(-0.134673 -0.00986045 -0.0149988)
(-0.139695 -0.0233254 -0.0157647)
(-0.145085 -0.0467154 -0.0168413)
(-0.124241 0.0368198 -0.000314728)
(-0.112145 0.0157984 -0.00177851)
(-0.104099 0.00696667 -0.00288455)
(-0.0996172 0.0032258 -0.00387382)
(-0.0970707 0.00159609 -0.00479187)
(-0.0955793 0.000877248 -0.00567273)
(-0.0946451 0.000569574 -0.00653547)
(-0.0939705 0.000466413 -0.00738747)
(-0.093376 0.000482414 -0.00823073)
(-0.0927465 0.000581098 -0.00906411)
(-0.0920046 0.000744004 -0.009884)
(-0.0911033 0.000954871 -0.0106844)
(-0.0900345 0.00118656 -0.0114567)
(-0.0888541 0.00138168 -0.01219)
(-0.0877364 0.00141284 -0.0128714)
(-0.0870632 0.000992403 -0.0134902)
(-0.0875021 -0.000545824 -0.0140543)
(-0.0903332 -0.00478934 -0.0145692)
(-0.0979837 -0.0152382 -0.0150779)
(-0.111506 -0.0397673 -0.0159687)
(-0.063324 0.0225946 -0.000956182)
(-0.0472213 0.00650285 -0.00240628)
(-0.0406428 0.00197629 -0.00315561)
(-0.0382711 0.000630698 -0.00390201)
(-0.0372482 0.000214352 -0.00466552)
(-0.0367304 8.75574e-05 -0.00544233)
(-0.036425 5.39024e-05 -0.00623)
(-0.036196 5.34175e-05 -0.00702332)
(-0.0359714 6.94894e-05 -0.00781728)
(-0.0357044 9.88838e-05 -0.008607)
(-0.0353575 0.000142426 -0.00938646)
(-0.0348975 0.000202063 -0.0101474)
(-0.0342974 0.000279291 -0.0108779)
(-0.0335441 0.00037192 -0.011561)
(-0.0326591 0.000463866 -0.012172)
(-0.0317502 0.000493962 -0.0126764)
(-0.0311519 0.000241996 -0.0130277)
(-0.0318074 -0.00113169 -0.0131905)
(-0.0373362 -0.00630458 -0.0130472)
(-0.0556803 -0.0252253 -0.0132213)
(-0.0302525 0.000679372 1.65705e-06)
(-0.0321888 0.000490703 1.15736e-06)
(-0.0335658 0.000334446 7.64854e-07)
(-0.0345026 0.000218048 4.81822e-07)
(-0.0351229 0.000139164 2.94764e-07)
(-0.0355344 9.11111e-05 1.82163e-07)
(-0.0358225 6.67865e-05 1.23611e-07)
(-0.0360525 6.05485e-05 1.03574e-07)
(-0.0362738 6.85699e-05 1.11395e-07)
(-0.0365245 8.83509e-05 1.40467e-07)
(-0.0368338 0.000117804 1.86248e-07)
(-0.037221 0.000154092 2.43951e-07)
(-0.0376915 0.000192306 3.06452e-07)
(-0.0382292 0.000224075 3.61556e-07)
(-0.0387854 0.000236393 3.88871e-07)
(-0.039267 0.000211269 3.55768e-07)
(-0.0395268 0.000127448 2.20286e-07)
(-0.0393617 -3.43502e-05 -4.32827e-08)
(-0.0385311 -0.000285487 -5.07791e-07)
(-0.0368016 -0.000615031 -1.20685e-06)
(-0.0789138 0.00430499 -1.48626e-06)
(-0.0836979 0.00317837 -1.23981e-06)
(-0.0871302 0.00223434 -9.79209e-07)
(-0.0894993 0.00151598 -7.46583e-07)
(-0.0910982 0.00101356 -5.56876e-07)
(-0.0921803 0.000692409 -4.17485e-07)
(-0.0929467 0.000513255 -3.27744e-07)
(-0.0935498 0.000442387 -2.81662e-07)
(-0.0941031 0.000454005 -2.71197e-07)
(-0.0946901 0.000528042 -2.87006e-07)
(-0.0953685 0.00064566 -3.17698e-07)
(-0.0961682 0.000783561 -3.48462e-07)
(-0.097083 0.000907807 -3.59208e-07)
(-0.0980548 0.000968003 -3.23248e-07)
(-0.0989536 0.000893489 -2.07815e-07)
(-0.0995553 0.000594582 2.10273e-08)
(-0.0995264 -2.64627e-05 3.8658e-07)
(-0.09843 -0.00105046 8.79027e-07)
(-0.0957663 -0.00250355 1.46944e-06)
(-0.0910644 -0.0043066 2.02427e-06)
(-0.117286 0.0112587 -1.84564e-07)
(-0.123799 0.00829763 -3.20002e-07)
(-0.128367 0.00583887 -3.49897e-07)
(-0.13146 0.00397777 -3.31924e-07)
(-0.133516 0.00267663 -2.83095e-07)
(-0.134892 0.00183902 -2.25862e-07)
(-0.135855 0.0013603 -1.74235e-07)
(-0.1366 0.00115121 -1.33532e-07)
(-0.137266 0.00114232 -1.04231e-07)
(-0.137951 0.00127811 -8.4121e-08)
(-0.13872 0.00150589 -6.98691e-08)
(-0.1396 0.00176252 -5.71764e-08)
(-0.140575 0.0019603 -4.07555e-08)
(-0.141564 0.00197434 -1.41796e-08)
(-0.142401 0.00163509 3.09939e-08)
(-0.142798 0.000732747 1.01171e-07)
(-0.142332 -0.000956232 1.91971e-07)
(-0.140435 -0.0036122 2.98105e-07)
(-0.136438 -0.00727932 4.06697e-07)
(-0.129679 -0.0117548 3.45423e-07)
(-0.145913 0.0197067 -2.89788e-07)
(-0.152997 0.0142971 -4.67608e-07)
(-0.157695 0.00991591 -4.63881e-07)
(-0.160713 0.00667409 -4.12168e-07)
(-0.162626 0.00444824 -3.27724e-07)
(-0.163854 0.00303145 -2.42415e-07)
(-0.164683 0.00222147 -1.71939e-07)
(-0.165305 0.00185493 -1.18695e-07)
(-0.165847 0.00180904 -8.08251e-08)
(-0.166394 0.00198789 -5.5039e-08)
(-0.167001 0.00230263 -3.81818e-08)
(-0.167689 0.00264904 -2.73863e-08)
(-0.168444 0.00288447 -1.98848e-08)
(-0.169196 0.00280651 -1.12633e-08)
(-0.169792 0.00213877 1.00781e-08)
(-0.169963 0.000533728 5.57241e-08)
(-0.16928 -0.00238998 1.0773e-07)
(-0.167122 -0.00695876 2.06482e-07)
(-0.162685 -0.013288 3.95125e-07)
(-0.155059 -0.0210727 3.47716e-07)
(-0.164836 0.0284549 -7.89823e-07)
(-0.171264 0.0200577 -8.83828e-07)
(-0.175034 0.0135322 -7.14384e-07)
(-0.17717 0.00888684 -5.58394e-07)
(-0.178362 0.00580023 -3.92898e-07)
(-0.179038 0.00388363 -2.58098e-07)
(-0.179446 0.00280306 -1.64953e-07)
(-0.179724 0.00231016 -1.04989e-07)
(-0.179954 0.00222954 -6.88411e-08)
(-0.180184 0.00243151 -4.92626e-08)
(-0.180444 0.00280112 -4.15319e-08)
(-0.18075 0.00320655 -4.25393e-08)
(-0.181102 0.00346692 -4.99138e-08)
(-0.18147 0.00332066 -5.86221e-08)
(-0.181773 0.00239891 -4.78201e-08)
(-0.181837 0.000215187 1.03626e-08)
(-0.181322 -0.00380469 5.86392e-08)
(-0.179647 -0.0102148 2.05437e-07)
(-0.175905 -0.0193329 6.92292e-07)
(-0.168823 -0.0308826 9.84938e-07)
(-0.173705 0.0363026 -1.6938e-06)
(-0.178096 0.024432 -1.43923e-06)
(-0.179846 0.0157755 -8.97801e-07)
(-0.180366 0.00996467 -6.00953e-07)
(-0.180381 0.00629226 -3.53323e-07)
(-0.180231 0.00410039 -1.86196e-07)
(-0.180048 0.00289863 -9.2328e-08)
(-0.179871 0.002358 -4.28307e-08)
(-0.179701 0.00226522 -1.86674e-08)
(-0.179531 0.00247455 -9.1758e-09)
(-0.179359 0.00286515 -9.40059e-09)
(-0.17919 0.00330211 -1.77203e-08)
(-0.179044 0.00359746 -3.43274e-08)
(-0.17895 0.0034683 -5.83831e-08)
(-0.178939 0.00249248 -7.17092e-08)
(-0.179003 6.87786e-05 -3.96428e-08)
(-0.179011 -0.0045936 -1.77611e-08)
(-0.178561 -0.0123884 1.17672e-07)
(-0.176764 -0.0240744 1.18612e-06)
(-0.171874 -0.0397322 2.49181e-06)
(-0.171622 0.0417894 -4.5158e-06)
(-0.172335 0.026123 -2.96841e-06)
(-0.171022 0.0157678 -1.36516e-06)
(-0.169425 0.00939578 -7.11258e-07)
(-0.168069 0.00565331 -3.01697e-07)
(-0.167048 0.0035469 -9.25667e-08)
(-0.166292 0.0024424 -1.07348e-08)
(-0.165699 0.0019637 1.58118e-08)
(-0.165174 0.0018917 1.89487e-08)
(-0.164649 0.00209148 1.16712e-08)
(-0.164081 0.00246109 -1.98779e-09)
(-0.163461 0.00289093 -2.20008e-08)
(-0.162818 0.00322397 -4.94727e-08)
(-0.162235 0.00320878 -8.68508e-08)
(-0.161859 0.00243796 -1.17173e-07)
(-0.161895 0.000266192 -6.62418e-08)
(-0.162531 -0.00428035 7.26091e-08)
(-0.163774 -0.0125217 3.64379e-07)
(-0.165083 -0.0259969 2.85504e-06)
(-0.164307 -0.0458417 6.84158e-06)
(-0.156628 0.0427686 -7.6784e-06)
(-0.151724 0.0235604 -3.10224e-06)
(-0.1467 0.0127735 -6.23255e-07)
(-0.143045 0.0069662 -2.39144e-07)
(-0.14059 0.00390639 2.99028e-08)
(-0.138988 0.00232785 1.25301e-07)
(-0.13791 0.0015552 1.18434e-07)
(-0.137108 0.00124353 9.70992e-08)
(-0.13641 0.00121723 8.02654e-08)
(-0.135699 0.00138184 6.87234e-08)
(-0.134904 0.00167492 5.92916e-08)
(-0.133991 0.00203319 4.69817e-08)
(-0.132981 0.00236187 2.46096e-08)
(-0.131972 0.00249477 -2.75134e-08)
(-0.13118 0.0021299 -1.04197e-07)
(-0.130985 0.0007158 -4.00698e-08)
(-0.131925 -0.00273783 8.56657e-08)
(-0.134652 -0.00988254 -3.51128e-07)
(-0.13965 -0.0233382 2.53009e-06)
(-0.145143 -0.0466602 1.09454e-05)
(-0.124313 0.0366252 -9.60475e-06)
(-0.112077 0.0157397 4.24833e-06)
(-0.104088 0.00695587 4.73809e-06)
(-0.0996264 0.00321877 2.01227e-06)
(-0.097076 0.00159087 1.03648e-06)
(-0.0955818 0.00087401 6.2668e-07)
(-0.0946464 0.000567459 3.91399e-07)
(-0.0939709 0.000464841 2.9435e-07)
(-0.0933759 0.000481054 2.81781e-07)
(-0.092746 0.000579726 3.17081e-07)
(-0.092004 0.000742478 3.80921e-07)
(-0.0911029 0.00095314 4.56647e-07)
(-0.0900348 0.00118472 5.1566e-07)
(-0.0888557 0.00138009 4.84061e-07)
(-0.0877399 0.00141226 2.66259e-07)
(-0.0870718 0.000993851 -9.34212e-08)
(-0.0875206 -0.000542209 -1.32148e-06)
(-0.0903294 -0.00478202 -5.87196e-06)
(-0.0978951 -0.0151748 -7.91988e-06)
(-0.111558 -0.0395156 1.18959e-05)
(-0.0633655 0.0224513 -5.31932e-05)
(-0.0470641 0.00643505 -8.95914e-06)
(-0.0405986 0.00194903 -6.24942e-07)
(-0.0382669 0.000615332 -1.44096e-06)
(-0.0372453 0.00020543 -9.34056e-07)
(-0.0367283 8.25603e-05 -4.35498e-07)
(-0.0364241 5.08781e-05 -2.44715e-07)
(-0.0361957 5.12286e-05 -1.72445e-07)
(-0.0359713 6.75099e-05 -1.51982e-07)
(-0.0357046 9.6738e-05 -1.66748e-07)
(-0.0353578 0.000139884 -2.06576e-07)
(-0.0348979 0.000199032 -2.61333e-07)
(-0.0342978 0.000275902 -3.16177e-07)
(-0.033544 0.00036875 -3.45151e-07)
(-0.032658 0.000462254 -2.5868e-07)
(-0.031749 0.000496157 1.9146e-07)
(-0.0311543 0.000251606 6.58111e-07)
(-0.0317663 -0.00110835 -1.93162e-06)
(-0.0371241 -0.00623176 3.93683e-06)
(-0.0556678 -0.0250341 6.69662e-05)
(-0.0302525 0.000679372 -1.65591e-06)
(-0.0321888 0.000490703 -1.15642e-06)
(-0.0335657 0.000334446 -7.63824e-07)
(-0.0345025 0.000218048 -4.80779e-07)
(-0.0351228 0.000139164 -2.9396e-07)
(-0.0355343 9.1111e-05 -1.81724e-07)
(-0.0358225 6.67864e-05 -1.23437e-07)
(-0.0360525 6.05484e-05 -1.03646e-07)
(-0.0362737 6.85697e-05 -1.11802e-07)
(-0.0365245 8.83506e-05 -1.41228e-07)
(-0.0368338 0.000117804 -1.873e-07)
(-0.037221 0.000154092 -2.45106e-07)
(-0.0376915 0.000192306 -3.07337e-07)
(-0.0382291 0.000224075 -3.61959e-07)
(-0.0387853 0.000236392 -3.88752e-07)
(-0.039267 0.000211269 -3.55033e-07)
(-0.0395268 0.000127448 -2.18832e-07)
(-0.0393617 -3.43496e-05 4.54684e-08)
(-0.038531 -0.000285486 5.10659e-07)
(-0.0368016 -0.00061503 1.2103e-06)
(-0.0789138 0.00430499 1.48785e-06)
(-0.0836979 0.00317837 1.24118e-06)
(-0.0871302 0.00223434 9.80639e-07)
(-0.0894993 0.00151598 7.48136e-07)