/*--------------------------------*- C++ -*----------------------------------*\
| =========                 |                                                 |
| \\      /  F ield         | OpenFOAM: The Open Source CFD Toolbox           |
|  \\    /   O peration     | Version:  2.4.0                                 |
|   \\  /    A nd           | Web:      www.OpenFOAM.org                      |
|    \\/     M anipulation  |                                                 |
\*---------------------------------------------------------------------------*/
FoamFile
{
    version     2.0;
    format      ascii;
    class       volScalarField;
    location    "0.0065";
    object      T;
}
// * * * * * * * * * * * * * * * * * * * * * * * * * * * * * * * * * * * * * //

dimensions      [0 0 0 1 0 0 0];

internalField   nonuniform List<scalar> 
4800
(
100.194
100.581
100.968
101.354
101.737
102.117
102.487
102.844
103.182
103.493
100.581
101.742
102.903
104.063
105.217
106.358
107.475
108.552
109.571
110.511
100.968
102.903
104.841
106.778
108.71
110.625
112.503
114.319
116.039
117.626
101.354
104.063
106.779
109.499
112.22
114.927
117.593
120.182
122.64
124.908
101.738
105.218
108.71
112.22
115.744
119.268
122.762
126.174
129.431
132.438
102.117
106.359
110.625
114.927
119.269
123.64
128.012
132.322
136.471
140.314
102.488
107.476
112.504
117.595
122.763
128.013
133.323
138.632
143.816
148.66
102.845
108.554
114.321
120.184
126.177
132.324
138.634
145.068
151.502
157.641
103.182
109.573
116.042
122.644
129.435
136.475
143.819
151.503
159.482
167.46
103.494
110.514
117.631
124.914
132.445
140.32
148.665
157.645
167.462
178.222
100.194
100.581
100.968
101.354
101.738
102.117
102.487
102.844
103.182
103.493
100.581
101.742
102.903
104.063
105.217
106.358
107.475
108.552
109.571
110.511
100.968
102.903
104.841
106.778
108.71
110.625
112.503
114.319
116.039
117.626
101.354
104.063
106.779
109.499
112.22
114.927
117.593
120.182
122.64
124.908
101.738
105.218
108.71
112.22
115.744
119.268
122.762
126.174
129.431
132.438
102.117
106.359
110.625
114.927
119.269
123.641
128.012
132.322
136.471
140.314
102.488
107.476
112.504
117.595
122.763
128.013
133.323
138.632
143.816
148.66
102.845
108.554
114.321
120.184
126.177
132.325
138.634
145.068
151.502
157.641
103.182
109.573
116.042
122.644
129.435
136.475
143.82
151.504
159.482
167.46
103.494
110.514
117.631
124.914
132.445
140.321
148.666
157.645
167.462
178.223
100.194
100.581
100.968
101.354
101.738
102.117
102.487
102.844
103.182
103.493
100.581
101.742
102.903
104.063
105.217
106.358
107.475
108.552
109.571
110.511
100.968
102.903
104.841
106.778
108.71
110.625
112.503
114.319
116.039
117.626
101.354
104.063
106.779
109.499
112.22
114.927
117.593
120.182
122.64
124.908
101.738
105.218
108.71
112.22
115.744
119.268
122.762
126.174
129.431
132.438
102.117
106.359
110.625
114.927
119.269
123.641
128.012
132.322
136.471
140.314
102.488
107.476
112.504
117.595
122.763
128.013
133.323
138.632
143.816
148.66
102.845
108.554
114.321
120.184
126.177
132.325
138.634
145.068
151.502
157.641
103.182
109.573
116.042
122.644
129.435
136.475
143.82
151.504
159.482
167.46
103.494
110.514
117.631
124.914
132.445
140.321
148.666
157.645
167.462
178.223
100.194
100.581
100.968
101.354
101.737
102.117
102.487
102.844
103.182
103.493
100.581
101.742
102.903
104.063
105.217
106.358
107.475
108.552
109.571
110.511
100.968
102.903
104.841
106.778
108.71
110.625
112.503
114.319
116.039
117.626
101.354
104.063
106.779
109.499
112.22
114.927
117.593
120.182
122.64
124.908
101.738
105.218
108.71
112.22
115.744
119.268
122.762
126.174
129.431
132.438
102.117
106.359
110.625
114.927
119.269
123.64
128.012
132.322
136.471
140.314
102.488
107.476
112.504
117.595
122.763
128.013
133.323
138.632
143.816
148.66
102.845
108.554
114.321
120.184
126.177
132.324
138.634
145.068
151.502
157.641
103.182
109.573
116.042
122.644
129.435
136.475
143.819
151.503
159.482
167.46
103.494
110.514
117.631
124.914
132.445
140.32
148.665
157.645
167.462
178.222
103.773
104.016
104.222
104.391
104.526
104.63
104.707
104.762
104.796
104.813
104.813
104.796
104.761
104.707
104.63
104.526
104.391
104.222
104.016
103.773
111.354
112.087
112.704
113.208
113.609
113.916
114.144
114.304
114.405
114.454
114.454
114.405
114.304
114.144
113.916
113.608
113.208
112.703
112.086
111.353
119.045
120.272
121.298
122.13
122.784
123.283
123.65
123.906
124.067
124.145
124.145
124.067
123.905
123.649
123.281
122.782
122.128
121.297
120.271
119.044
126.928
128.659
130.087
131.229
132.114
132.78
133.266
133.602
133.812
133.913
133.913
133.812
133.601
133.265
132.779
132.112
131.227
130.085
128.657
126.926
135.1
137.347
139.164
140.584
141.662
142.459
143.032
143.423
143.667
143.783
143.783
143.666
143.422
143.03
142.457
141.659
140.581
139.162
137.345
135.098
143.687
146.464
148.638
150.28
151.49
152.363
152.978
153.393
153.648
153.77
153.77
153.648
153.392
152.977
152.361
151.488
150.277
148.636
146.462
143.685
152.869
156.186
158.643
160.408
161.654
162.526
163.125
163.522
163.764
163.878
163.878
163.763
163.521
163.123
162.524
161.653
160.406
158.641
156.184
152.867
162.943
166.765
169.342
171.053
172.194
172.96
173.473
173.806
174.007
174.102
174.101
174.007
173.805
173.472
172.959
172.193
171.052
169.34
166.764
162.941
174.494
178.591
180.906
182.268
183.11
183.649
183.999
184.223
184.357
184.419
184.419
184.356
184.223
183.998
183.648
183.109
182.267
180.905
178.591
174.494
188.984
192.199
193.422
194.004
194.328
194.526
194.651
194.73
194.777
194.799
194.799
194.777
194.73
194.651
194.525
194.328
194.003
193.422
192.199
188.983
103.773
104.016
104.222
104.391
104.526
104.63
104.707
104.761
104.796
104.812
104.812
104.795
104.761
104.707
104.629
104.525
104.391
104.222
104.016
103.772
111.354
112.086
112.704
113.208
113.608
113.916
114.144
114.304
114.405
114.454
114.454
114.405
114.303
114.143
113.915
113.607
113.207
112.702
112.085
111.352
119.045
120.272
121.298
122.129
122.783
123.282
123.649
123.905
124.067
124.144
124.144
124.066
123.904
123.648
123.28
122.781
122.127
121.296
120.27
119.042
126.928
128.658
130.087
131.228
132.113
132.78
133.265
133.601
133.812
133.913
133.912
133.811
133.6
133.264
132.778
132.111
131.225
130.084
128.655
126.925
135.1
137.347
139.164
140.583
141.661
142.459
143.031
143.423
143.666
143.783
143.782
143.665
143.421
143.029
142.456
141.658
140.58
139.16
137.343
135.097
143.687
146.464
148.638
150.279
151.489
152.363
152.978
153.392
153.648
153.769
153.769
153.647
153.391
152.976
152.36
151.486
150.276
148.634
146.461
143.683
152.869
156.185
158.643
160.407
161.654
162.525
163.124
163.521
163.763
163.878
163.877
163.762
163.52
163.122
162.523
161.651
160.404
158.64
156.182
152.866
162.943
166.765
169.342
171.053
172.194
172.96
173.472
173.805
174.006
174.101
174.1
174.006
173.804
173.47
172.958
172.192
171.05
169.339
166.762
162.94
174.494
178.591
180.905
182.268
183.109
183.648
183.998
184.222
184.356
184.418
184.418
184.355
184.222
183.997
183.647
183.108
182.266
180.904
178.589
174.492
188.984
192.199
193.422
194.003
194.328
194.525
194.651
194.73
194.777
194.799
194.799
194.777
194.73
194.65
194.525
194.327
194.003
193.421
192.198
188.982
103.773
104.016
104.222
104.391
104.526
104.63
104.707
104.761
104.796
104.812
104.812
104.795
104.761
104.707
104.629
104.525
104.391
104.222
104.016
103.772
111.354
112.086
112.704
113.208
113.608
113.916
114.144
114.304
114.405
114.454
114.454
114.405
114.303
114.143
113.915
113.607
113.207
112.702
112.085
111.352
119.045
120.272
121.298
122.129
122.783
123.282
123.649
123.905
124.067
124.144
124.144
124.066
123.904
123.648
123.28
122.781
122.127
121.296
120.27
119.042
126.928
128.658
130.087
131.228
132.113
132.78
133.265
133.601
133.812
133.913
133.912
133.811
133.6
133.264
132.778
132.111
131.225
130.084
128.655
126.925
135.1
137.347
139.164
140.583
141.661
142.459
143.031
143.423
143.666
143.783
143.782
143.665
143.421
143.029
142.456
141.658
140.58
139.16
137.343
135.097
143.687
146.464
148.638
150.279
151.489
152.363
152.978
153.392
153.648
153.769
153.769
153.647
153.391
152.976
152.36
151.486
150.276
148.634
146.461
143.683
152.869
156.185
158.643
160.407
161.654
162.525
163.124
163.521
163.763
163.878
163.877
163.762
163.52
163.122
162.523
161.651
160.404
158.64
156.182
152.866
162.943
166.765
169.342
171.053
172.194
172.96
173.472
173.805
174.006
174.101
174.1
174.006
173.804
173.47
172.958
172.192
171.05
169.339
166.762
162.94
174.494
178.591
180.905
182.268
183.109
183.648
183.998
184.222
184.356
184.418
184.418
184.355
184.222
183.997
183.647
183.108
182.266
180.904
178.589
174.492
188.984
192.199
193.422
194.003
194.328
194.525
194.651
194.73
194.777
194.799
194.799
194.777
194.73
194.65
194.525
194.327
194.003
193.421
192.198
188.982
103.773
104.016
104.222
104.391
104.526
104.63
104.707
104.762
104.796
104.813
104.813
104.796
104.761
104.707
104.63
104.526
104.391
104.222
104.016
103.773
111.354
112.087
112.704
113.208
113.609
113.916
114.144
114.304
114.405
114.454
114.454
114.405
114.304
114.144
113.916
113.608
113.208
112.703
112.086
111.353
119.045
120.272
121.298
122.13
122.784
123.283
123.65
123.906
124.067
124.145
124.145
124.067
123.905
123.649
123.281
122.782
122.128
121.297
120.271
119.044
126.928
128.659
130.087
131.229
132.114
132.78
133.266
133.602
133.812
133.913
133.913
133.812
133.601
133.265
132.779
132.112
131.227
130.085
128.657
126.926
135.1
137.347
139.164
140.584
141.662
142.459
143.032
143.423
143.667
143.783
143.783
143.666
143.422
143.03
142.457
141.659
140.581
139.162
137.345
135.098
143.687
146.464
148.638
150.28
151.49
152.363
152.978
153.393
153.648
153.77
153.77
153.648
153.392
152.977
152.361
151.488
150.277
148.636
146.462
143.685
152.869
156.186
158.643
160.408
161.654
162.526
163.125
163.522
163.764
163.878
163.878
163.763
163.521
163.123
162.524
161.653
160.406
158.641
156.184
152.867
162.943
166.765
169.342
171.053
172.194
172.96
173.473
173.806
174.007
174.102
174.101
174.007
173.805
173.472
172.959
172.193
171.052
169.34
166.764
162.941
174.494
178.591
180.906
182.268
183.11
183.649
183.999
184.223
184.357
184.419
184.419
184.356
184.223
183.998
183.648
183.109
182.267
180.905
178.591
174.494
188.984
192.199
193.422
194.004
194.328
194.526
194.651
194.73
194.777
194.799
194.799
194.777
194.73
194.651
194.525
194.328
194.003
193.422
192.199
188.983
103.493
103.182
102.844
102.488
102.117
101.738
101.354
100.968
100.581
100.194
110.511
109.571
108.552
107.476
106.359
105.218
104.064
102.904
101.743
100.581
117.625
116.038
114.319
112.503
110.625
108.711
106.779
104.842
102.904
100.968
124.907
122.639
120.181
117.594
114.927
112.221
109.5
106.779
104.064
101.354
132.437
129.43
126.174
122.762
119.269
115.745
112.221
108.711
105.218
101.738
140.313
136.47
132.322
128.012
123.641
119.27
114.928
110.626
106.36
102.117
148.659
143.816
138.633
133.324
128.014
122.765
117.596
112.506
107.477
102.488
157.641
151.502
145.069
138.635
132.326
126.179
120.186
114.323
108.555
102.845
167.46
159.483
151.505
143.822
136.477
129.438
122.646
116.044
109.575
103.183
178.223
167.463
157.647
148.669
140.324
132.448
124.917
117.633
110.516
103.495
103.492
103.181
102.844
102.487
102.116
101.737
101.353
100.967
100.58
100.193
110.509
109.57
108.551
107.474
106.358
105.217
104.062
102.903
101.741
100.58
117.624
116.037
114.317
112.502
110.623
108.709
106.778
104.84
102.903
100.967
124.905
122.638
120.18
117.592
114.925
112.219
109.499
106.778
104.063
101.353
132.435
129.429
126.172
122.761
119.267
115.744
112.22
108.71
105.217
101.737
140.311
136.469
132.321
128.011
123.64
119.268
114.927
110.625
106.359
102.116
148.658
143.814
138.631
133.322
128.012
122.763
117.595
112.504
107.476
102.487
157.639
151.5
145.067
138.633
132.325
126.177
120.184
114.321
108.554
102.844
167.459
159.481
151.503
143.82
136.475
129.436
122.644
116.042
109.573
103.182
178.222
167.461
157.645
148.666
140.322
132.446
124.915
117.631
110.514
103.494
103.492
103.181
102.844
102.487
102.116
101.737
101.353
100.967
100.58
100.193
110.509
109.57
108.551
107.474
106.358
105.217
104.062
102.903
101.741
100.58
117.624
116.037
114.317
112.502
110.623
108.709
106.778
104.84
102.903
100.967
124.905
122.638
120.18
117.592
114.925
112.219
109.499
106.778
104.063
101.353
132.435
129.429
126.172
122.761
119.267
115.744
112.22
108.71
105.217
101.737
140.311
136.469
132.321
128.011
123.64
119.268
114.927
110.625
106.359
102.116
148.658
143.814
138.631
133.322
128.012
122.763
117.595
112.504
107.476
102.487
157.639
151.5
145.067
138.633
132.325
126.177
120.184
114.321
108.554
102.844
167.459
159.481
151.503
143.82
136.475
129.436
122.644
116.042
109.573
103.182
178.222
167.461
157.645
148.666
140.322
132.446
124.915
117.631
110.514
103.494
103.493
103.182
102.844
102.488
102.117
101.738
101.354
100.968
100.581
100.194
110.511
109.571
108.552
107.476
106.359
105.218
104.064
102.904
101.743
100.581
117.625
116.038
114.319
112.503
110.625
108.711
106.779
104.842
102.904
100.968
124.907
122.639
120.181
117.594
114.927
112.221
109.5
106.779
104.064
101.354
132.437
129.43
126.174
122.762
119.269
115.745
112.221
108.711
105.218
101.738
140.313
136.47
132.322
128.012
123.641
119.27
114.928
110.626
106.36
102.117
148.659
143.816
138.633
133.324
128.014
122.765
117.596
112.506
107.477
102.488
157.641
151.502
145.069
138.635
132.326
126.179
120.186
114.323
108.555
102.845
167.46
159.483
151.505
143.822
136.477
129.438
122.646
116.044
109.575
103.183
178.223
167.463
157.647
148.669
140.324
132.448
124.917
117.633
110.516
103.495
188.986
174.501
162.952
152.881
143.701
135.114
126.941
119.055
111.361
103.775
192.203
178.6
166.779
156.203
146.484
137.366
128.676
120.286
112.096
104.02
193.427
180.918
169.361
158.667
148.665
139.191
130.111
121.318
112.716
104.227
194.01
182.285
171.08
160.441
150.316
140.62
131.261
122.156
113.225
104.397
194.336
183.133
172.231
161.7
151.54
141.711
132.158
122.819
113.632
104.534
194.537
183.681
173.01
162.587
152.431
142.527
132.841
123.331
113.948
104.641
194.666
184.043
173.54
163.209
153.071
143.124
133.349
123.716
114.187
104.722
194.751
184.283
173.898
163.637
153.52
143.55
133.715
123.996
114.362
104.782
194.806
184.438
174.133
163.921
153.822
143.839
133.967
124.189
114.484
104.823
194.838
184.531
174.274
164.094
154.007
144.019
134.124
124.311
114.561
104.849
194.853
184.573
174.338
164.174
154.094
144.104
134.2
124.371
114.599
104.862
194.851
184.568
174.333
164.169
154.091
144.104
134.201
124.373
114.601
104.863
194.832
184.516
174.256
164.079
153.999
144.018
134.13
124.319
114.568
104.852
194.794
184.407
174.096
163.892
153.808
143.841
133.98
124.207
114.498
104.829
194.727
184.223
173.831
163.586
153.499
143.559
133.745
124.031
114.39
104.792
194.618
183.928
173.417
163.125
153.045
143.151
133.409
123.783
114.239
104.741
194.432
183.453
172.787
162.452
152.406
142.594
132.96
123.456
114.04
104.675
194.086
182.666
171.827
161.491
151.536
141.86
132.381
123.041
113.791
104.592
193.329
181.299
170.368
160.151
150.391
140.93
131.667
122.537
113.492
104.492
191.261
178.835
168.197
158.359
148.952
139.805
130.824
121.951
113.146
104.378
188.984
174.498
162.95
152.879
143.699
135.112
126.939
119.053
111.359
103.774
192.201
178.598
166.777
156.201
146.481
137.364
128.674
120.284
112.094
104.019
193.425
180.916
169.359
158.665
148.662
139.188
130.109
121.316
112.715
104.226
194.008
182.283
171.077
160.438
150.314
140.618
131.259
122.154
113.224
104.396
194.335
183.131
172.228
161.697
151.537
141.709
132.156
122.817
113.63
104.533
194.535
183.678
173.007
162.585
152.429
142.525
132.839
123.329
113.946
104.64
194.664
184.04
173.537
163.206
153.068
143.122
133.347
123.713
114.185
104.721
194.749
184.28
173.895
163.634
153.517
143.547
133.713
123.993
114.36
104.78
194.804
184.435
174.13
163.918
153.819
143.836
133.964
124.187
114.482
104.822
194.836
184.528
174.271
164.091
154.004
144.016
134.122
124.309
114.559
104.848
194.85
184.569
174.335
164.17
154.091
144.101
134.197
124.368
114.597
104.861
194.849
184.565
174.329
164.166
154.088
144.101
134.199
124.37
114.598
104.862
194.83
184.513
174.252
164.075
153.995
144.015
134.127
124.317
114.565
104.851
194.791
184.404
174.093
163.889
153.804
143.838
133.978
124.205
114.496
104.827
194.725
184.22
173.827
163.583
153.496
143.556
133.742
124.028
114.388
104.791
194.615
183.924
173.413
163.121
153.041
143.148
133.406
123.781
114.236
104.74
194.429
183.449
172.783
162.448
152.402
142.59
132.956
123.453
114.037
104.673
194.083
182.662
171.823
161.487
151.533
141.856
132.378
123.038
113.788
104.59
193.326
181.295
170.364
160.147
150.388
140.927
131.664
122.534
113.489
104.491
191.258
178.831
168.193
158.355
148.948
139.802
130.821
121.948
113.144
104.377
188.984
174.498
162.95
152.879
143.699
135.112
126.939
119.053
111.359
103.774
192.201
178.598
166.777
156.201
146.481
137.364
128.674
120.284
112.094
104.019
193.425
180.916
169.359
158.665
148.662
139.188
130.109
121.316
112.715
104.226
194.008
182.283
171.077
160.438
150.314
140.618
131.259
122.154
113.224
104.396
194.335
183.131
172.228
161.697
151.537
141.709
132.156
122.817
113.63
104.533
194.535
183.678
173.007
162.585
152.429
142.525
132.839
123.329
113.946
104.64
194.664
184.04
173.537
163.206
153.068
143.122
133.347
123.713
114.185
104.721
194.749
184.28
173.895
163.634
153.517
143.547
133.713
123.993
114.36
104.78
194.804
184.435
174.13
163.918
153.819
143.836
133.964
124.187
114.482
104.822
194.836
184.528
174.271
164.091
154.004
144.016
134.122
124.309
114.559
104.848
194.85
184.569
174.335
164.17
154.091
144.101
134.197
124.368
114.597
104.861
194.849
184.565
174.329
164.166
154.088
144.101
134.199
124.37
114.598
104.862
194.83
184.513
174.252
164.075
153.995
144.015
134.127
124.317
114.565
104.851
194.791
184.404
174.093
163.889
153.804
143.838
133.978
124.205
114.496
104.827
194.725
184.22
173.827
163.583
153.496
143.556
133.742
124.028
114.388
104.791
194.615
183.924
173.413
163.121
153.041
143.148
133.406
123.781
114.236
104.74
194.429
183.449
172.783
162.448
152.402
142.59
132.956
123.453
114.037
104.673
194.083
182.662
171.823
161.487
151.533
141.856
132.378
123.038
113.788
104.59
193.326
181.295
170.364
160.147
150.388
140.927
131.664
122.534
113.489
104.491
191.258
178.831
168.193
158.355
148.948
139.802
130.821
121.948
113.144
104.377
188.986
174.501
162.952
152.881
143.701
135.114
126.941
119.055
111.361
103.775
192.203
178.6
166.779
156.203
146.484
137.366
128.676
120.286
112.096
104.02
193.427
180.918
169.361
158.667
148.665
139.191
130.111
121.318
112.716
104.227
194.01
182.285
171.08
160.441
150.316
140.62
131.261
122.156
113.225
104.397
194.336
183.133
172.231
161.7
151.54
141.711
132.158
122.819
113.632
104.534
194.537
183.681
173.01
162.587
152.431
142.527
132.841
123.331
113.948
104.641
194.666
184.043
173.54
163.209
153.071
143.124
133.349
123.716
114.187
104.722
194.751
184.283
173.898
163.637
153.52
143.55
133.715
123.996
114.362
104.782
194.806
184.438
174.133
163.921
153.822
143.839
133.967
124.189
114.484
104.823
194.838
184.531
174.274
164.094
154.007
144.019
134.124
124.311
114.561
104.849
194.853
184.573
174.338
164.174
154.094
144.104
134.2
124.371
114.599
104.862
194.851
184.568
174.333
164.169
154.091
144.104
134.201
124.373
114.601
104.863
194.832
184.516
174.256
164.079
153.999
144.018
134.13
124.319
114.568
104.852
194.794
184.407
174.096
163.892
153.808
143.841
133.98
124.207
114.498
104.829
194.727
184.223
173.831
163.586
153.499
143.559
133.745
124.031
114.39
104.792
194.618
183.928
173.417
163.125
153.045
143.151
133.409
123.783
114.239
104.741
194.432
183.453
172.787
162.452
152.406
142.594
132.96
123.456
114.04
104.675
194.086
182.666
171.827
161.491
151.536
141.86
132.381
123.041
113.791
104.592
193.329
181.299
170.368
160.151
150.391
140.93
131.667
122.537
113.491
104.492
191.261
178.835
168.197
158.359
148.952
139.805
130.824
121.951
113.146
104.378
184.137
174.587
165.23
156.141
147.258
138.518
129.877
121.3
112.765
104.253
177.877
170.153
162.001
153.724
145.427
137.14
128.868
120.611
112.364
104.121
172.826
166.156
158.904
151.335
143.593
135.752
127.852
119.916
111.958
103.988
168.786
162.75
156.135
149.13
141.866
134.43
126.877
119.247
111.568
103.859
165.563
159.933
153.767
147.194
140.322
133.232
125.987
118.634
111.208
103.741
163.021
157.666
151.817
145.569
139.005
132.199
125.213
118.097
110.893
103.637
161.07
155.904
150.281
144.269
137.94
131.356
124.577
117.654
110.631
103.551
159.651
154.613
149.144
143.3
137.138
130.717
124.093
117.315
110.43
103.485
158.724
153.767
148.395
142.657
136.604
130.29
123.768
117.088
110.295
103.44
158.267
153.349
148.024
142.337
136.337
130.076
123.606
116.974
110.228
103.422
184.133
174.583
165.226
156.137
147.254
138.515
129.873
121.297
112.763
104.252
177.873
170.149
161.997
153.72
145.423
137.136
128.865
120.608
112.361
104.119
172.823
166.152
158.901
151.332
143.589
135.748
127.848
119.913
111.956
103.986
168.783
162.747
156.132
149.127
141.863
134.426
126.874
119.244
111.565
103.857
165.56
159.93
153.764
147.191
140.319
133.229
125.984
118.63
111.205
103.739
163.018
157.663
151.815
145.566
139.002
132.196
125.21
118.093
110.889
103.635
161.067
155.901
150.278
144.266
137.936
131.353
124.573
117.649
110.627
103.548
159.648
154.611
149.141
143.296
137.134
130.713
124.088
117.31
110.425
103.481
158.722
153.765
148.393
142.654
136.6
130.286
123.763
117.082
110.289
103.435
158.264
153.347
148.021
142.334
136.334
130.072
123.601
116.968
110.221
103.416
184.133
174.583
165.226
156.137
147.254
138.515
129.873
121.297
112.763
104.252
177.873
170.149
161.997
153.72
145.423
137.136
128.865
120.608
112.361
104.119
172.823
166.152
158.901
151.332
143.589
135.748
127.848
119.913
111.956
103.986
168.783
162.747
156.132
149.127
141.863
134.426
126.874
119.244
111.565
103.857
165.56
159.93
153.764
147.191
140.319
133.229
125.984
118.63
111.205
103.739
163.018
157.663
151.815
145.566
139.002
132.196
125.209
118.093
110.889
103.635
161.067
155.901
150.278
144.266
137.936
131.353
124.573
117.649
110.627
103.548
159.648
154.611
149.141
143.296
137.134
130.713
124.088
117.31
110.425
103.481
158.721
153.765
148.392
142.653
136.6
130.286
123.763
117.082
110.289
103.435
158.264
153.346
148.021
142.334
136.333
130.072
123.601
116.968
110.221
103.416
184.137
174.587
165.23
156.141
147.258
138.518
129.877
121.3
112.765
104.253
177.877
170.153
162.001
153.724
145.427
137.14
128.868
120.611
112.363
104.121
172.826
166.156
158.904
151.335
143.593
135.751
127.852
119.916
111.958
103.988
168.786
162.75
156.135
149.13
141.866
134.43
126.877
119.247
111.568
103.859
165.563
159.933
153.767
147.194
140.322
133.232
125.987
118.633
111.208
103.741
163.021
157.666
151.817
145.569
139.005
132.199
125.213
118.097
110.893
103.637
161.07
155.904
150.281
144.269
137.94
131.356
124.577
117.653
110.631
103.551
159.65
154.613
149.144
143.299
137.138
130.717
124.093
117.315
110.43
103.485
158.724
153.767
148.395
142.656
136.604
130.29
123.768
117.088
110.295
103.44
158.267
153.349
148.024
142.337
136.337
130.076
123.605
116.974
110.228
103.422
192.824
195.598
196.772
197.41
197.814
198.091
198.285
198.418
198.501
198.542
198.542
198.502
198.419
198.286
198.093
197.817
197.413
196.775
195.6
192.826
184.393
188.394
190.857
192.465
193.572
194.357
194.917
195.304
195.549
195.668
195.669
195.551
195.308
194.922
194.363
193.578
192.472
190.864
188.4
184.398
178.484
182.733
185.803
188.027
189.656
190.855
191.728
192.339
192.728
192.918
192.919
192.732
192.345
191.735
190.864
189.667
188.039
185.815
182.744
178.494
174
178.258
181.604
184.192
186.179
187.688
188.809
189.605
190.116
190.366
190.368
190.121
189.613
188.82
187.702
186.195
184.209
181.622
178.276
174.017
170.498
174.706
178.173
180.971
183.191
184.921
186.229
187.169
187.777
188.076
188.078
187.783
187.18
186.244
184.939
183.213
180.995
178.199
174.733
170.525
167.76
171.909
175.424
178.34
180.709
182.59
184.033
185.079
185.761
186.099
186.102
185.77
185.094
184.052
182.614
180.738
178.373
175.46
171.947
167.799
165.666
169.761
173.292
176.272
178.734
180.714
182.25
183.373
184.109
184.475
184.478
184.12
183.391
182.275
180.745
178.771
176.314
173.338
169.811
165.719
164.144
168.196
171.727
174.742
177.259
179.303
180.9
182.075
182.848
183.233
183.237
182.861
182.096
180.93
179.34
177.304
174.794
171.784
168.258
164.209
163.149
167.172
170.7
173.732
176.28
178.361
179.994
181.201
181.997
182.394
182.399
182.012
181.225
180.028
178.403
176.331
173.791
170.766
167.244
163.226
162.657
166.665
170.19
173.229
175.791
177.889
179.54
180.761
181.568
181.972
181.977
181.584
180.788
179.576
177.935
175.846
173.293
170.262
166.743
162.74
192.827
195.599
196.774
197.411
197.815
198.092
198.285
198.418
198.501
198.542
198.542
198.502
198.418
198.286
198.092
197.815
197.411
196.774
195.599
192.824
184.396
188.397
190.86
192.467
193.574
194.359
194.918
195.305
195.549
195.668
195.668
195.551
195.307
194.921
194.362
193.577
192.47
190.862
188.398
184.395
178.487
182.736
185.806
188.029
189.658
190.857
191.729
192.34
192.729
192.918
192.919
192.731
192.344
191.734
190.863
189.665
188.037
185.813
182.741
178.491
174.003
178.261
181.607
184.195
186.181
187.69
188.811
189.606
190.116
190.366
190.368
190.12
189.612
188.819
187.7
186.193
184.207
181.62
178.274
174.015
170.501
174.709
178.175
180.973
183.193
184.922
186.23
187.169
187.777
188.076
188.078
187.782
187.179
186.243
184.938
183.211
180.993
178.197
174.731
170.522
167.763
171.912
175.427
178.342
180.711
182.591
184.034
185.08
185.762
186.099
186.101
185.769
185.093
184.051
182.613
180.737
178.371
175.458
171.945
167.797
165.67
169.764
173.294
176.274
178.736
180.716
182.251
183.374
184.109
184.475
184.478
184.119
183.39
182.273
180.744
178.769
176.312
173.336
169.809
165.716
164.147
168.199
171.73
174.744
177.261
179.304
180.901
182.076
182.848
183.233
183.237
182.86
182.095
180.928
179.339
177.302
174.792
171.782
168.256
164.207
163.152
167.175
170.702
173.734
176.282
178.362
179.995
181.202
181.997
182.394
182.399
182.011
181.224
180.027
178.402
176.329
173.789
170.764
167.242
163.223
162.66
166.668
170.192
173.231
175.793
177.89
179.541
180.762
181.569
181.972
181.977
181.583
180.787
179.575
177.933
175.845
173.291
170.259
166.741
162.738
192.827
195.599
196.774
197.411
197.815
198.092
198.285
198.418
198.501
198.542
198.542
198.502
198.418
198.286
198.092
197.815
197.411
196.774
195.599
192.824
184.396
188.397
190.86
192.467
193.574
194.359
194.918
195.305
195.549
195.668
195.668
195.551
195.307
194.921
194.362
193.577
192.47
190.862
188.398
184.395
178.487
182.736
185.806
188.029
189.658
190.857
191.729
192.34
192.729
192.918
192.919
192.731
192.344
191.734
190.863
189.665
188.037
185.813
182.741
178.491
174.003
178.261
181.607
184.195
186.181
187.69
188.811
189.606
190.116
190.366
190.368
190.12
189.612
188.819
187.7
186.193
184.207
181.62
178.274
174.015
170.501
174.709
178.175
180.973
183.193
184.922
186.23
187.169
187.777
188.076
188.078
187.782
187.179
186.243
184.938
183.211
180.993
178.197
174.731
170.522
167.763
171.912
175.427
178.342
180.711
182.591
184.034
185.08
185.762
186.099
186.101
185.769
185.093
184.051
182.613
180.737
178.371
175.458
171.945
167.797
165.67
169.764
173.294
176.274
178.736
180.716
182.251
183.374
184.109
184.475
184.478
184.119
183.39
182.273
180.744
178.769
176.312
173.336
169.809
165.716
164.147
168.199
171.73
174.744
177.261
179.304
180.901
182.075
182.848
183.233
183.237
182.86
182.095
180.928
179.339
177.302
174.792
171.782
168.255
164.207
163.152
167.175
170.702
173.734
176.281
178.362
179.995
181.201
181.997
182.394
182.398
182.011
181.224
180.027
178.402
176.329
173.789
170.763
167.241
163.223
162.66
166.668
170.192
173.231
175.793
177.89
179.541
180.762
181.568
181.971
181.976
181.583
180.786
179.575
177.933
175.845
173.291
170.259
166.741
162.738
192.824
195.598
196.772
197.41
197.814
198.091
198.285
198.418
198.501
198.542
198.542
198.502
198.419
198.286
198.093
197.817
197.413
196.775
195.6
192.826
184.393
188.394
190.857
192.465
193.572
194.357
194.917
195.304
195.549
195.668
195.669
195.551
195.308
194.922
194.363
193.578
192.472
190.864
188.4
184.398
178.484
182.733
185.803
188.027
189.656
190.855
191.728
192.339
192.728
192.918
192.919
192.732
192.345
191.736
190.864
189.667
188.039
185.815
182.744
178.494
174
178.258
181.604
184.192
186.179
187.688
188.81
189.605
190.116
190.366
190.368
190.121
189.613
188.82
187.702
186.195
184.209
181.622
178.276
174.017
170.498
174.706
178.173
180.971
183.191
184.921
186.229
187.169
187.777
188.076
188.078
187.783
187.18
186.244
184.939
183.213
180.995
178.199
174.733
170.525
167.76
171.909
175.424
178.34
180.709
182.59
184.033
185.079
185.761
186.099
186.102
185.77
185.094
184.052
182.614
180.738
178.373
175.46
171.947
167.799
165.667
169.761
173.292
176.272
178.734
180.714
182.25
183.373
184.109
184.475
184.478
184.12
183.391
182.275
180.745
178.771
176.314
173.338
169.811
165.718
164.144
168.196
171.727
174.742
177.259
179.303
180.9
182.075
182.848
183.233
183.237
182.86
182.096
180.929
179.34
177.304
174.793
171.784
168.258
164.209
163.149
167.172
170.699
173.732
176.28
178.36
179.994
181.201
181.997
182.394
182.399
182.011
181.225
180.028
178.403
176.331
173.791
170.765
167.244
163.225
162.657
166.665
170.19
173.229
175.791
177.888
179.54
180.761
181.568
181.971
181.977
181.584
180.787
179.576
177.935
175.846
173.293
170.261
166.743
162.74
104.253
112.767
121.304
129.882
138.525
147.265
156.147
165.234
174.589
184.136
104.121
112.364
120.614
128.873
137.145
145.432
153.728
162.003
170.153
177.874
103.987
111.958
119.917
127.853
135.753
143.594
151.335
158.901
166.15
172.818
103.858
111.565
119.245
126.875
134.426
141.861
149.122
156.124
162.736
168.771
103.738
111.203
118.627
125.978
133.221
140.307
147.176
153.746
159.909
165.537
103.633
110.884
118.084
125.196
132.178
138.978
145.538
151.783
157.628
162.982
103.545
110.619
117.634
124.551
131.323
137.9
144.224
150.231
155.852
161.017
103.477
110.414
117.287
124.055
130.67
137.083
143.239
149.08
154.547
159.584
103.431
110.275
117.051
123.718
130.23
136.535
142.582