/*--------------------------------*- C++ -*----------------------------------*\
| =========                 |                                                 |
| \\      /  F ield         | OpenFOAM: The Open Source CFD Toolbox           |
|  \\    /   O peration     | Version:  2.4.0                                 |
|   \\  /    A nd           | Web:      www.OpenFOAM.org                      |
|    \\/     M anipulation  |                                                 |
\*---------------------------------------------------------------------------*/
FoamFile
{
    version     2.0;
    format      ascii;
    class       volScalarField;
    location    "0.8";
    object      T;
}
// * * * * * * * * * * * * * * * * * * * * * * * * * * * * * * * * * * * * * //

dimensions      [0 0 0 1 0 0 0];

internalField   nonuniform List<scalar> 
1600
(
101.411
104.233
107.052
109.866
112.675
115.475
118.266
121.045
123.811
126.562
129.297
132.014
134.711
137.387
140.041
142.672
145.279
147.861
150.417
152.946
155.449
157.925
160.375
162.798
165.196
167.569
169.917
172.242
174.546
176.829
179.094
181.341
183.573
185.791
187.997
190.193
192.381
194.563
196.739
198.913
101.412
104.235
107.056
109.873
112.683
115.485
118.277
121.058
123.826
126.579
129.315
132.033
134.732
137.409
140.065
142.697
145.304
147.886
150.443
152.973
155.476
157.952
160.401
162.824
165.221
167.592
169.94
172.264
174.566
176.848
179.111
181.357
183.587
185.803
188.008
190.202
192.388
194.568
196.742
198.915
101.414
104.241
107.065
109.885
112.699
115.504
118.3
121.085
123.856
126.612
129.351
132.072
134.773
137.453
140.11
142.744
145.353
147.937
150.494
153.024
155.528
158.004
160.453
162.875
165.27
167.64
169.986
172.308
174.608
176.887
179.146
181.389
183.615
185.828
188.029
190.219
192.402
194.577
196.748
198.916
101.417
104.249
107.078
109.904
112.723
115.533
118.334
121.124
123.899
126.66
129.403
132.128
134.833
137.517
140.177
142.814
145.426
148.011
150.57
153.101
155.605
158.081
160.529
162.95
165.344
167.712
170.054
172.373
174.669
176.944
179.199
181.437
183.658
185.866
188.061
190.246
192.422
194.592
196.757
198.919
101.42
104.259
107.096
109.928
112.754
115.572
118.379
121.175
123.957
126.724
129.473
132.203
134.913
137.601
140.266
142.906
145.521
148.109
150.669
153.202
155.706
158.182
160.63
163.049
165.441
167.806
170.145
172.46
174.751
177.02
179.269
181.5
183.715
185.915
188.103
190.281
192.449
194.611
196.769
198.923
101.424
104.272
107.118
109.959
112.793
115.619
118.435
121.239
124.029
126.802
129.559
132.295
135.011
137.705
140.375
143.019
145.638
148.229
150.792
153.326
155.832
158.308
160.754
163.172
165.561
167.923
170.258
172.567
174.853
177.115
179.357
181.58
183.787
185.978
188.157
190.324
192.484
194.636
196.783
198.928
101.43
104.288
107.144
109.995
112.84
115.676
118.502
121.315
124.113
126.896
129.66
132.405
135.128
137.828
140.504
143.154
145.777
148.372
150.937
153.474
155.98
158.456
160.902
163.318
165.705
168.062
170.392
172.696
174.974
177.229
179.462
181.676
183.872
186.053
188.221
190.377
192.525
194.665
196.801
198.934
101.436
104.306
107.174
110.037
112.894
115.742
118.579
121.403
124.212
127.004
129.778
132.532
135.263
137.971
140.653
143.309
145.937
148.536
151.105
153.644
156.152
158.628
161.073
163.487
165.87
168.224
170.548
172.845
175.116
177.362
179.585
181.788
183.973
186.141
188.296
190.439
192.573
194.7
196.822
198.941
101.443
104.327
107.209
110.086
112.956
115.816
118.666
121.502
124.324
127.127
129.912
132.675
135.416
138.132
140.822
143.484
146.118
148.722
151.295
153.836
156.345
158.822
161.266
163.678
166.058
168.407
170.725
173.014
175.276
177.513
179.725
181.916
184.087
186.242
188.382
190.51
192.629
194.74
196.846
198.949
101.451
104.35
107.248
110.14
113.025
115.9
118.764
121.614
124.449
127.265
130.061
132.836
135.587
138.312
141.01
143.68
146.32
148.929
151.505
154.05
156.56
159.037
161.48
163.89
166.266
168.61
170.922
173.204
175.456
177.682
179.882
182.059
184.216
186.355
188.479
190.59
192.691
194.785
196.873
198.958
101.459
104.376
107.291
110.2
113.102
115.994
118.874
121.739
124.588
127.418
130.227
133.013
135.775
138.51
141.218
143.895
146.542
149.156
151.737
154.284
156.796
159.274
161.716
164.123
166.495
168.834
171.139
173.412
175.655
177.869
180.056
182.218
184.359
186.481
188.587
190.679
192.761
194.835
196.903
198.968
101.469
104.405
107.339
110.267
113.187
116.097
118.994
121.876
124.74
127.585
130.409
133.208
135.982
138.728
141.445
144.131
146.784
149.404
151.989
154.539
157.053
159.531
161.972
164.376
166.744
169.077
171.375
173.639
175.871
178.073
180.246
182.393
184.517
186.621
188.707
190.778
192.838
194.89
196.937
198.979
101.479
104.437
107.392
110.34
113.281
116.21
119.126
122.026
124.908
127.769
130.607
133.421
136.207
138.965
141.691
144.386
147.047
149.673
152.262
154.815
157.331
159.808
162.247
164.649
167.013
169.339
171.63
173.885
176.106
178.294
180.453
182.584
184.689
186.773
188.838
190.887
192.923
194.951
196.973
198.991
101.491
104.472
107.449
110.421
113.383
116.334
119.27
122.19
125.09
127.969
130.824
133.652
136.452
139.221
141.959
144.662
147.331
149.962
152.557
155.112
157.629
160.106
162.544
164.942
167.301
169.621
171.903
174.148
176.357
178.533
180.676
182.79
184.876
186.938
188.98
191.005
193.016
195.018
197.014
199.005
101.504
104.51
107.513
110.509
113.495
116.469
119.428
122.369
125.289
128.187
131.059
133.903
136.717
139.499
142.248
144.961
147.637
150.275
152.873
155.432
157.95
160.426
162.862
165.256
167.61
169.923
172.196
174.43
176.627
178.788
180.916
183.011
185.077
187.117
189.135
191.133
193.117
195.091
197.058
199.019
101.518
104.551
107.582
110.605
113.617
116.616
119.6
122.563
125.506
128.423
131.314
134.175
137.004
139.8
142.56
145.283
147.967
150.611
153.214
155.776
158.294
160.77
163.204
165.594
167.941
170.246
172.51
174.733
176.917
179.062
181.172
183.248
185.293
187.31
189.301
191.272
193.227
195.17
197.105
199.035
101.533
104.597
107.657
110.709
113.751
116.777
119.787
122.776
125.741
128.68
131.591
134.47
137.316
140.126
142.898
145.631
148.324
150.975
153.582
156.146
158.666
161.141
163.571
165.957
168.297
170.594
172.847
175.058
177.227
179.356
181.447
183.503
185.525
187.516
189.481
191.423
193.346
195.255
197.157
199.052
101.55
104.647
107.74
110.824
113.896
116.953
119.991
123.007
125.997
128.96
131.892
134.79
137.653
140.479
143.264
146.008
148.71
151.368
153.98
156.547
159.068
161.542
163.969
166.349
168.682
170.969
173.211
175.408
177.561
179.672
181.743
183.776
185.774
187.739
189.674
191.585
193.474
195.348
197.213
199.071
101.568
104.702
107.83
110.95
114.056
117.145
120.214
123.259
126.277
129.265
132.22
135.139
138.021
140.862
143.662
146.418
149.129
151.794
154.412
156.982
159.503
161.976
164.399
166.774
169.099
171.376
173.605
175.786
177.922
180.014
182.063
184.071
186.042
187.978
189.883
191.759
193.613
195.448
197.274
199.091
101.588
104.762
107.93
111.088
114.231
117.356
120.459
123.535
126.583
129.598
132.578
135.519
138.421
141.28
144.094
146.863
149.584
152.257
154.881
157.454
159.976
162.447
164.867
167.235
169.552
171.817
174.032
176.198
178.315
180.385
182.409
184.391
186.333
188.237
190.108
191.948
193.763
195.557
197.34
199.113
101.61
104.828
108.039
111.239
114.423
117.587
120.727
123.838
126.918
129.962
132.969
135.935
138.858
141.735
144.566
147.348
150.081
152.762
155.391
157.968
160.491
162.961
165.376
167.737
170.044
172.298
174.498
176.645
178.742
180.788
182.787
184.739
186.649
188.518
190.352
192.153
193.926
195.676
197.412
199.136
101.635
104.901
108.16
111.406
114.635
117.842
121.022
124.171
127.285
130.362
133.398
136.389
139.335
142.233
145.081
147.878
150.622
153.313
155.949
158.529
161.053
163.521
165.932
168.285
170.582
172.822
175.006
177.134
179.208
181.229
183.198
185.119
186.993
188.825
190.618
192.376
194.103
195.805
197.491
199.162
101.662
104.982
108.293
111.591
114.869
118.122
121.346
124.537
127.689
130.801
133.868
136.888
139.859
142.779
145.645
148.457
151.214
153.914
156.557
159.141
161.667
164.132
166.538
168.884
171.169
173.395
175.561
177.668
179.717
181.711
183.649
185.535
187.371
189.161
190.909
192.619
194.297
195.946
197.577
199.191
101.691
105.071
108.441
111.795
115.128
118.433
121.705
124.94
128.134
131.284
134.385
137.435
140.433
143.376
146.263
149.091
151.862
154.572
157.222
159.81
162.336
164.8
167.2
169.538
171.811
174.021
176.168
178.253
180.276
182.239
184.143
185.991
187.785
189.529
191.228
192.886
194.509
196.101
197.672
199.222
101.725
105.17
108.605
112.022
115.414
118.776
122.102
125.386
128.625
131.816
134.954
138.037
141.063
144.031
146.939
149.785
152.57
155.291
157.948
160.541
163.068
165.529
167.924
170.252
172.513
174.706
176.833
178.893
180.888
182.818
184.685
186.492
188.241
189.935
191.58
193.181
194.743
196.271
197.777
199.257
101.762
105.281
108.788
112.274
115.733
119.157
122.541
125.879
129.168
132.402
135.58
138.698
141.755
144.75
147.68
150.545
153.345
156.077
158.742
161.339
163.867
166.326
168.714
171.032
173.279
175.455
177.56
179.595
181.559
183.454
185.282
187.044
188.743
190.384
191.969
193.506
195.001
196.46
197.892
199.296
101.803
105.405
108.992
112.555
116.088
119.581
123.029
126.426
129.767
133.05
136.27
139.426
142.516
145.538
148.492
151.377
154.192
156.936
159.609
162.211
164.739
167.195
169.577
171.885
174.118
176.275
178.357
180.364
182.296
184.153
185.939
187.653
189.298
190.879
192.4
193.867
195.287
196.668
198.02
199.338
101.85
105.543
109.22
112.87
116.483
120.053
123.571
127.031
130.431
133.764
137.03
140.226
143.35
146.402
149.381
152.286
155.117
157.874
160.555
163.161
165.691
168.143
170.518
172.815
175.033
177.171
179.229
181.206
183.104
184.922
186.662
188.324
189.912
191.428
192.879
194.269
195.607
196.901
198.163
199.386
101.902
105.699
109.476
113.222
116.926
120.579
124.174
127.704
131.165
134.554
137.868
141.106
144.267
147.349
150.354
153.28
156.127
158.896
161.586
164.196
166.727
169.176
171.544
173.829
176.031
178.149
180.182
182.129
183.991
185.767
187.458
189.065
190.591
192.038
193.411
194.717
195.963
197.161
198.322
199.439
101.961
105.875
109.766
113.619
117.423
121.169
124.846
128.451
131.979
135.426
138.791
142.073
145.271
148.386
151.416
154.364
157.228
160.01
162.708
165.323
167.853
170.299
172.659
174.933
177.119
179.216
181.223
183.139
184.964
186.696
188.336
189.885
191.344
192.716
194.005
195.218
196.363
197.454
198.501
199.499
102.028
106.075
110.094
114.068
117.983
121.829
125.598
129.283
132.881
136.389
139.807
143.135
146.371
149.518
152.576
155.545
158.427
161.22
163.927
166.546
169.077
171.519
173.872
176.133
178.303
180.379
182.36
184.244
186.031
187.718
189.305
190.792
192.18
193.471
194.669
195.78
196.814
197.784
198.703
199.566
102.105
106.304
110.467
114.577
118.616
122.572
126.438
130.209
133.88
137.453
140.925
144.299
147.575
150.754
153.839
156.83
159.728
162.534
165.248
167.871
170.403
172.841
175.186
177.436
179.59
181.645
183.599
185.452
187.199
188.84
190.373
191.796
193.11
194.315
195.415
196.415
197.325
198.16
198.932
199.644
102.194
106.567
110.897
115.159
119.334
123.41
127.38
131.24
134.989
138.626
142.154
145.574
148.889
152.101
155.212
158.223
161.138
163.956
166.678
169.305
171.836
174.271
176.609
178.847
180.985
183.02
184.948
186.769
188.478
190.073
191.551
192.909
194.146
195.261
196.256
197.136
197.908
198.59
199.196
199.734
102.299
106.876
111.396
115.829
120.154
124.359
128.439
132.391
136.218
139.92
143.503
146.969
150.321
153.564
156.7
159.732
162.662
165.492
168.221
170.852
173.383
175.815
178.145
180.373
182.495
184.51
186.415
188.205
189.877
191.427
192.851
194.144
195.303
196.325
197.209
197.958
198.579
199.088
199.502
199.84
102.424
107.242
111.983
116.608
121.096
125.437
129.63
133.675
137.579
141.345
144.98
148.49
151.878
155.151
158.31
161.361
164.306
167.146
169.882
172.517
175.048
177.476
179.8
182.018
184.127
186.124
188.005
189.767
191.404
192.912
194.284
195.514
196.596
197.523
198.293
198.904
199.359
199.674
199.865
199.969
102.578
107.688
112.686
117.525
122.186
126.667
130.972
135.109
139.086
142.912
146.596
150.146
153.567
156.866
160.047
163.115
166.073
168.922
171.666
174.303
176.835
179.261
181.579
183.788
185.884
187.866
189.727
191.464
193.07
194.54
195.864
197.036
198.044
198.881
199.535
200.002
200.277
200.376
200.305
200.125
102.776
108.251
113.547
118.616
123.456
128.075
132.487
136.708
140.751
144.631
148.359
151.943
155.393
158.716
161.916
164.999
167.968
170.826
173.575
176.215
178.748
181.172
183.486
185.688
187.775
189.743
191.588
193.304
194.884
196.321
197.605
198.725
199.669
200.422
200.967
201.291
201.378
201.234
200.849
200.32
103.049
108.994
114.625
119.932
124.944
129.688
134.195
138.488
142.588
146.512
150.276
153.889
157.363
160.705
163.921
167.016
169.995
172.861
175.615
178.259
180.793
183.216
185.527
187.724
189.804
191.763
193.596
195.296
196.856
198.268
199.52
200.6
201.491
202.175
202.628
202.823
202.726
202.321
201.555
200.581
103.509
110.034
116
121.528
126.688
131.536
136.117
140.465
144.608
148.567
152.357
155.993
159.485
162.841
166.069
169.175
172.162
175.033
177.792
180.439
182.975
185.398
187.709
189.904
191.98
193.933
195.758
197.448
198.995
200.39
201.621
202.673
203.528
204.165
204.551
204.651
204.405
203.758
202.567
201.021
104.356
111.619
117.86
123.537
128.788
133.694
138.314
142.692
146.857
150.834
154.638
158.286
161.787
165.152
168.387
171.498
174.489
177.365
180.126
182.775
185.312
187.736
190.046
192.239
194.313
196.263
198.084
199.768
201.309
202.695
203.914
204.951
205.786
206.396
206.744
206.792
206.463
205.68
204.197
202.07
)
;

boundaryField
{
    carasuperior
    {
        type            fixedGradient;
        gradient        uniform 100;
    }
    lateralizquierda
    {
        type            fixedValue;
        value           uniform 100;
    }
    lateralderecha
    {
        type            fixedValue;
        value           uniform 200;
    }
    carainferior
    {
        type            zeroGradient;
    }
    frontAndBack
    {
        type            empty;
    }
}


// ************************************************************************* //
