/*--------------------------------*- C++ -*----------------------------------*\
| =========                 |                                                 |
| \\      /  F ield         | OpenFOAM: The Open Source CFD Toolbox           |
|  \\    /   O peration     | Version:  2.4.0                                 |
|   \\  /    A nd           | Web:      www.OpenFOAM.org                      |
|    \\/     M anipulation  |                                                 |
\*---------------------------------------------------------------------------*/
FoamFile
{
    version     2.0;
    format      ascii;
    class       volScalarField;
    location    "0.0053";
    object      T;
}
// * * * * * * * * * * * * * * * * * * * * * * * * * * * * * * * * * * * * * //

dimensions      [0 0 0 1 0 0 0];

internalField   nonuniform List<scalar> 
4800
(
100.194
100.581
100.967
101.354
101.737
102.117
102.487
102.844
103.182
103.493
100.581
101.742
102.903
104.063
105.217
106.358
107.475
108.552
109.571
110.511
100.968
102.903
104.841
106.778
108.71
110.624
112.503
114.319
116.038
117.625
101.354
104.063
106.778
109.499
112.22
114.926
117.593
120.181
122.639
124.907
101.738
105.217
108.71
112.22
115.744
119.268
122.761
126.173
129.43
132.438
102.117
106.359
110.625
114.927
119.268
123.64
128.011
132.322
136.47
140.313
102.487
107.476
112.504
117.594
122.762
128.012
133.322
138.631
143.815
148.659
102.845
108.553
114.32
120.183
126.175
132.323
138.632
145.067
151.501
157.64
103.182
109.572
116.041
122.642
129.434
136.473
143.818
151.502
159.481
167.459
103.494
110.513
117.629
124.912
132.443
140.319
148.664
157.643
167.461
178.221
100.194
100.581
100.967
101.354
101.737
102.117
102.487
102.844
103.182
103.493
100.581
101.742
102.903
104.063
105.217
106.358
107.475
108.552
109.571
110.511
100.968
102.903
104.841
106.778
108.71
110.624
112.503
114.319
116.038
117.625
101.354
104.063
106.778
109.499
112.22
114.926
117.593
120.181
122.639
124.907
101.738
105.217
108.71
112.22
115.744
119.268
122.761
126.173
129.43
132.438
102.117
106.359
110.625
114.927
119.268
123.64
128.011
132.322
136.47
140.313
102.487
107.476
112.504
117.594
122.762
128.012
133.322
138.631
143.816
148.659
102.845
108.553
114.32
120.183
126.176
132.323
138.633
145.067
151.501
157.64
103.182
109.573
116.041
122.643
129.434
136.474
143.818
151.503
159.481
167.459
103.494
110.514
117.63
124.913
132.444
140.319
148.664
157.644
167.461
178.222
100.194
100.581
100.967
101.354
101.737
102.117
102.487
102.844
103.182
103.493
100.581
101.742
102.903
104.063
105.217
106.358
107.475
108.552
109.571
110.511
100.968
102.903
104.841
106.778
108.71
110.624
112.503
114.319
116.038
117.625
101.354
104.063
106.778
109.499
112.22
114.926
117.593
120.181
122.639
124.907
101.738
105.217
108.71
112.22
115.744
119.268
122.761
126.173
129.43
132.438
102.117
106.359
110.625
114.927
119.268
123.64
128.011
132.322
136.47
140.313
102.487
107.476
112.504
117.594
122.762
128.012
133.322
138.631
143.816
148.659
102.845
108.553
114.32
120.183
126.176
132.323
138.633
145.067
151.501
157.64
103.182
109.573
116.041
122.643
129.434
136.474
143.818
151.503
159.481
167.459
103.494
110.514
117.63
124.913
132.444
140.319
148.664
157.644
167.461
178.222
100.194
100.581
100.967
101.354
101.737
102.117
102.487
102.844
103.182
103.493
100.581
101.742
102.903
104.063
105.217
106.358
107.475
108.552
109.571
110.511
100.968
102.903
104.841
106.778
108.71
110.624
112.503
114.319
116.038
117.625
101.354
104.063
106.778
109.499
112.22
114.926
117.593
120.181
122.639
124.907
101.738
105.217
108.71
112.22
115.744
119.268
122.761
126.173
129.43
132.438
102.117
106.359
110.625
114.927
119.268
123.64
128.011
132.322
136.47
140.313
102.487
107.476
112.504
117.594
122.762
128.012
133.322
138.631
143.815
148.659
102.845
108.553
114.32
120.183
126.175
132.323
138.632
145.067
151.501
157.64
103.182
109.572
116.041
122.642
129.434
136.473
143.818
151.502
159.481
167.459
103.494
110.513
117.629
124.912
132.443
140.319
148.664
157.643
167.461
178.221
103.773
104.016
104.222
104.391
104.526
104.63
104.707
104.761
104.796
104.813
104.813
104.796
104.761
104.707
104.63
104.526
104.391
104.222
104.016
103.773
111.354
112.086
112.704
113.208
113.608
113.916
114.144
114.304
114.405
114.454
114.454
114.405
114.304
114.144
113.916
113.608
113.208
112.703
112.086
111.353
119.044
120.272
121.298
122.129
122.783
123.282
123.649
123.906
124.067
124.145
124.145
124.066
123.905
123.648
123.281
122.782
122.128
121.297
120.271
119.043
126.927
128.658
130.087
131.228
132.113
132.78
133.266
133.602
133.812
133.913
133.913
133.812
133.601
133.264
132.778
132.111
131.226
130.085
128.656
126.926
135.099
137.346
139.164
140.583
141.661
142.459
143.031
143.423
143.667
143.783
143.783
143.666
143.422
143.03
142.457
141.659
140.581
139.161
137.344
135.098
143.686
146.464
148.637
150.279
151.489
152.363
152.978
153.393
153.648
153.77
153.77
153.648
153.392
152.976
152.361
151.487
150.277
148.635
146.462
143.684
152.868
156.185
158.643
160.407
161.654
162.525
163.124
163.522
163.764
163.878
163.878
163.763
163.521
163.123
162.524
161.652
160.405
158.641
156.183
152.866
162.942
166.765
169.342
171.053
172.194
172.96
173.472
173.806
174.007
174.101
174.101
174.006
173.805
173.471
172.959
172.193
171.051
169.34
166.763
162.941
174.494
178.591
180.905
182.268
183.11
183.648
183.999
184.223
184.357
184.419
184.419
184.356
184.223
183.998
183.648
183.109
182.267
180.905
178.59
174.493
188.983
192.199
193.422
194.004
194.328
194.526
194.651
194.73
194.777
194.799
194.799
194.777
194.73
194.651
194.525
194.328
194.003
193.422
192.199
188.983
103.772
104.016
104.222
104.391
104.526
104.63
104.707
104.761
104.796
104.812
104.812
104.795
104.761
104.707
104.629
104.525
104.391
104.222
104.015
103.772
111.353
112.086
112.704
113.208
113.608
113.916
114.144
114.304
114.405
114.454
114.453
114.404
114.303
114.143
113.915
113.607
113.207
112.702
112.085
111.352
119.044
120.272
121.298
122.129
122.783
123.282
123.649
123.905
124.066
124.144
124.144
124.066
123.904
123.648
123.28
122.781
122.127
121.295
120.269
119.042
126.927
128.658
130.087
131.228
132.113
132.78
133.265
133.601
133.811
133.912
133.912
133.811
133.6
133.263
132.777
132.11
131.225
130.084
128.655
126.924
135.099
137.346
139.163
140.583
141.661
142.458
143.031
143.422
143.666
143.782
143.782
143.665
143.421
143.029
142.456
141.658
140.58
139.16
137.343
135.096
143.686
146.464
148.637
150.279
151.489
152.362
152.977
153.392
153.647
153.769
153.769
153.647
153.391
152.975
152.36
151.486
150.276
148.634
146.46
143.683
152.868
156.185
158.643
160.407
161.654
162.525
163.124
163.521
163.763
163.877
163.877
163.762
163.52
163.122
162.522
161.651
160.404
158.639
156.181
152.865
162.942
166.765
169.341
171.052
172.194
172.96
173.472
173.805
174.006
174.1
174.1
174.005
173.804
173.47
172.958
172.191
171.05
169.338
166.762
162.939
174.494
178.591
180.905
182.267
183.109
183.648
183.998
184.222
184.356
184.418
184.418
184.355
184.221
183.997
183.647
183.108
182.266
180.903
178.589
174.492
188.983
192.199
193.421
194.003
194.327
194.525
194.651
194.73
194.777
194.799
194.799
194.777
194.729
194.65
194.525
194.327
194.002
193.421
192.198
188.982
103.772
104.016
104.222
104.391
104.526
104.63
104.707
104.761
104.796
104.812
104.812
104.795
104.761
104.707
104.629
104.525
104.391
104.222
104.015
103.772
111.353
112.086
112.704
113.208
113.608
113.916
114.144
114.304
114.405
114.454
114.453
114.404
114.303
114.143
113.915
113.607
113.207
112.702
112.085
111.352
119.044
120.272
121.298
122.129
122.783
123.282
123.649
123.905
124.066
124.144
124.144
124.066
123.904
123.648
123.28
122.781
122.127
121.295
120.269
119.042
126.927
128.658
130.087
131.228
132.113
132.78
133.265
133.601
133.811
133.912
133.912
133.811
133.6
133.263
132.777
132.11
131.225
130.084
128.655
126.924
135.099
137.346
139.163
140.583
141.661
142.458
143.031
143.422
143.666
143.782
143.782
143.665
143.421
143.029
142.456
141.658
140.58
139.16
137.343
135.096
143.686
146.464
148.637
150.279
151.489
152.362
152.977
153.392
153.647
153.769
153.769
153.647
153.391
152.975
152.36
151.486
150.276
148.634
146.46
143.683
152.868
156.185
158.643
160.407
161.654
162.525
163.124
163.521
163.763
163.877
163.877
163.762
163.52
163.122
162.522
161.651
160.404
158.639
156.181
152.865
162.942
166.765
169.341
171.052
172.194
172.96
173.472
173.805
174.006
174.1
174.1
174.005
173.804
173.47
172.958
172.191
171.05
169.338
166.762
162.939
174.494
178.591
180.905
182.267
183.109
183.648
183.998
184.222
184.356
184.418
184.418
184.355
184.221
183.997
183.647
183.108
182.266
180.903
178.589
174.492
188.983
192.199
193.421
194.003
194.327
194.525
194.651
194.73
194.777
194.799
194.799
194.777
194.729
194.65
194.525
194.327
194.002
193.421
192.198
188.982
103.773
104.016
104.222
104.391
104.526
104.63
104.707
104.761
104.796
104.813
104.813
104.796
104.761
104.707
104.63
104.526
104.391
104.222
104.016
103.773
111.354
112.086
112.704
113.208
113.608
113.916
114.144
114.304
114.405
114.454
114.454
114.405
114.304
114.144
113.916
113.608
113.208
112.703
112.086
111.353
119.044
120.272
121.298
122.129
122.783
123.282
123.649
123.906
124.067
124.145
124.145
124.066
123.905
123.648
123.281
122.782
122.128
121.297
120.271
119.043
126.927
128.658
130.087
131.228
132.113
132.78
133.266
133.602
133.812
133.913
133.913
133.812
133.601
133.264
132.778
132.111
131.226
130.085
128.656
126.926
135.099
137.346
139.164
140.583
141.661
142.459
143.031
143.423
143.667
143.783
143.783
143.666
143.422
143.03
142.457
141.659
140.581
139.161
137.344
135.098
143.686
146.464
148.637
150.279
151.489
152.363
152.978
153.393
153.648
153.77
153.77
153.648
153.392
152.976
152.361
151.487
150.277
148.635
146.462
143.684
152.868
156.185
158.643
160.407
161.654
162.525
163.124
163.522
163.764
163.878
163.878
163.763
163.521
163.123
162.524
161.652
160.405
158.641
156.183
152.866
162.942
166.765
169.342
171.053
172.194
172.96
173.472
173.806
174.007
174.101
174.101
174.006
173.805
173.471
172.959
172.193
171.051
169.34
166.763
162.941
174.494
178.591
180.905
182.268
183.11
183.648
183.999
184.223
184.357
184.419
184.419
184.356
184.223
183.998
183.648
183.109
182.267
180.905
178.59
174.493
188.983
192.199
193.422
194.004
194.328
194.526
194.651
194.73
194.777
194.799
194.799
194.777
194.73
194.651
194.525
194.328
194.003
193.422
192.199
188.983
103.493
103.182
102.844
102.487
102.117
101.738
101.354
100.968
100.581
100.194
110.51
109.571
108.552
107.475
106.359
105.218
104.064
102.904
101.743
100.581
117.624
116.038
114.318
112.503
110.625
108.71
106.779
104.841
102.904
100.968
124.906
122.639
120.181
117.593
114.926
112.22
109.5
106.779
104.064
101.354
132.436
129.429
126.173
122.761
119.268
115.745
112.221
108.711
105.218
101.738
140.312
136.47
132.321
128.011
123.64
119.269
114.928
110.626
106.36
102.117
148.658
143.815
138.632
133.323
128.013
122.764
117.595
112.505
107.477
102.488
157.64
151.501
145.068
138.634
132.325
126.178
120.185
114.322
108.554
102.845
167.46
159.482
151.504
143.82
136.476
129.436
122.645
116.043
109.574
103.183
178.223
167.462
157.646
148.667
140.322
132.446
124.916
117.632
110.515
103.495
103.492
103.181
102.844
102.487
102.116
101.737
101.353
100.967
100.58
100.193
110.509
109.569
108.551
107.474
106.357
105.216
104.062
102.903
101.741
100.58
117.623
116.037
114.317
112.501
110.623
108.709
106.777
104.84
102.903
100.967
124.905
122.637
120.179
117.591
114.925
112.219
109.498
106.777
104.063
101.353
132.435
129.428
126.172
122.76
119.267
115.743
112.219
108.709
105.217
101.737
140.31
136.468
132.32
128.01
123.639
119.267
114.926
110.624
106.358
102.116
148.657
143.813
138.63
133.321
128.011
122.762
117.594
112.503
107.475
102.487
157.638
151.499
145.066
138.632
132.323
126.176
120.183
114.32
108.553
102.844
167.458
159.48
151.502
143.818
136.474
129.434
122.643
116.042
109.573
103.182
178.221
167.46
157.644
148.665
140.32
132.444
124.914
117.63
110.514
103.494
103.492
103.181
102.844
102.487
102.116
101.737
101.353
100.967
100.58
100.193
110.509
109.569
108.551
107.474
106.357
105.216
104.062
102.903
101.741
100.58
117.623
116.037
114.317
112.501
110.623
108.709
106.777
104.84
102.903
100.967
124.905
122.637
120.179
117.591
114.925
112.219
109.498
106.777
104.063
101.353
132.435
129.428
126.172
122.76
119.267
115.743
112.219
108.709
105.217
101.737
140.31
136.468
132.32
128.01
123.639
119.267
114.926
110.624
106.358
102.116
148.657
143.813
138.63
133.321
128.011
122.762
117.594
112.503
107.475
102.487
157.638
151.499
145.066
138.632
132.323
126.176
120.183
114.32
108.553
102.844
167.458
159.48
151.502
143.818
136.474
129.434
122.643
116.042
109.573
103.182
178.221
167.46
157.644
148.665
140.32
132.444
124.914
117.63
110.514
103.494
103.493
103.182
102.844
102.487
102.117
101.738
101.354
100.968
100.581
100.194
110.51
109.571
108.552
107.475
106.359
105.218
104.064
102.904
101.743
100.581
117.624
116.038
114.318
112.503
110.625
108.71
106.779
104.841
102.904
100.968
124.906
122.639
120.181
117.593
114.926
112.22
109.5
106.779
104.064
101.354
132.436
129.429
126.173
122.761
119.268
115.745
112.221
108.711
105.218
101.738
140.312
136.47
132.321
128.011
123.64
119.269
114.928
110.626
106.36
102.117
148.658
143.815
138.632
133.323
128.013
122.764
117.595
112.505
107.477
102.488
157.64
151.501
145.068
138.634
132.325
126.178
120.185
114.322
108.554
102.845
167.46
159.482
151.504
143.82
136.476
129.436
122.645
116.043
109.574
103.183
178.223
167.462
157.646
148.667
140.322
132.446
124.916
117.632
110.515
103.495
188.986
174.5
162.951
152.879
143.699
135.112
126.939
119.054
111.36
103.775
192.202
178.599
166.777
156.201
146.481
137.364
128.674
120.284
112.095
104.019
193.426
180.917
169.359
158.665
148.661
139.187
130.109
121.315
112.715
104.226
194.009
182.284
171.077
160.437
150.312
140.616
131.258
122.153
113.224
104.397
194.336
183.131
172.227
161.695
151.535
141.706
132.154
122.816
113.629
104.533
194.536
183.678
173.005
162.582
152.425
142.521
132.836
123.326
113.945
104.64
194.665
184.039
173.534
163.201
153.063
143.116
133.342
123.71
114.183
104.721
194.75
184.278
173.891
163.628
153.509
143.539
133.706
123.988
114.357
104.78
194.804
184.432
174.123
163.909
153.808
143.826
133.955
124.18
114.478
104.821
194.835
184.523
174.261
164.078
153.989
144.001
134.108
124.299
114.553
104.847
194.849
184.562
174.322
164.153
154.071
144.081
134.18
124.355
114.588
104.859
194.846
184.554
174.311
164.142
154.062
144.074
134.175
124.352
114.587
104.859
194.826
184.498
174.228
164.044
153.96
143.98
134.096
124.293
114.551
104.846
194.785
184.383
174.059
163.846
153.757
143.792
133.937
124.173
114.477
104.821
194.716
184.191
173.782
163.526
153.434
143.495
133.689
123.987
114.362
104.783
194.602
183.885
173.352
163.046
152.96
143.069
133.338
123.728
114.203
104.729
194.411
183.394
172.7
162.347
152.296
142.489
132.868
123.385
113.995
104.66
194.055
182.584
171.709
161.353
151.394
141.726
132.266
122.953
113.736
104.573
193.281
181.18
170.206
159.97
150.208
140.761
131.524
122.428
113.423
104.469
191.17
178.655
167.973
158.12
148.719
139.593
130.647
121.818
113.064
104.35
188.984
174.497
162.948
152.877
143.696
135.11
126.937
119.052
111.358
103.774
192.201
178.597
166.775
156.198
146.479
137.361
128.672
120.282
112.093
104.018
193.424
180.914
169.356
158.662
148.659
139.185
130.106
121.313
112.713
104.225
194.008
182.281
171.074
160.435
150.31
140.614
131.256
122.151
113.222
104.396
194.334
183.128
172.224
161.692
151.532
141.704
132.152
122.814
113.628
104.532
194.534
183.675
173.002
162.579
152.422
142.518
132.833
123.324
113.943
104.639
194.663
184.036
173.531
163.198
153.06
143.113
133.339
123.708
114.181
104.72
194.748
184.275
173.887
163.624
153.506
143.536
133.703
123.986
114.355
104.779
194.802
184.429
174.12
163.906
153.805
143.823
133.952
124.177
114.476
104.82
194.833
184.519
174.258
164.075
153.986
143.998
134.106
124.296
114.551
104.845
194.847
184.559
174.318
164.15
154.068
144.078
134.177
124.352
114.586
104.858
194.844
184.551
174.308
164.139
154.058
144.071
134.172
124.35
114.585
104.857
194.824
184.494
174.224
164.04
153.957
143.977
134.093
124.29
114.548
104.845
194.783
184.38
174.056
163.842
153.754
143.789
133.934
124.17
114.474
104.82
194.714
184.187
173.778
163.522
153.431
143.492
133.686
123.985
114.36
104.781
194.6
183.881
173.348
163.042
152.957
143.066
133.335
123.725
114.201
104.728
194.408
183.39
172.696
162.344
152.293
142.485
132.865
123.382
113.993
104.658
194.052
182.58
171.705
161.349
151.39
141.722
132.263
122.95
113.733
104.571
193.278
181.176
170.202
159.966
150.205
140.757
131.52
122.425
113.421
104.468
191.167
178.651
167.969
158.116
148.715
139.59
130.644
121.815
113.061
104.349
188.984
174.497
162.948
152.877
143.696
135.11
126.937
119.052
111.358
103.774
192.201
178.597
166.775
156.198
146.479
137.361
128.672
120.282
112.093
104.018
193.424
180.914
169.356
158.662
148.659
139.185
130.106
121.313
112.713
104.225
194.008
182.281
171.074
160.435
150.31
140.614
131.256
122.151
113.222
104.396
194.334
183.128
172.224
161.692
151.532
141.704
132.152
122.814
113.628
104.532
194.534
183.675
173.002
162.579
152.422
142.518
132.833
123.324
113.943
104.639
194.663
184.036
173.531
163.198
153.06
143.113
133.339
123.708
114.181
104.72
194.748
184.275
173.887
163.624
153.506
143.536
133.703
123.986
114.355
104.779
194.802
184.429
174.12
163.906
153.805
143.823
133.952
124.177
114.476
104.82
194.833
184.519
174.258
164.075
153.986
143.998
134.106
124.296
114.551
104.845
194.847
184.559
174.318
164.15
154.068
144.078
134.177
124.352
114.586
104.858
194.844
184.551
174.308
164.139
154.058
144.071
134.172
124.35
114.585
104.857
194.824
184.494
174.224
164.04
153.957
143.977
134.093
124.29
114.548
104.845
194.783
184.38
174.056
163.842
153.754
143.789
133.934
124.17
114.474
104.82
194.714
184.187
173.778
163.522
153.431
143.492
133.686
123.985
114.36
104.781
194.6
183.881
173.348
163.042
152.957
143.066
133.335
123.725
114.201
104.728
194.408
183.39
172.696
162.344
152.293
142.485
132.865
123.382
113.993
104.658
194.052
182.58
171.705
161.349
151.39
141.722
132.263
122.95
113.733
104.571
193.278
181.176
170.202
159.966
150.205
140.757
131.52
122.425
113.421
104.468
191.167
178.651
167.969
158.116
148.715
139.59
130.644
121.815
113.061
104.349
188.986
174.5
162.951
152.879
143.699
135.112
126.939
119.054
111.36
103.775
192.202
178.599
166.777
156.201
146.481
137.364
128.674
120.284
112.095
104.019
193.426
180.917
169.359
158.665
148.661
139.187
130.109
121.315
112.715
104.226
194.009
182.284
171.077
160.437
150.312
140.616
131.258
122.153
113.224
104.397
194.336
183.131
172.227
161.695
151.535
141.706
132.154
122.816
113.629
104.533
194.536
183.678
173.005
162.582
152.425
142.521
132.836
123.326
113.945
104.64
194.665
184.039
173.534
163.201
153.063
143.116
133.342
123.71
114.183
104.721
194.75
184.278
173.891
163.628
153.509
143.539
133.706
123.988
114.357
104.78
194.804
184.432
174.123
163.909
153.808
143.826
133.955
124.18
114.478
104.821
194.835
184.523
174.261
164.078
153.989
144.001
134.108
124.299
114.553
104.847
194.849
184.562
174.322
164.153
154.071
144.081
134.18
124.355
114.588
104.859
194.846
184.554
174.311
164.142
154.062
144.074
134.175
124.352
114.587
104.859
194.826
184.498
174.228
164.044
153.96
143.98
134.096
124.293
114.551
104.846
194.785
184.383
174.059
163.846
153.757
143.792
133.937
124.173
114.477
104.821
194.716
184.191
173.782
163.526
153.434
143.495
133.689
123.987
114.362
104.783
194.602
183.885
173.352
163.046
152.96
143.069
133.338
123.728
114.203
104.729
194.411
183.394
172.7
162.347
152.296
142.489
132.868
123.385
113.995
104.66
194.055
182.584
171.709
161.353
151.394
141.726
132.266
122.953
113.736
104.573
193.281
181.18
170.206
159.97
150.208
140.761
131.524
122.428
113.423
104.469
191.169
178.655
167.973
158.12
148.719
139.593
130.647
121.818
113.064
104.35
183.911
174.305
164.922
155.831
146.965
138.258
129.661
121.14
112.666
104.219
177.493
169.75
161.594
153.333
145.067
136.825
128.612
120.421
112.247
104.081
172.287
165.625
158.393
150.858
143.163
135.381
127.552
119.696
111.823
103.942
168.103
162.096
155.521
148.567
141.366
134.004
126.535
118.997
111.415
103.808
164.748
159.166
153.056
146.55
139.755
132.753
125.604
118.354
111.038
103.684
162.092
156.798
151.02
144.852
138.378
131.672
124.793
117.792
110.707
103.575
160.046
154.953
149.411
143.491
137.261
130.787
124.126
117.326
110.433
103.484
158.553
153.597
148.218
142.472
136.419
130.116
123.616
116.97
110.221
103.415
157.577
152.707
147.43
141.796
135.858
129.666
123.275
116.73
110.079
103.368
157.094
152.266
147.039
141.46
135.577
129.441
123.103
116.611
110.008
103.349
183.907
174.302
164.918
155.827
146.961
138.254
129.658
121.137
112.664
104.218
177.49
169.746
161.591
153.329
145.063
136.822
128.608
120.418
112.244
104.08
172.284
165.622
158.39
150.855
143.159
135.378
127.549
119.693
111.821
103.941
168.1
162.093
155.518
148.564
141.363
134
126.532
118.994
111.412
103.806
164.746
159.163
153.053
146.547
139.752
132.75
125.601
118.351
111.035
103.682
162.089
156.795
151.017
144.849
138.375
131.668
124.79
117.788
110.704
103.572
160.043
154.95
149.408
143.488
137.258
130.784
124.122
117.322
110.428
103.481
158.55
153.594
148.215
142.469
136.416
130.112
123.612
116.965
110.216
103.411
157.574
152.704
147.427
141.793
135.854
129.663
123.27
116.725
110.073
103.363
157.092
152.263
147.036
141.457
135.573
129.437
123.099
116.605
110.001
103.343
183.907
174.301
164.918
155.827
146.961
138.254
129.658
121.137
112.664
104.218
177.49
169.746
161.591
153.329
145.063
136.822
128.608
120.418
112.244
104.08
172.284
165.622
158.39
150.855
143.159
135.378
127.549
119.693
111.821
103.941
168.1
162.093
155.518
148.564
141.363
134
126.532
118.994
111.412
103.806
164.745
159.163
153.053
146.547
139.752
132.75
125.601
118.351
111.035
103.682
162.089
156.795
151.017
144.849
138.375
131.668
124.79
117.788
110.704
103.572
160.043
154.95
149.408
143.487
137.258
130.784
124.121
117.322
110.428
103.481
158.55
153.594
148.215
142.469
136.416
130.112
123.612
116.965
110.216
103.411
157.574
152.704
147.427
141.793
135.854
129.663
123.27
116.725
110.073
103.363
157.092
152.263
147.036
141.457
135.573
129.437
123.099
116.605
110.001
103.343
183.911
174.305
164.922
155.831
146.965
138.258
129.661
121.14
112.666
104.219
177.493
169.75
161.594
153.333
145.067
136.825
128.612
120.421
112.247
104.081
172.287
165.625
158.393
150.858
143.163
135.381
127.552
119.696
111.824
103.942
168.103
162.096
155.521
148.567
141.366
134.004
126.535
118.997
111.415
103.808
164.748
159.166
153.056
146.55
139.755
132.753
125.604
118.354
111.038
103.684
162.092
156.798
151.02
144.852
138.378
131.672
124.793
117.792
110.707
103.575
160.046
154.952
149.411
143.49
137.261
130.787
124.125
117.326
110.432
103.484
158.553
153.596
148.218
142.472
136.419
130.116
123.616
116.97
110.221
103.415
157.577
152.706
147.43
141.796
135.858
129.667
123.275
116.73
110.079
103.368
157.094
152.265
147.039
141.46
135.577
129.441
123.103
116.611
110.008
103.349
192.683
195.477
196.655
197.292
197.694
197.969
198.161
198.293
198.376
198.416
198.416
198.376
198.294
198.163
197.971
197.697
197.295
196.658
195.479
192.685
184.039
188.051
190.514
192.117
193.217
193.997
194.551
194.934
195.175
195.293
195.293
195.177
194.937
194.555
194.002
193.223
192.123
190.52
188.056
184.042
177.945
182.188
185.248
187.46
189.077
190.265
191.128
191.732
192.116
192.303
192.304
192.119
191.737
191.135
190.273
189.087
187.471
185.259
182.197
177.953
173.295
177.531
180.856
183.423
185.391
186.884
187.992
188.777
189.28
189.527
189.528
189.285
188.784
188.002
186.896
185.406
183.439
180.872
177.547
173.31
169.645
173.818
177.252
180.021
182.216
183.923
185.214
186.14
186.738
187.033
187.035
186.744
186.15
185.228
183.941
182.236
180.043
177.276
173.842
169.67
166.78
170.882
174.355
177.233
179.571
181.424
182.845
183.875
184.546
184.878
184.881
184.554
183.889
182.863
181.447
179.598
177.264
174.388
170.917
166.816
164.581
168.62
172.1
175.036
177.46
179.409
180.92
182.024
182.747
183.106
183.11
182.757
182.041
180.943
179.438
177.495
175.076
172.143
168.666
164.63
162.978
166.966
170.441
173.407
175.882
177.891
179.46
180.614
181.373
181.75
181.755
181.385
180.634
179.488
177.926
175.924
173.455
170.495
167.024
163.039
161.929
165.883
169.35
172.329
174.832
176.876
178.479
179.664
180.445
180.834
180.839
180.458
179.687
178.511
176.916
174.881
172.385
169.412
165.95
162.001
161.409
165.346
168.808
171.793
174.308
176.367
177.987
179.186
179.977
180.373
180.378
179.992
179.211
178.022
176.411
174.36
171.853
168.875
165.42
161.488
192.686
195.478
196.657
197.293
197.696
197.97
198.162
198.293
198.376
198.416
198.416
198.376
198.294
198.162
197.971
197.696
197.294
196.657
195.477
192.683
184.042
188.053
190.516
192.119
193.219
193.998
194.552
194.934
195.176
195.293
195.293
195.177
194.936
194.554
194
193.222
192.121
190.518
188.053
184.04
177.948
182.191
185.251
187.463
189.079
190.266
191.129
191.733
192.116
192.303
192.304
192.118
191.736
191.134
190.272
189.085
187.469
185.256
182.195
177.95
173.298
177.534
180.858
183.426
185.393
186.885
187.993
188.777
189.28
189.527
189.528
189.284
188.783
188
186.895
185.404
183.437
180.869
177.545
173.307
169.648
173.821
177.255
180.023
182.218
183.925
185.215
186.14
186.739
187.033
187.035
186.744
186.149
185.226
183.939
182.234
180.041
177.274
173.84
169.667
166.783
170.885
174.357
177.236
179.573
181.426
182.846
183.876
184.547
184.878
184.88
184.554
183.888
182.862
181.446
179.596
177.262
174.386
170.914
166.814
164.585
168.622
172.102
175.039
177.462
179.411
180.921
182.025
182.747
183.106
183.109
182.757
182.04
180.942
179.437
177.493
175.074
172.141
168.664
164.628
162.981
166.969
170.444
173.409
175.884
177.892
179.461
180.614
181.373
181.75
181.754
181.384
180.633
179.486
177.925
175.922
173.453
170.492
167.022
163.037
161.932
165.885
169.352
172.331
174.834
176.877
178.481
179.664
180.445
180.834
180.839
180.458
179.686
178.51
176.915
174.879
172.383
169.41
165.948
161.998
161.412
165.348
168.81
171.795
174.31
176.369
177.988
179.186
179.978
180.373
180.377
179.992
179.21
178.021
176.409
174.359
171.851
168.873
165.417
161.485
192.686
195.478
196.657
197.293
197.696
197.97
198.162
198.293
198.376
198.416
198.416
198.376
198.294
198.162
197.971
197.696
197.294
196.656
195.477
192.683
184.042
188.053
190.516
192.119
193.219
193.998
194.552
194.934
195.176
195.293
195.293
195.177
194.936
194.554
194
193.222
192.121
190.518
188.053
184.04
177.948
182.191
185.251
187.462
189.079
190.266
191.129
191.733
192.116
192.303
192.304
192.118
191.736
191.134
190.272
189.085
187.469
185.256
182.195
177.95
173.298
177.534
180.858
183.426
185.393
186.886
187.993
188.777
189.28
189.527
189.528
189.284
188.783
188
186.895
185.404
183.437
180.869
177.545
173.307
169.648
173.821
177.255
180.023
182.218
183.925
185.215
186.14
186.739
187.033
187.035
186.744
186.149
185.226
183.939
182.234
180.041
177.274
173.84
169.667
166.783
170.885
174.357
177.236
179.573
181.426
182.846
183.876
184.547
184.878
184.88
184.554
183.888
182.862
181.446
179.596
177.262
174.386
170.914
166.814
164.584
168.622
172.102
175.038
177.462
179.411
180.921
182.025
182.747
183.106
183.109
182.757
182.04
180.942
179.437
177.493
175.074
172.141
168.664
164.627
162.981
166.969
170.443
173.409
175.884
177.892
179.461
180.614
181.373
181.75
181.754
181.384
180.633
179.486
177.924
175.922
173.453
170.492
167.022
163.037
161.931
165.885
169.352
172.332
174.834
176.877
178.481
179.664
180.445
180.834
180.839
180.458
179.686
178.51
176.915
174.879
172.383
169.41
165.948
161.998
161.412
165.348
168.81
171.795
174.31
176.369
177.989
179.187
179.978
180.373
180.378
179.992
179.21
178.021
176.409
174.359
171.852
168.874
165.417
161.485
192.683
195.477
196.655
197.292
197.694
197.969
198.161
198.293
198.376
198.416
198.416
198.376
198.294
198.163
197.971
197.697
197.295
196.658
195.479
192.685
184.039
188.05
190.514
192.117
193.217
193.996
194.551
194.934
195.175
195.293
195.293
195.177
194.937
194.555
194.002
193.223
192.123
190.52
188.056
184.042
177.945
182.188
185.248
187.46
189.077
190.265
191.128
191.732
192.116
192.303
192.304
192.119
191.737
191.135
190.273
189.087
187.471
185.259
182.197
177.953
173.295
177.531
180.856
183.423
185.391
186.884
187.992
188.777
189.28
189.527
189.528
189.285
188.784
188.002
186.896
185.406
183.439
180.872
177.547
173.31
169.645
173.818
177.252
180.021
182.216
183.923
185.214
186.14
186.738
187.033
187.035
186.744
186.15
185.228
183.941
182.236
180.043
177.276
173.842
169.67
166.78
170.882
174.355
177.233
179.571
181.424
182.845
183.875
184.546
184.878
184.881
184.554
183.889
182.863
181.447
179.598
177.264
174.388
170.917
166.816
164.581
168.619
172.099
175.036
177.46
179.409
180.919
182.024
182.747
183.106
183.109
182.757
182.04
180.943
179.438
177.495
175.075
172.143
168.666
164.63
162.978
166.966
170.441
173.407
175.882
177.891
179.46
180.614
181.372
181.75
181.754
181.385
180.634
179.487
177.926
175.924
173.455
170.495
167.024
163.039
161.929
165.882
169.35
172.329
174.832
176.876
178.48
179.664
180.445
180.834
180.839
180.459
179.687
178.511
176.916
174.881
172.385
169.412
165.95
162.001
161.409
165.346
168.808
171.793
174.308
176.367
177.987
179.186
179.977
180.373
180.378
179.992
179.211
178.022
176.411
174.36
171.853
168.876
165.42
161.488
104.22
112.668
121.144
129.668
138.266
146.973
155.838
164.928
174.309
183.91
104.081
112.248
120.425
128.617
136.832
145.073
153.338
161.598
169.751
177.491
103.942
111.824
119.697
127.555
135.385
143.165
150.859
158.393
165.622
172.281
103.807
111.413
118.996
126.534
134.002
141.362
148.561
155.512
162.085
168.089
103.682
111.034
118.349
125.597
132.743
139.742
146.534
153.037
159.144
164.725
103.571
110.7
117.781
124.778
131.652
138.354
144.824
150.989
156.764
162.056
103.479
110.421
117.308
124.101
130.756
137.224
143.448
149.365
154.904
159.996
103.408
110.206
116.944
123.581
130.072
136.368
142.415
148.157
153.534
158.49
103.359
110.06
116.696
123.228
129.61
135.793
141.726
147.356
152.631