/*--------------------------------*- C++ -*----------------------------------*\
| =========                 |                                                 |
| \\      /  F ield         | OpenFOAM: The Open Source CFD Toolbox           |
|  \\    /   O peration     | Version:  2.4.0                                 |
|   \\  /    A nd           | Web:      www.OpenFOAM.org                      |
|    \\/     M anipulation  |                                                 |
\*---------------------------------------------------------------------------*/
FoamFile
{
    version     2.0;
    format      ascii;
    class       volScalarField;
    location    "0.0052";
    object      T;
}
// * * * * * * * * * * * * * * * * * * * * * * * * * * * * * * * * * * * * * //

dimensions      [0 0 0 1 0 0 0];

internalField   nonuniform List<scalar> 
4800
(
100.194
100.581
100.967
101.354
101.737
102.117
102.487
102.844
103.182
103.493
100.581
101.742
102.903
104.063
105.217
106.358
107.475
108.552
109.571
110.511
100.968
102.903
104.841
106.778
108.71
110.624
112.502
114.318
116.038
117.625
101.354
104.063
106.778
109.499
112.219
114.926
117.593
120.181
122.639
124.907
101.738
105.217
108.71
112.22
115.744
119.267
122.761
126.173
129.43
132.438
102.117
106.358
110.625
114.926
119.268
123.639
128.011
132.321
136.47
140.313
102.487
107.476
112.503
117.594
122.762
128.011
133.321
138.631
143.815
148.659
102.845
108.553
114.32
120.183
126.175
132.323
138.632
145.066
151.501
157.64
103.182
109.572
116.041
122.642
129.433
136.473
143.818
151.502
159.48
167.459
103.494
110.513
117.629
124.912
132.443
140.318
148.663
157.643
167.461
178.221
100.194
100.581
100.967
101.354
101.737
102.117
102.487
102.844
103.182
103.493
100.581
101.742
102.903
104.063
105.217
106.358
107.475
108.552
109.571
110.51
100.967
102.903
104.841
106.778
108.71
110.624
112.502
114.318
116.038
117.625
101.354
104.063
106.778
109.499
112.219
114.926
117.593
120.181
122.639
124.907
101.738
105.217
108.71
112.22
115.744
119.267
122.761
126.173
129.43
132.437
102.117
106.358
110.625
114.926
119.268
123.639
128.011
132.321
136.47
140.313
102.487
107.476
112.504
117.594
122.762
128.012
133.321
138.631
143.815
148.659
102.845
108.553
114.32
120.183
126.175
132.323
138.632
145.067
151.501
157.64
103.182
109.572
116.041
122.643
129.434
136.473
143.818
151.502
159.481
167.459
103.494
110.513
117.63
124.913
132.443
140.319
148.664
157.644
167.461
178.222
100.194
100.581
100.967
101.354
101.737
102.117
102.487
102.844
103.182
103.493
100.581
101.742
102.903
104.063
105.217
106.358
107.475
108.552
109.571
110.51
100.967
102.903
104.841
106.778
108.71
110.624
112.502
114.318
116.038
117.625
101.354
104.063
106.778
109.499
112.219
114.926
117.593
120.181
122.639
124.907
101.738
105.217
108.71
112.22
115.744
119.267
122.761
126.173
129.43
132.437
102.117
106.358
110.625
114.926
119.268
123.639
128.011
132.321
136.47
140.313
102.487
107.476
112.504
117.594
122.762
128.012
133.321
138.631
143.815
148.659
102.845
108.553
114.32
120.183
126.175
132.323
138.632
145.067
151.501
157.64
103.182
109.572
116.041
122.643
129.434
136.473
143.818
151.502
159.481
167.459
103.494
110.513
117.63
124.913
132.443
140.319
148.664
157.644
167.461
178.222
100.194
100.581
100.967
101.354
101.737
102.117
102.487
102.844
103.182
103.493
100.581
101.742
102.903
104.063
105.217
106.358
107.475
108.552
109.571
110.511
100.968
102.903
104.841
106.778
108.71
110.624
112.502
114.318
116.038
117.625
101.354
104.063
106.778
109.499
112.219
114.926
117.593
120.181
122.639
124.907
101.738
105.217
108.71
112.22
115.744
119.267
122.761
126.173
129.43
132.438
102.117
106.358
110.625
114.926
119.268
123.639
128.011
132.321
136.47
140.313
102.487
107.476
112.503
117.594
122.762
128.011
133.321
138.631
143.815
148.659
102.845
108.553
114.32
120.183
126.175
132.323
138.632
145.066
151.501
157.64
103.182
109.572
116.041
122.642
129.433
136.473
143.818
151.502
159.48
167.459
103.494
110.513
117.629
124.912
132.443
140.318
148.663
157.643
167.461
178.221
103.773
104.016
104.222
104.391
104.526
104.63
104.707
104.761
104.796
104.813
104.813
104.796
104.761
104.707
104.63
104.526
104.391
104.222
104.016
103.773
111.353
112.086
112.704
113.208
113.608
113.916
114.144
114.304
114.405
114.454
114.454
114.405
114.304
114.144
113.916
113.608
113.207
112.703
112.086
111.353
119.044
120.272
121.298
122.129
122.783
123.282
123.649
123.905
124.067
124.145
124.145
124.066
123.905
123.648
123.281
122.782
122.128
121.297
120.27
119.043
126.927
128.658
130.087
131.228
132.113
132.78
133.266
133.601
133.812
133.913
133.913
133.811
133.601
133.264
132.778
132.111
131.226
130.085
128.656
126.926
135.099
137.346
139.163
140.583
141.661
142.459
143.031
143.423
143.667
143.783
143.783
143.666
143.422
143.03
142.457
141.659
140.581
139.161
137.344
135.097
143.686
146.464
148.637
150.279
151.489
152.363
152.978
153.393
153.648
153.77
153.769
153.647
153.392
152.976
152.361
151.487
150.277
148.635
146.461
143.684
152.868
156.185
158.643
160.407
161.654
162.525
163.124
163.522
163.764
163.878
163.878
163.763
163.521
163.123
162.524
161.652
160.405
158.641
156.183
152.866
162.942
166.765
169.341
171.053
172.194
172.96
173.472
173.806
174.007
174.101
174.101
174.006
173.805
173.471
172.959
172.193
171.051
169.34
166.763
162.941
174.494
178.591
180.905
182.268
183.11
183.648
183.999
184.223
184.357
184.419
184.419
184.356
184.222
183.998
183.648
183.109
182.267
180.905
178.59
174.493
188.983
192.199
193.422
194.003
194.328
194.525
194.651
194.73
194.777
194.799
194.799
194.777
194.73
194.651
194.525
194.328
194.003
193.422
192.199
188.982
103.772
104.016
104.222
104.391
104.526
104.63
104.707
104.761
104.796
104.812
104.812
104.795
104.761
104.707
104.629
104.525
104.391
104.222
104.015
103.772
111.353
112.086
112.703
113.208
113.608
113.916
114.144
114.304
114.405
114.454
114.453
114.404
114.303
114.143
113.915
113.607
113.207
112.702
112.085
111.352
119.044
120.271
121.298
122.129
122.783
123.282
123.649
123.905
124.066
124.144
124.144
124.066
123.904
123.647
123.28
122.781
122.127
121.295
120.269
119.042
126.927
128.658
130.087
131.228
132.113
132.779
133.265
133.601
133.811
133.912
133.912
133.811
133.6
133.263
132.777
132.11
131.225
130.084
128.655
126.924
135.099
137.346
139.163
140.583
141.661
142.458
143.031
143.422
143.666
143.782
143.782
143.665
143.421
143.029
142.456
141.658
140.579
139.16
137.343
135.096
143.686
146.464
148.637
150.279
151.489
152.362
152.977
153.392
153.647
153.769
153.769
153.646
153.39
152.975
152.36
151.486
150.276
148.633
146.46
143.683
152.868
156.185
158.643
160.407
161.654
162.525
163.124
163.521
163.763
163.877
163.877
163.762
163.519
163.122
162.522
161.651
160.404
158.639
156.181
152.865
162.942
166.765
169.341
171.052
172.194
172.959
173.472
173.805
174.006
174.1
174.1
174.005
173.804
173.47
172.957
172.191
171.05
169.338
166.762
162.939
174.494
178.591
180.905
182.267
183.109
183.648
183.998
184.222
184.356
184.418
184.418
184.355
184.221
183.997
183.647
183.107
182.266
180.903
178.589
174.492
188.983
192.199
193.421
194.003
194.327
194.525
194.651
194.73
194.777
194.799
194.799
194.777
194.729
194.65
194.525
194.327
194.002
193.421
192.198
188.981
103.772
104.016
104.222
104.391
104.526
104.63
104.707
104.761
104.796
104.812
104.812
104.795
104.761
104.707
104.629
104.525
104.391
104.222
104.015
103.772
111.353
112.086
112.703
113.208
113.608
113.916
114.144
114.304
114.405
114.454
114.453
114.404
114.303
114.143
113.915
113.607
113.207
112.702
112.085
111.352
119.044
120.271
121.298
122.129
122.783
123.282
123.649
123.905
124.066
124.144
124.144
124.066
123.904
123.647
123.28
122.781
122.127
121.295
120.269
119.042
126.927
128.658
130.087
131.228
132.113
132.779
133.265
133.601
133.811
133.912
133.912
133.811
133.6
133.263
132.777
132.11
131.225
130.084
128.655
126.924
135.099
137.346
139.163
140.583
141.661
142.458
143.031
143.422
143.666
143.782
143.782
143.665
143.421
143.029
142.456
141.658
140.579
139.16
137.343
135.096
143.686
146.464
148.637
150.279
151.489
152.362
152.977
153.392
153.647
153.769
153.769
153.646
153.39
152.975
152.36
151.486
150.276
148.633
146.46
143.683
152.868
156.185
158.643
160.407
161.654
162.525
163.124
163.521
163.763
163.877
163.877
163.762
163.519
163.122
162.522
161.651
160.404
158.639
156.181
152.865
162.942
166.765
169.341
171.052
172.194
172.959
173.472
173.805
174.006
174.1
174.1
174.005
173.804
173.47
172.957
172.191
171.05
169.338
166.762
162.939
174.494
178.591
180.905
182.267
183.109
183.648
183.998
184.222
184.356
184.418
184.418
184.355
184.221
183.997
183.647
183.107
182.266
180.903
178.589
174.492
188.983
192.199
193.421
194.003
194.327
194.525
194.651
194.73
194.777
194.799
194.799
194.777
194.729
194.65
194.525
194.327
194.002
193.421
192.198
188.981
103.773
104.016
104.222
104.391
104.526
104.63
104.707
104.761
104.796
104.813
104.813
104.796
104.761
104.707
104.63
104.526
104.391
104.222
104.016
103.773
111.353
112.086
112.704
113.208
113.608
113.916
114.144
114.304
114.405
114.454
114.454
114.405
114.304
114.144
113.916
113.608
113.207
112.703
112.086
111.353
119.044
120.272
121.298
122.129
122.783
123.282
123.649
123.905
124.067
124.145
124.145
124.066
123.905
123.648
123.281
122.782
122.128
121.297
120.27
119.043
126.927
128.658
130.087
131.228
132.113
132.78
133.266
133.601
133.812
133.913
133.913
133.811
133.601
133.264
132.778
132.111
131.226
130.085
128.656
126.926
135.099
137.346
139.163
140.583
141.661
142.459
143.031
143.423
143.667
143.783
143.783
143.666
143.422
143.03
142.457
141.659
140.581
139.161
137.344
135.097
143.686
146.464
148.637
150.279
151.489
152.363
152.978
153.393
153.648
153.77
153.769
153.647
153.392
152.976
152.361
151.487
150.277
148.635
146.461
143.684
152.868
156.185
158.643
160.407
161.654
162.525
163.124
163.522
163.764
163.878
163.878
163.763
163.521
163.123
162.524
161.652
160.405
158.641
156.183
152.866
162.942
166.765
169.341
171.053
172.194
172.96
173.472
173.806
174.007
174.101
174.101
174.006
173.805
173.471
172.959
172.193
171.051
169.34
166.763
162.941
174.494
178.591
180.905
182.268
183.11
183.648
183.999
184.223
184.357
184.419
184.419
184.356
184.222
183.998
183.648
183.109
182.267
180.905
178.59
174.493
188.983
192.199
193.422
194.003
194.328
194.525
194.651
194.73
194.777
194.799
194.799
194.777
194.73
194.651
194.525
194.328
194.003
193.422
192.199
188.982
103.493
103.182
102.844
102.487
102.117
101.738
101.354
100.968
100.581
100.194
110.51
109.571
108.552
107.475
106.359
105.218
104.064
102.904
101.743
100.581
117.624
116.038
114.318
112.503
110.624
108.71
106.779
104.841
102.904
100.968
124.906
122.638
120.181
117.593
114.926
112.22
109.5
106.779
104.064
101.354
132.436
129.429
126.173
122.761
119.268
115.744
112.221
108.711
105.218
101.738
140.312
136.469
132.321
128.011
123.64
119.269
114.928
110.626
106.359
102.117
148.658
143.815
138.632
133.322
128.013
122.764
117.595
112.505
107.477
102.488
157.64
151.501
145.068
138.634
132.325
126.177
120.185
114.322
108.554
102.845
167.46
159.482
151.504
143.82
136.476
129.436
122.645
116.043
109.574
103.183
178.223
167.462
157.646
148.667
140.322
132.446
124.915
117.632
110.515
103.495
103.492
103.181
102.844
102.487
102.116
101.737
101.353
100.967
100.58
100.193
110.509
109.569
108.551
107.474
106.357
105.216
104.062
102.903
101.741
100.58
117.623
116.036
114.317
112.501
110.623
108.709
106.777
104.84
102.903
100.967
124.905
122.637
120.179
117.591
114.925
112.219
109.498
106.777
104.062
101.353
132.435
129.428
126.171
122.76
119.266
115.743
112.219
108.709
105.217
101.737
140.31
136.468
132.32
128.01
123.639
119.267
114.926
110.624
106.358
102.116
148.657
143.813
138.63
133.32
128.011
122.762
117.593
112.503
107.475
102.487
157.638
151.499
145.066
138.632
132.323
126.175
120.183
114.32
108.553
102.844
167.458
159.48
151.502
143.818
136.474
129.434
122.643
116.041
109.572
103.182
178.221
167.46
157.644
148.665
140.32
132.444
124.913
117.63
110.513
103.494
103.492
103.181
102.844
102.487
102.116
101.737
101.353
100.967
100.58
100.193
110.509
109.569
108.551
107.474
106.357
105.216
104.062
102.903
101.741
100.58
117.623
116.036
114.317
112.501
110.623
108.709
106.777
104.84
102.903
100.967
124.905
122.637
120.179
117.591
114.925
112.219
109.498
106.777
104.062
101.353
132.435
129.428
126.171
122.76
119.266
115.743
112.219
108.709
105.217
101.737
140.31
136.468
132.32
128.01
123.639
119.267
114.926
110.624
106.358
102.116
148.657
143.813
138.63
133.32
128.011
122.762
117.593
112.503
107.475
102.487
157.638
151.499
145.066
138.632
132.323
126.175
120.183
114.32
108.553
102.844
167.458
159.48
151.502
143.818
136.474
129.434
122.643
116.041
109.572
103.182
178.221
167.46
157.644
148.665
140.32
132.444
124.913
117.63
110.513
103.494
103.493
103.182
102.844
102.487
102.117
101.738
101.354
100.968
100.581
100.194
110.51
109.571
108.552
107.475
106.359
105.218
104.064
102.904
101.743
100.581
117.624
116.038
114.318
112.503
110.624
108.71
106.779
104.841
102.904
100.968
124.906
122.638
120.181
117.593
114.926
112.22
109.5
106.779
104.064
101.354
132.436
129.429
126.173
122.761
119.268
115.744
112.221
108.711
105.218
101.738
140.312
136.469
132.321
128.011
123.64
119.269
114.928
110.626
106.359
102.117
148.658
143.815
138.632
133.322
128.013
122.764
117.595
112.505
107.477
102.488
157.64
151.501
145.068
138.634
132.325
126.177
120.185
114.322
108.554
102.845
167.46
159.482
151.504
143.82
136.476
129.436
122.645
116.043
109.574
103.183
178.223
167.462
157.646
148.667
140.322
132.446
124.915
117.632
110.515
103.495
188.985
174.499
162.95
152.879
143.698
135.112
126.938
119.053
111.359
103.775
192.202
178.599
166.777
156.2
146.481
137.363
128.673
120.284
112.094
104.019
193.426
180.917
169.359
158.664
148.661
139.187
130.108
121.315
112.715
104.226
194.009
182.283
171.076
160.437
150.312
140.615
131.257
122.153
113.223
104.397
194.335
183.131
172.226
161.694
151.534
141.706
132.153
122.815
113.629
104.533
194.536
183.677
173.004
162.581
152.424
142.52
132.835
123.326
113.944
104.64
194.665
184.038
173.533
163.2
153.062
143.115
133.341
123.709
114.183
104.721
194.749
184.277
173.889
163.626
153.508
143.538
133.704
123.987
114.357
104.78
194.803
184.431
174.122
163.907
153.806
143.824
133.953
124.178
114.477
104.821
194.835
184.521
174.259
164.076
153.987
143.998
134.106
124.297
114.552
104.846
194.848
184.56
174.319
164.15
154.068
144.078
134.177
124.352
114.587
104.858
194.845
184.552
174.308
164.138
154.057
144.07
134.171
124.349
114.585
104.858
194.825
184.495
174.224
164.039
153.955
143.975
134.091
124.289
114.548
104.845
194.784
184.38
174.054
163.84
153.75
143.785
133.931
124.168
114.473
104.82
194.714
184.187
173.775
163.518
153.425
143.486
133.681
123.981
114.358
104.781
194.6
183.878
173.343
163.034
152.948
143.058
133.327
123.72
114.198
104.727
194.408
183.386
172.687
162.333
152.281
142.474
132.855
123.375
113.989
104.657
194.051
182.572
171.692
161.334
151.374
141.707
132.25
122.94
113.728
104.57
193.274
181.163
170.183
159.944
150.182
140.736
131.503
122.412
113.414
104.466
191.156
178.629
167.941
158.086
148.685
139.563
130.621
121.799
113.052
104.346
188.984
174.497
162.948
152.877
143.696
135.109
126.936
119.052
111.358
103.774
192.201
178.597
166.775
156.198
146.478
137.361
128.671
120.282
112.093
104.018
193.424
180.914
169.356
158.662
148.658
139.185
130.106
121.313
112.713
104.225
194.007
182.281
171.074
160.434
150.309
140.613
131.255
122.151
113.222
104.396
194.334
183.128
172.224
161.692
151.531
141.703
132.151
122.813
113.627
104.532
194.534
183.674
173.001
162.578
152.421
142.517
132.832
123.324
113.942
104.639
194.663
184.035
173.53
163.197
153.059
143.112
133.338
123.707
114.181
104.719
194.747
184.274
173.886
163.623
153.505
143.535
133.702
123.985
114.355
104.779
194.801
184.428
174.118
163.904
153.803
143.821
133.95
124.176
114.475
104.82
194.833
184.518
174.256
164.072
153.984
143.996
134.103
124.295
114.55
104.845
194.846
184.557
174.316
164.147
154.065
144.075
134.174
124.35
114.585
104.857
194.843
184.549
174.305
164.135
154.054
144.067
134.169
124.347
114.583
104.857
194.823
184.492
174.22
164.035
153.951
143.972
134.088
124.286
114.546
104.844
194.782
184.376
174.05
163.836
153.747
143.782
133.928
124.165
114.471
104.819
194.712
184.183
173.771
163.514
153.421
143.483
133.678
123.978
114.356
104.78
194.598
183.875
173.339
163.03
152.945
143.055
133.324
123.717
114.196
104.726
194.405
183.382
172.683
162.329
152.277
142.47
132.852
123.372
113.987
104.656
194.048
182.568
171.688
161.33
151.37
141.703
132.247
122.937
113.725
104.569
193.271
181.159
170.179
159.94
150.179
140.733
131.5
122.41
113.411
104.465
191.154
178.625
167.937
158.082
148.682
139.56
130.618
121.796
113.049
104.345
188.984
174.497
162.948
152.877
143.696
135.109
126.936
119.052
111.358
103.774
192.201
178.597
166.775
156.198
146.478
137.361
128.671
120.282
112.093
104.018
193.424
180.914
169.356
158.662
148.658
139.185
130.106
121.313
112.713
104.225
194.007
182.281
171.074
160.434
150.309
140.613
131.255
122.151
113.222
104.396
194.334
183.128
172.224
161.692
151.531
141.703
132.151
122.813
113.627
104.532
194.534
183.674
173.001
162.578
152.421
142.517
132.832
123.324
113.942
104.639
194.663
184.035
173.53
163.197
153.059
143.112
133.338
123.707
114.181
104.719
194.747
184.274
173.886
163.623
153.505
143.535
133.702
123.985
114.355
104.779
194.801
184.428
174.118
163.904
153.803
143.821
133.95
124.176
114.475
104.82
194.833
184.518
174.256
164.072
153.984
143.996
134.103
124.295
114.55
104.845
194.846
184.557
174.316
164.147
154.065
144.075
134.174
124.35
114.585
104.857
194.843
184.549
174.305
164.135
154.054
144.067
134.169
124.347
114.583
104.857
194.823
184.492
174.22
164.035
153.951
143.972
134.088
124.286
114.546
104.844
194.782
184.376
174.05
163.836
153.747
143.782
133.928
124.165
114.471
104.819
194.712
184.183
173.771
163.514
153.421
143.483
133.678
123.978
114.356
104.78
194.598
183.875
173.339
163.03
152.945
143.055
133.324
123.717
114.196
104.726
194.405
183.382
172.683
162.329
152.277
142.47
132.852
123.372
113.987
104.656
194.048
182.568
171.688
161.33
151.37
141.703
132.247
122.937
113.725
104.569
193.271
181.159
170.179
159.94
150.179
140.733
131.5
122.41
113.411
104.465
191.154
178.625
167.937
158.082
148.682
139.56
130.618
121.796
113.049
104.345
188.985
174.499
162.95
152.879
143.698
135.112
126.938
119.053
111.359
103.775
192.202
178.599
166.777
156.2
146.481
137.363
128.673
120.284
112.094
104.019
193.426
180.917
169.359
158.664
148.661
139.187
130.108
121.315
112.715
104.226
194.009
182.283
171.076
160.437
150.312
140.615
131.257
122.153
113.223
104.397
194.335
183.131
172.226
161.694
151.534
141.706
132.153
122.815
113.629
104.533
194.536
183.677
173.004
162.581
152.424
142.52
132.835
123.326
113.944
104.64
194.665
184.038
173.533
163.2
153.062
143.115
133.341
123.709
114.183
104.721
194.749
184.277
173.889
163.626
153.508
143.538
133.704
123.987
114.357
104.78
194.803
184.431
174.122
163.907
153.806
143.824
133.953
124.178
114.477
104.821
194.835
184.521
174.259
164.076
153.987
143.998
134.106
124.297
114.552
104.846
194.848
184.56
174.319
164.15
154.068
144.078
134.177
124.352
114.587
104.858
194.845
184.552
174.308
164.138
154.057
144.07
134.171
124.349
114.585
104.858
194.825
184.495
174.224
164.039
153.955
143.975
134.091
124.289
114.548
104.845
194.784
184.38
174.054
163.84
153.75
143.785
133.931
124.168
114.473
104.82
194.714
184.187
173.775
163.517
153.425
143.486
133.681
123.981
114.358
104.781
194.6
183.878
173.343
163.034
152.948
143.058
133.327
123.72
114.198
104.727
194.408
183.386
172.687
162.333
152.281
142.474
132.855
123.375
113.989
104.657
194.051
182.572
171.692
161.334
151.374
141.707
132.25
122.94
113.728
104.57
193.274
181.163
170.183
159.944
150.182
140.736
131.503
122.413
113.414
104.466
191.156
178.629
167.941
158.086
148.685
139.563
130.621
121.799
113.052
104.346
183.878
174.265
164.878
155.787
146.923
138.221
129.631
121.117
112.652
104.215
177.439
169.692
161.536
153.277
145.016
136.781
128.575
120.394
112.23
104.076
172.211
165.55
158.321
150.79
143.101
135.329
127.509
119.664
111.804
103.936
168.005
162.003
155.433
148.487
141.295
133.943
126.486
118.961
111.393
103.801
164.632
159.057
152.955
146.458
139.674
132.685
125.55
118.315
111.014
103.676
161.959
156.675
150.907
144.749
138.288
131.597
124.733
117.748
110.681
103.566
159.9
154.817
149.287
143.38
137.165
130.706
124.061
117.279
110.404
103.475
158.397
153.452
148.086
142.355
136.317
130.03
123.548
116.921
110.192
103.405
157.413
152.556
147.293
141.674
135.751
129.578
123.204
116.68
110.048
103.357
156.927
152.111
146.899
141.335
135.469
129.351
123.032
116.559
109.977
103.338
183.875
174.261
164.874
155.783
146.919
138.217
129.627
121.114
112.65
104.213
177.435
169.688
161.533
153.273
145.012
136.777
128.572
120.391
112.228
104.074
172.207
165.546
158.317
150.787
143.098
135.325
127.506
119.661
111.802
103.934
168.002
162
155.43
148.484
141.292
133.94
126.483
118.958
111.39
103.799
164.63
159.054
152.952
146.455
139.671
132.681
125.546
118.311
111.011
103.674
161.957
156.672
150.904
144.746
138.285
131.593
124.73
117.744
110.677
103.564
159.897
154.814
149.284
143.377
137.161
130.703
124.057
117.275
110.4
103.472
158.394
153.449
148.083
142.352
136.314
130.027
123.544
116.916
110.186
103.401
157.411
152.553
147.29
141.671
135.748
129.574
123.2
116.674
110.042
103.353
156.925
152.109
146.896
141.332
135.465
129.347
123.027
116.553
109.97
103.332
183.875
174.261
164.874
155.783
146.919
138.217
129.627
121.114
112.65
104.213
177.435
169.688
161.533
153.273
145.012
136.777
128.572
120.391
112.228
104.074
172.207
165.546
158.317
150.787
143.098
135.325
127.506
119.661
111.802
103.934
168.002
162
155.43
148.484
141.292
133.94
126.483
118.958
111.39
103.799
164.629
159.054
152.952
146.455
139.671
132.681
125.546
118.311
111.011
103.674
161.957
156.672
150.904
144.746
138.285
131.593
124.73
117.744
110.677
103.564
159.897
154.814
149.284
143.377
137.161
130.703
124.057
117.275
110.4
103.472
158.394
153.449
148.083
142.351
136.314
130.027
123.544
116.916
110.186
103.401
157.411
152.553
147.29
141.671
135.748
129.574
123.2
116.674
110.042
103.353
156.925
152.109
146.896
141.332
135.465
129.347
123.027
116.553
109.97
103.332
183.878
174.265
164.878
155.787
146.923
138.221
129.631
121.117
112.652
104.215
177.438
169.692
161.536
153.277
145.016
136.781
128.575
120.394
112.23
104.076
172.211
165.55
158.321
150.79
143.101
135.329
127.509
119.664
111.804
103.936
168.005
162.003
155.433
148.487
141.295
133.943
126.486
118.961
111.393
103.801
164.632
159.057
152.955
146.458
139.674
132.685
125.55
118.315
111.014
103.676
161.959
156.674
150.907
144.749
138.288
131.597
124.733
117.748
110.681
103.566
159.9
154.817
149.287
143.379
137.165
130.706
124.061
117.279
110.404
103.475
158.397
153.452
148.086
142.354
136.317
130.03
123.548
116.921
110.192
103.405
157.413
152.555
147.293
141.674
135.751
129.578
123.204
116.68
110.048
103.357
156.927
152.111
146.899
141.335
135.469
129.351
123.032
116.559
109.977
103.338
192.663
195.459
196.639
197.275
197.677
197.952
198.144
198.275
198.358
198.398
198.398
198.359
198.276
198.146
197.954
197.68
197.278
196.641
195.462
192.665
183.988
188.002
190.465
192.067
193.167
193.945
194.499
194.881
195.122
195.239
195.24
195.124
194.884
194.503
193.95
193.173
192.074
190.471
188.007
183.992
177.868
182.11
185.169
187.379
188.995
190.181
191.043
191.645
192.029
192.216
192.217
192.032
191.65
191.05
190.189
189.004
187.39
185.179
182.12
177.876
173.194
177.428
180.749
183.314
185.279
186.769
187.875
188.659
189.161
189.407
189.409
189.166
188.666
187.885
186.782
185.293
183.33
180.765
177.443
173.209
169.524
173.691
177.121
179.886
182.077
183.781
185.069
185.993
186.591
186.885
186.887
186.597
186.003
185.083
183.799
182.097
179.908
177.145
173.716
169.548
166.641
170.735
174.203
177.076
179.409
181.258
182.676
183.704
184.374
184.705
184.707
184.382
183.717
182.694
181.281
179.436
177.106
174.235
170.77
166.676
164.427
168.457
171.93
174.86
177.279
179.224
180.731
181.832
182.554
182.912
182.915
182.564
181.849
180.754
179.253
177.314
174.9
171.973
168.503
164.475
162.812
166.791
170.258
173.217
175.686
177.69
179.255
180.406
181.163
181.54
181.544
181.175
180.426
179.283
177.725
175.728
173.265
170.311
166.849
162.873
161.755
165.699
169.158
172.13
174.626
176.664
178.264
179.445
180.224
180.613
180.617
180.238
179.468
178.296
176.705
174.674
172.185
169.219
165.766
161.826
161.232
165.158
168.611
171.589
174.097
176.151
177.767
178.962
179.751
180.146
180.15
179.766
178.986
177.801
176.194
174.149
171.648
168.678
165.231
161.309
192.666
195.461
196.64
197.277
197.679
197.953
198.145
198.276
198.358
198.398
198.398
198.358
198.276
198.145
197.953
197.679
197.277
196.64
195.46
192.663
183.991
188.004
190.468
192.07
193.169
193.947
194.5
194.882
195.122
195.239
195.24
195.123
194.883
194.502
193.949
193.171
192.072
190.469
188.004
183.989
177.871
182.113
185.172
187.382
188.997
190.182
191.044
191.646
192.029
192.215
192.216
192.031
191.65
191.048
190.188
189.002
187.388
185.177
182.117
177.873
173.198
177.43
180.752
183.316
185.281
186.771
187.876
188.66
189.162
189.407
189.409
189.165
188.665
187.884
186.78
185.292
183.328
180.763
177.441
173.207
169.527
173.694
177.124
179.888
182.079
183.783
185.071
185.994
186.591
186.885
186.886
186.596
186.002
185.082
183.797
182.095
179.906
177.142
173.713
169.545
166.644
170.738
174.205
177.078
179.411
181.26
182.677
183.705
184.374
184.705
184.707
184.381
183.717
182.693
181.28
179.434
177.104
174.233
170.768
166.674
164.43
168.46
171.933
174.863
177.281
179.225
180.732
181.833
182.554
182.912
182.915
182.563
181.848
180.752
179.251
177.312
174.898
171.971
168.501
164.473
162.815
166.794
170.261
173.219
175.688
177.692
179.256
180.407
181.163
181.54
181.543
181.174
180.425
179.282
177.723
175.726
173.263
170.309
166.847
162.871
161.758
165.702
169.16
172.132
174.628
176.666
178.265
179.446
180.224
180.613
180.617
180.237
179.467
178.295
176.703
174.673
172.183
169.217
165.764
161.824
161.234
165.16
168.613
171.591
174.099
176.152
177.768
178.963
179.752
180.146
180.15
179.765
178.986
177.8
176.193
174.147
171.647
168.676
165.229
161.307
192.666
195.461
196.64
197.277
197.679
197.953
198.145
198.276
198.358
198.398
198.398
198.358
198.276
198.145
197.953
197.679
197.277
196.64
195.46
192.663
183.991
188.004
190.467
192.07
193.169
193.947
194.5
194.882
195.122
195.239
195.24
195.123
194.883
194.502
193.949
193.171
192.072
190.469
188.004
183.989
177.871
182.113
185.172
187.382
188.997
190.182
191.044
191.646
192.029
192.215
192.216
192.031
191.65
191.048
190.188
189.002
187.388
185.177
182.117
177.873
173.197
177.43
180.752
183.316
185.281
186.771
187.876
188.66
189.162
189.407
189.409
189.165
188.665
187.884
186.78
185.292
183.328
180.763
177.441
173.206
169.527
173.694
177.124
179.888
182.079
183.783
185.071
185.994
186.591
186.885
186.886
186.596
186.002
185.082
183.797
182.095
179.906
177.142
173.713
169.545
166.644
170.738
174.205
177.078
179.411
181.26
182.677
183.705
184.374
184.705
184.707
184.381
183.717
182.693
181.28
179.434
177.104
174.233
170.768
166.674
164.43
168.46
171.932
174.863
177.281
179.225
180.732
181.833
182.554
182.912
182.915
182.563
181.848
180.752
179.251
177.312
174.897
171.971
168.501
164.472
162.815
166.794
170.261
173.219
175.688
177.692
179.256
180.407
181.163
181.54
181.543
181.174
180.425
179.281
177.723
175.726
173.263
170.309
166.846
162.87
161.758
165.702
169.16
172.132
174.628
176.666
178.265
179.446
180.224
180.613
180.617
180.237
179.467
178.295
176.703
174.673
172.183
169.217
165.764
161.824
161.234
165.16
168.614
171.591
174.099
176.152
177.768
178.963
179.752
180.146
180.15
179.766
178.986
177.8
176.193
174.148
171.647
168.676
165.229
161.307
192.663
195.459
196.639
197.275
197.677
197.952
198.144
198.275
198.358
198.398
198.398
198.359
198.276
198.146
197.954
197.68
197.278
196.641
195.462
192.665
183.988
188.002
190.465
192.067
193.167
193.945
194.499
194.881
195.122
195.239
195.24
195.124
194.884
194.503
193.95
193.173
192.074
190.471
188.007
183.992
177.868
182.11
185.169
187.379
188.995
190.181
191.043
191.645
192.029
192.216
192.217
192.032
191.65
191.05
190.189
189.004
187.39
185.179
182.12
177.876
173.194
177.427
180.749
183.314
185.279
186.77
187.875
188.659
189.161
189.407
189.409
189.166
188.666
187.885
186.782
185.293
183.33
180.765
177.443
173.209
169.524
173.691
177.121
179.886
182.077
183.782
185.069
185.993
186.591
186.885
186.887
186.597
186.003
185.083
183.799
182.097
179.908
177.145
173.716
169.548
166.641
170.735
174.203
177.076
179.409
181.258
182.676
183.704
184.373
184.704
184.707
184.381
183.717
182.694
181.281
179.436
177.106
174.235
170.77
166.676
164.427
168.457
171.93
174.86
177.279
179.223
180.73
181.832
182.553
182.911
182.915
182.563
181.849
180.753
179.252
177.313
174.899
171.973
168.503
164.475
162.812
166.791
170.258
173.217
175.686
177.69
179.255
180.406
181.163
181.54
181.544
181.175
180.426
179.283
177.725
175.728
173.265
170.311
166.849
162.873
161.755
165.699
169.158
172.13
174.626
176.665
178.264
179.445
180.224
180.613
180.617
180.238
179.468
178.296
176.705
174.674
172.185
169.219
165.767
161.826
161.232
165.158
168.611
171.589
174.097
176.151
177.767
178.962
179.751
180.146
180.151
179.766
178.986
177.801
176.194
174.149
171.649
168.679
165.231
161.31
104.215
112.654
121.121
129.637
138.229
146.931
155.794
164.884
174.269
183.878
104.076
112.232
120.398
128.581
136.787
145.022
153.283
161.54
169.694
177.437
103.935
111.804
119.666
127.513
135.332
143.104
150.792
158.32
165.546
172.204
103.799
111.392
118.96
126.485
133.941
141.291
148.481
155.425
161.992
167.992
103.674
111.01
118.309
125.543
132.675
139.662
146.443
152.936
159.036
164.609
103.563
110.673
117.737
124.719
131.578
138.265
144.722
150.876
156.641
161.924
103.47
110.393
117.262
124.037
130.676
137.128
143.338
149.241
154.769
159.851
103.398
110.176
116.895
123.514
129.987
136.266
142.298
148.026
153.39
158.334
103.349
110.029
116.645
123.158
129.521
135.687