/*--------------------------------*- C++ -*----------------------------------*\
| =========                 |                                                 |
| \\      /  F ield         | OpenFOAM: The Open Source CFD Toolbox           |
|  \\    /   O peration     | Version:  2.4.0                                 |
|   \\  /    A nd           | Web:      www.OpenFOAM.org                      |
|    \\/     M anipulation  |                                                 |
\*---------------------------------------------------------------------------*/
FoamFile
{
    version     2.0;
    format      ascii;
    class       surfaceScalarField;
    location    "3.7";
    object      phi;
}
// * * * * * * * * * * * * * * * * * * * * * * * * * * * * * * * * * * * * * //

dimensions      [0 3 -1 0 0 0 0];

internalField   nonuniform List<scalar> 
12720
(
1.54449e-07
-1.54823e-07
1.69771e-11
-5.41101e-07
6.93811e-07
1.73827e-09
-2.06828e-06
1.52459e-06
2.5924e-09
-4.1801e-06
2.10849e-06
3.32557e-09
-6.64027e-06
2.45641e-06
3.7635e-09
-9.25409e-06
2.60987e-06
3.94436e-09
-1.18612e-05
2.6032e-06
3.95568e-09
-1.43228e-05
2.45779e-06
3.80009e-09
-1.65175e-05
2.19126e-06
3.45119e-09
1.83242e-06
2.88542e-09
-1.83528e-05
-7.25444e-07
5.72063e-07
-1.44225e-09
-3.2951e-06
3.26306e-06
4.10312e-10
-7.49782e-06
5.72881e-06
-1.49996e-09
-1.29093e-05
7.52236e-06
-2.38384e-09
-1.9081e-05
8.63093e-06
-2.82754e-09
-2.55938e-05
9.12575e-06
-3.10659e-09
-3.20677e-05
9.08028e-06
-3.11674e-09
-3.81602e-05
8.55322e-06
-2.89783e-09
-4.3576e-05
7.60958e-06
-2.54161e-09
6.35774e-06
-2.19273e-09
-4.80992e-05
-1.69288e-06
2.26744e-06
-2.49762e-09
-6.13126e-06
7.69917e-06
2.27332e-09
-1.27196e-05
1.2317e-05
1.13353e-10
-2.0862e-05
1.56649e-05
-8.70405e-11
-2.9972e-05
1.77408e-05
1.23709e-10
-3.94911e-05
1.86447e-05
1.14987e-10
-4.88913e-05
1.84804e-05
1.26061e-10
-5.76792e-05
1.73409e-05
1.84694e-10
-6.54197e-05
1.53499e-05
2.52865e-10
1.27309e-05
1.55931e-10
-7.17931e-05
-2.48795e-06
4.75903e-06
-3.63467e-09
-8.50908e-06
1.37171e-05
3.20046e-09
-1.7078e-05
2.08859e-05
-7.35444e-12
-2.74101e-05
2.59973e-05
-2.78173e-10
-3.88046e-05
2.91352e-05
8.92077e-11
-5.0606e-05
3.04459e-05
1.30811e-10
-6.21804e-05
3.00547e-05
1.71249e-10
-7.29122e-05
2.80723e-05
2.77459e-10
-8.2234e-05
2.46712e-05
4.77857e-10
2.02055e-05
4.21112e-10
-8.9709e-05
-3.05047e-06
7.81394e-06
-4.44357e-09
-1.02291e-05
2.08919e-05
3.76432e-09
-2.02469e-05
3.09042e-05
-4.2232e-10
-3.21611e-05
3.79124e-05
-9.22649e-10
-4.51814e-05
4.21561e-05
-5.57939e-10
-5.85847e-05
4.38497e-05
-5.33605e-10
-7.16594e-05
4.31299e-05
-4.76962e-10
-8.36823e-05
4.00956e-05
-2.80224e-10
-9.39398e-05
3.49283e-05
3.0125e-10
2.80891e-05
5.89987e-10
-0.000101824
-3.35605e-06
1.11748e-05
-4.82496e-09
-1.11851e-05
2.87168e-05
4.17134e-09
-2.20245e-05
4.17441e-05
-5.52981e-10
-3.48332e-05
5.07223e-05
-1.17415e-09
-4.87675e-05
5.60912e-05
-8.1538e-10
-6.30675e-05
5.81506e-05
-8.11561e-10
-7.69739e-05
5.70371e-05
-7.9438e-10
-8.96733e-05
5.27956e-05
-6.39572e-10
-0.000100283
4.55373e-05
5.18373e-10
3.57211e-05
1.64011e-09
-0.000107916
-3.39543e-06
1.45755e-05
-5.26075e-09
-1.13266e-05
3.66437e-05
4.29013e-09
-2.22967e-05
5.27149e-05
-5.90698e-10
-3.5237e-05
6.36639e-05
-1.28464e-09
-4.92905e-05
7.01456e-05
-9.81147e-10
-6.36954e-05
7.25566e-05
-1.01994e-09
-7.76848e-05
7.10275e-05
-1.13132e-09
-9.03947e-05
6.55069e-05
-1.35726e-09
-0.000100777
5.59186e-05
6.79671e-10
4.24446e-05
4.16479e-09
-0.000107504
-3.17544e-06
1.77554e-05
-4.45644e-09
-1.06599e-05
4.4124e-05
4.10738e-09
-2.10486e-05
6.31042e-05
-5.40789e-10
-3.33057e-05
7.59222e-05
-1.25036e-09
-4.65903e-05
8.34311e-05
-1.0242e-09
-6.01634e-05
8.61307e-05
-1.04324e-09
-7.32932e-05
8.41585e-05
-1.18324e-09
-8.51382e-05
7.7354e-05
-2.10025e-09
-9.45707e-05
6.5349e-05
2.00481e-09
4.75064e-05
1.44968e-08
-9.9647e-05
-2.72682e-06
2.0486e-05
-3.72932e-09
-9.26975e-06
5.06632e-05
3.71788e-09
-1.84099e-05
7.22447e-05
-3.74976e-10
-2.91787e-05
8.66921e-05
-1.04824e-09
-4.07495e-05
9.50028e-05
-9.6279e-10
-5.23895e-05
9.77718e-05
-1.04376e-09
-6.34014e-05
9.51719e-05
-1.40331e-09
-7.30193e-05
8.69768e-05
-4.91278e-09
-8.0256e-05
7.25871e-05
-1.46313e-09
4.981e-05
3.25422e-08
-8.25921e-05
-2.11396e-06
-2.70688e-09
2.26026e-05
-7.34569e-06
3.20901e-09
5.58917e-05
-1.47138e-05
-6.39549e-11
7.96129e-05
-2.3321e-05
-5.97823e-10
9.52999e-05
-3.23105e-05
-6.3549e-10
0.000103993
-4.08527e-05
-9.32516e-10
0.000106315
-4.81257e-05
-1.98124e-09
0.000102447
-5.32098e-05
-1.22264e-08
9.20732e-05
-5.49937e-05
-2.85961e-08
7.43996e-05
9.80948e-09
-5.23035e-05
4.71099e-05
1.55877e-07
-1.55841e-07
-1.80744e-11
-5.41715e-07
6.99343e-07
-1.14878e-11
-2.06902e-06
1.52991e-06
-8.2836e-12
-4.18022e-06
2.11453e-06
-5.47716e-12
-6.64012e-06
2.46367e-06
-3.49535e-12
-9.25394e-06
2.61776e-06
-2.1731e-12
-1.18612e-05
2.61122e-06
-1.32357e-12
-1.4323e-05
2.46556e-06
-7.71984e-13
-1.65179e-05
2.19841e-06
-4.09397e-13
1.83841e-06
-1.77147e-13
-1.83534e-05
-7.30137e-07
5.72865e-07
-1.15462e-11
-3.30074e-06
3.27037e-06
-9.71558e-12
-7.50281e-06
5.73049e-06
-7.315e-12
-1.29127e-05
7.52208e-06
-5.16299e-12
-1.90826e-05
8.63074e-06
-3.46087e-12
-2.55938e-05
9.12587e-06
-2.23768e-12
-3.20666e-05
9.08081e-06
-1.41223e-12
-3.81582e-05
8.55433e-06
-8.66793e-13
-4.35737e-05
7.6113e-06
-5.08807e-13
6.35933e-06
-2.49302e-13
-4.80968e-05
-1.69829e-06
2.26867e-06
-8.36754e-12
-6.13202e-06
7.70638e-06
-7.31602e-12
-1.27204e-05
1.2319e-05
-5.65802e-12
-2.0863e-05
1.56647e-05
-4.16263e-12
-2.99725e-05
1.77404e-05
-2.8879e-12
-3.94911e-05
1.86445e-05
-1.91853e-12
-4.88909e-05
1.84808e-05
-1.24071e-12
-5.76785e-05
1.73421e-05
-7.7113e-13
-6.54193e-05
1.53523e-05
-4.42167e-13
1.27331e-05
-2.04987e-13
-7.17929e-05
-2.4948e-06
4.75984e-06
-5.5686e-12
-8.50795e-06
1.37227e-05
-5.13947e-12
-1.70767e-05
2.08878e-05
-4.09959e-12
-2.74098e-05
2.59975e-05
-3.12697e-12
-3.88045e-05
2.91351e-05
-2.21682e-12
-5.06059e-05
3.0446e-05
-1.49458e-12
-6.21802e-05
3.00552e-05
-9.71642e-13
-7.29118e-05
2.80741e-05
-5.99086e-13
-8.22343e-05
2.46752e-05
-3.21267e-13
2.02094e-05
-1.24821e-13
-8.97102e-05
-3.05902e-06
7.81442e-06
-3.62522e-12
-1.02277e-05
2.08951e-05
-3.50219e-12
-2.02453e-05
3.0905e-05
-2.87412e-12
-3.21607e-05
3.79119e-05
-2.28753e-12
-4.51813e-05
4.21552e-05
-1.65728e-12
-5.85847e-05
4.38489e-05
-1.12927e-12
-7.16592e-05
4.31293e-05
-7.37117e-13
-8.36818e-05
4.00964e-05
-4.45828e-13
-9.394e-05
3.49338e-05
-2.26072e-13
2.80963e-05
-8.38277e-14
-0.000101826
-3.36558e-06
1.11752e-05
-2.28882e-12
-1.11836e-05
2.87173e-05
-2.26289e-12
-2.20228e-05
4.17436e-05
-1.9121e-12
-3.48331e-05
5.0721e-05
-1.6053e-12
-4.87679e-05
5.60893e-05
-1.18873e-12
-6.30683e-05
5.81484e-05
-8.07527e-13
-7.69745e-05
5.70347e-05
-5.0932e-13
-8.96727e-05
5.2794e-05
-2.85336e-13
-0.000100283
4.55444e-05
-1.44992e-13
3.57356e-05
-3.25532e-14
-0.000107921
-3.40525e-06
1.45752e-05
-1.63476e-12
-1.13252e-05
3.66416e-05
-1.4825e-12
-2.22953e-05
5.27132e-05
-1.27463e-12
-3.52375e-05
6.36618e-05
-1.08849e-12
-4.9292e-05
7.01428e-05
-7.92977e-13
-6.36977e-05
7.25531e-05
-5.09044e-13
-7.7687e-05
7.10228e-05
-2.82558e-13
-9.03947e-05
6.55004e-05
-1.32666e-13
-0.000100775
5.59258e-05
-2.97557e-14
4.2477e-05
2.3616e-14
-0.000107513
-3.18438e-06
1.77551e-05
-1.06176e-12
-1.06585e-05
4.41199e-05
-8.99044e-13
-2.10476e-05
6.31017e-05
-8.02528e-13
-3.33069e-05
7.59199e-05
-6.85805e-13
-4.6593e-05
8.34279e-05
-4.68157e-13
-6.01674e-05
8.61265e-05
-2.51495e-13
-7.32976e-05
8.41519e-05
-8.9944e-14
-8.51383e-05
7.73389e-05
4.68186e-14
-9.4558e-05
6.53475e-05
9.7941e-14
4.75892e-05
6.61846e-14
-9.96557e-05
-2.73427e-06
2.04856e-05
-6.23667e-13
-9.26845e-06
5.06578e-05
-5.25536e-13
-1.84091e-05
7.2242e-05
-4.86329e-13
-2.91805e-05
8.66902e-05
-4.00577e-13
-4.07542e-05
9.50005e-05
-2.3239e-13
-5.23979e-05
9.77691e-05
-6.79779e-14
-6.34158e-05
9.51684e-05
8.80464e-14
-7.3039e-05
8.69572e-05
2.65523e-13
-8.0232e-05
7.2539e-05
3.18194e-13
4.99277e-05
1.86952e-13
-8.25379e-05
-2.11937e-06
-3.83875e-13
2.26023e-05
-7.34408e-06
-3.14662e-13
5.58857e-05
-1.47124e-05
-2.80382e-13
7.96103e-05
-2.33219e-05
-2.00237e-13
9.52991e-05
-3.23152e-05
-6.41648e-14
0.000103993
-4.08645e-05
5.12258e-14
0.000106318
-4.81545e-05
1.89448e-13
0.000102456
-5.32983e-05
4.2975e-13
9.20889e-05
-5.51349e-05
5.11561e-13
7.4347e-05
2.27631e-13
-5.20746e-05
4.68772e-05
1.55901e-07
-1.55817e-07
-1.01383e-10
-5.41697e-07
6.99355e-07
-1.76779e-09
-2.06901e-06
1.52992e-06
-2.60702e-09
-4.18022e-06
2.11454e-06
-3.33435e-09
-6.64012e-06
2.46367e-06
-3.76883e-09
-9.25393e-06
2.61776e-06
-3.9476e-09
-1.18612e-05
2.61122e-06
-3.9576e-09
-1.4323e-05
2.46556e-06
-3.80119e-09
-1.65179e-05
2.19841e-06
-3.45174e-09
1.83841e-06
-2.88558e-09
-1.83534e-05
-7.30125e-07
5.72884e-07
1.41291e-09
-3.30073e-06
3.27038e-06
-4.28933e-10
-7.5028e-06
5.7305e-06
1.48799e-09
-1.29127e-05
7.52209e-06
2.37611e-09
-1.90826e-05
8.63074e-06
2.82267e-09
-2.55938e-05
9.12587e-06
3.10357e-09
-3.20666e-05
9.08081e-06
3.11495e-09
-3.81582e-05
8.55433e-06
2.89684e-09
-4.35737e-05
7.6113e-06
2.54114e-09
6.35933e-06
2.19259e-09
-4.80968e-05
-1.69829e-06
2.26868e-06
2.48314e-09
-6.13202e-06
7.70638e-06
-2.28542e-09
-1.27204e-05
1.2319e-05
-1.22077e-10
-2.0863e-05
1.56647e-05
8.09904e-11
-2.99725e-05
1.77404e-05
-1.27752e-10
-3.94911e-05
1.86445e-05
-1.17612e-10
-4.88909e-05
1.84808e-05
-1.27691e-10
-5.76785e-05
1.73421e-05
-1.85663e-10
-6.54193e-05
1.53523e-05
-2.53382e-10
1.27331e-05
-1.56131e-10
-7.17929e-05
-2.4948e-06
4.75985e-06
3.62603e-09
-8.50795e-06
1.37227e-05
-3.20835e-09
-1.70767e-05
2.08878e-05
1.34348e-12
-2.74098e-05
2.59975e-05
2.73765e-10
-3.88045e-05
2.91351e-05
-9.22642e-11
-5.06059e-05
3.0446e-05
-1.32842e-10
-6.21802e-05
3.00552e-05
-1.7253e-10
-7.29118e-05
2.80741e-05
-2.78233e-10
-8.22343e-05
2.46752e-05
-4.7827e-10
2.02094e-05
-4.21259e-10
-8.97102e-05
-3.05902e-06
7.81442e-06
4.43825e-09
-1.02277e-05
2.08952e-05
-3.76945e-09
-2.02453e-05
3.0905e-05
4.183e-10
-3.21607e-05
3.79119e-05
9.19539e-10
-4.51813e-05
4.21552e-05
5.55693e-10
-5.85847e-05
4.38489e-05
5.32066e-10
-7.16592e-05
4.31293e-05
4.75959e-10
-8.36818e-05
4.00964e-05
2.79589e-10
-9.394e-05
3.49338e-05
-3.01612e-10
2.80963e-05
-5.90135e-10
-0.000101826
-3.36558e-06
1.11752e-05
4.82165e-09
-1.11836e-05
2.87173e-05
-4.17466e-09
-2.20228e-05
4.17436e-05
5.5037e-10
-3.48331e-05
5.0721e-05
1.17202e-09
-4.87679e-05
5.60893e-05
8.13777e-10
-6.30683e-05
5.81484e-05
8.10428e-10
-7.69745e-05
5.70347e-05
7.93607e-10
-8.96727e-05
5.2794e-05
6.39041e-10
-0.000100283
4.55444e-05
-5.18721e-10
3.57356e-05
-1.64028e-09
-0.000107921
-3.40525e-06
1.45752e-05
5.25784e-09
-1.13252e-05
3.66416e-05
-4.29223e-09
-2.22953e-05
5.27132e-05
5.89035e-10
-3.52375e-05
6.36618e-05
1.28322e-09
-4.9292e-05
7.01428e-05
9.80046e-10
-6.36977e-05
7.25531e-05
1.01914e-09
-7.7687e-05
7.10228e-05
1.13074e-09
-9.03947e-05
6.55004e-05
1.3568e-09
-0.000100775
5.59258e-05
-6.79996e-10
4.2477e-05
-4.16492e-09
-0.000107513
-3.18438e-06
1.77551e-05
4.45512e-09
-1.06585e-05
4.41199e-05
-4.10875e-09
-2.10476e-05
6.31017e-05
5.39716e-10
-3.33069e-05
7.59199e-05
1.24942e-09
-4.6593e-05
8.34278e-05
1.02347e-09
-6.01674e-05
8.61265e-05
1.04268e-09
-7.32976e-05
8.41519e-05
1.18277e-09
-8.51383e-05
7.73389e-05
2.09982e-09
-9.4558e-05
6.53475e-05
-2.00512e-09
4.75892e-05
-1.44968e-08
-9.96557e-05
-2.73427e-06
2.04856e-05
3.72845e-09
-9.26845e-06
5.06578e-05
-3.71884e-09
-1.84091e-05
7.2242e-05
3.74251e-10
-2.91805e-05
8.66902e-05
1.04762e-09
-4.07542e-05
9.50005e-05
9.62297e-10
-5.23979e-05
9.77691e-05
1.04335e-09
-6.34158e-05
9.51684e-05
1.4029e-09
-7.3039e-05
8.69572e-05
4.91229e-09
-8.0232e-05
7.2539e-05
1.46272e-09
4.99277e-05
-3.25421e-08
-8.25379e-05
-2.11937e-06
2.70625e-09
2.26023e-05
-7.34408e-06
-3.20969e-09
5.58857e-05
-1.47124e-05
6.34607e-11
7.96103e-05
-2.33219e-05
5.97423e-10
9.52991e-05
-3.23152e-05
6.35182e-10
0.000103993
-4.08645e-05
9.32248e-10
0.000106318
-4.81545e-05
1.98091e-09
0.000102456
-5.32983e-05
1.22259e-08
9.20889e-05
-5.51349e-05
2.85954e-08
7.4347e-05
-9.80971e-09
-5.20746e-05
4.68772e-05
1.54585e-07
-1.54686e-07
-5.41039e-07
6.93857e-07
-2.06825e-06
1.5246e-06
-4.18008e-06
2.1085e-06
-6.64026e-06
2.45641e-06
-9.25408e-06
2.60988e-06
-1.18612e-05
2.6032e-06
-1.43228e-05
2.45779e-06
-1.65175e-05
2.19126e-06
1.83242e-06
-1.83528e-05
-7.25398e-07
5.72126e-07
-3.29506e-06
3.2631e-06
-7.49779e-06
5.72882e-06
-1.29093e-05
7.52237e-06
-1.9081e-05
8.63093e-06
-2.55938e-05
9.12576e-06
-3.20677e-05
9.08028e-06
-3.81602e-05
8.55322e-06
-4.3576e-05
7.60958e-06
6.35774e-06
-4.80992e-05
-1.69287e-06
2.26747e-06
-6.13125e-06
7.69919e-06
-1.27196e-05
1.2317e-05
-2.0862e-05
1.56649e-05
-2.9972e-05
1.77408e-05
-3.94911e-05
1.86447e-05
-4.88913e-05
1.84804e-05
-5.76792e-05
1.73409e-05
-6.54197e-05
1.53499e-05
1.27309e-05
-7.17931e-05
-2.48795e-06
4.75905e-06
-8.50907e-06
1.37171e-05
-1.7078e-05
2.08859e-05
-2.74101e-05
2.59973e-05
-3.88046e-05
2.91352e-05
-5.0606e-05
3.04459e-05
-6.21804e-05
3.00547e-05
-7.29122e-05
2.80723e-05
-8.2234e-05
2.46712e-05
2.02055e-05
-8.9709e-05
-3.05046e-06
7.81395e-06
-1.02291e-05
2.08919e-05
-2.02469e-05
3.09042e-05
-3.21611e-05
3.79124e-05
-4.51814e-05
4.21561e-05
-5.85847e-05
4.38497e-05
-7.16594e-05
4.31299e-05
-8.36823e-05
4.00956e-05
-9.39398e-05
3.49283e-05
2.80891e-05
-0.000101824
-3.35605e-06
1.11748e-05
-1.11851e-05
2.87168e-05
-2.20245e-05
4.17441e-05
-3.48332e-05
5.07223e-05
-4.87675e-05
5.60912e-05
-6.30675e-05
5.81506e-05
-7.69739e-05
5.70371e-05
-8.96733e-05
5.27956e-05
-0.000100283
4.55373e-05
3.57211e-05
-0.000107916
-3.39543e-06
1.45755e-05
-1.13266e-05
3.66437e-05
-2.22967e-05
5.27149e-05
-3.5237e-05
6.36639e-05
-4.92905e-05
7.01456e-05
-6.36954e-05
7.25566e-05
-7.76848e-05
7.10275e-05
-9.03947e-05
6.55069e-05
-0.000100777
5.59186e-05
4.24446e-05
-0.000107504
-3.17544e-06
1.77554e-05
-1.06599e-05
4.4124e-05
-2.10486e-05
6.31042e-05
-3.33057e-05
7.59222e-05
-4.65903e-05
8.34311e-05
-6.01634e-05
8.61307e-05
-7.32932e-05
8.41585e-05
-8.51382e-05
7.7354e-05
-9.45707e-05
6.5349e-05
4.75064e-05
-9.9647e-05
-2.72682e-06
2.0486e-05
-9.26975e-06
5.06632e-05
-1.84099e-05
7.22447e-05
-2.91787e-05
8.66921e-05
-4.07495e-05
9.50028e-05
-5.23895e-05
9.77718e-05
-6.34014e-05
9.51719e-05
-7.30193e-05
8.69768e-05
-8.0256e-05
7.25871e-05
4.981e-05
-8.25921e-05
-2.11396e-06
2.26026e-05
-7.34569e-06
5.58917e-05
-1.47138e-05
7.96129e-05
-2.3321e-05
9.52999e-05
-3.23105e-05
0.000103993
-4.08527e-05
0.000106315
-4.81257e-05
0.000102447
-5.32098e-05
9.20732e-05
-5.49937e-05
7.43996e-05
-5.23035e-05
4.71099e-05
-1.97871e-05
1.4321e-06
2.17167e-09
-2.08416e-05
1.05297e-06
1.52083e-09
-2.15791e-05
7.36514e-07
1.00822e-09
-2.20769e-05
4.97134e-07
6.37777e-10
-2.24083e-05
3.31024e-07
3.92561e-10
-2.26346e-05
2.26079e-07
2.44866e-10
-2.28037e-05
1.68914e-07
1.681e-10
-2.29521e-05
1.48284e-07
1.4209e-10
-2.31081e-05
1.55784e-07
1.532e-10
-2.32933e-05
1.85014e-07
1.92752e-10
-2.35235e-05
2.2997e-07
2.54617e-10
-2.38069e-05
2.83046e-07
3.3234e-10
-2.41401e-05
3.32835e-07
4.16145e-10
-2.45026e-05
3.62008e-07
4.89818e-10
-2.4849e-05
3.45822e-07
5.26468e-10
-2.51018e-05
2.52346e-07
4.82622e-10
-2.51492e-05
4.70956e-08
3.03769e-10
-2.48464e-05
-3.0276e-07
-4.36095e-11
-2.40407e-05
-8.05024e-07
-6.55207e-10
-1.43419e-06
-1.57643e-09
-2.2605e-05
-5.1641e-05
4.97588e-06
-1.93975e-09
-5.42616e-05
3.67517e-06
-1.6199e-09
-5.6115e-05
2.59126e-06
-1.28214e-09
-5.73859e-05
1.76898e-06
-9.80679e-10
-5.82479e-05
1.19379e-06
-7.34697e-10
-5.88458e-05
8.24523e-07
-5.53827e-10
-5.92923e-05
6.15837e-07
-4.37676e-10
-5.96725e-05
5.28889e-07
-3.78887e-10
-6.00498e-05
5.33464e-07
-3.67024e-10
-6.04698e-05
6.05353e-07
-3.89863e-10
-6.09607e-05
7.2136e-07
-4.32555e-10
-6.15304e-05
8.5319e-07
-4.75491e-10
-6.2158e-05
9.60964e-07
-4.91924e-10
-6.27829e-05
9.87316e-07
-4.46387e-10
-6.32907e-05
8.53866e-07
-2.95218e-10
-6.35016e-05
4.63279e-07
7.31094e-12
-6.31667e-05
-2.88318e-07
4.91174e-10
-6.19852e-05
-1.48542e-06
1.14508e-09
-5.96437e-05
-3.1484e-06
1.92856e-09
-5.18283e-06
2.6656e-09
-5.58977e-05
-7.66816e-05
9.86471e-06
-2.38062e-10
-8.02175e-05
7.21141e-06
-4.16037e-10
-8.26663e-05
5.04053e-06
-4.57059e-10
-8.43163e-05
3.41937e-06
-4.35201e-10
-8.54201e-05
2.29798e-06
-3.72481e-10
-8.61765e-05
1.58129e-06
-2.98018e-10
-8.67333e-05
1.17288e-06
-2.30348e-10
-8.71974e-05
9.93141e-07
-1.76738e-10
-8.7645e-05
9.81211e-07
-1.38126e-10
-8.81283e-05
1.08875e-06
-1.11914e-10
-8.8677e-05
1.2701e-06
-9.36177e-11
-8.92945e-05
1.47085e-06
-7.75646e-11
-8.99496e-05
1.61607e-06
-5.69899e-11
-9.05617e-05
1.59946e-06
-2.35027e-11
-9.09845e-05
1.27663e-06
3.40885e-11
-9.09891e-05
4.67707e-07
1.25154e-10
-9.02559e-05
-1.02176e-06
2.44497e-10
-8.8388e-05
-3.35371e-06
3.84283e-10
-8.49599e-05
-6.577e-06
5.28313e-10
-1.05218e-05
4.49759e-10
-7.96213e-05
-9.51913e-05
1.53474e-05
-3.79452e-10
-9.89493e-05
1.09701e-05
-6.12871e-10
-0.000101414
7.50631e-06
-6.09649e-10
-0.000102993
4.99861e-06
-5.42641e-10
-0.000104002
3.3077e-06
-4.3244e-10
-0.000104667
2.2464e-06
-3.20539e-10
-0.00010514
1.64582e-06
-2.27479e-10
-0.000105523
1.37593e-06
-1.56872e-10
-0.000105883
1.34216e-06
-1.06621e-10
-0.000106267
1.47245e-06
-7.2682e-11
-0.000106698
1.70105e-06
-5.08448e-11
-0.000107178
1.95133e-06
-3.73248e-11
-0.000107681
2.11824e-06
-2.85493e-11
-0.000108132
2.05142e-06
-1.88685e-11
-0.000108398
1.54238e-06
5.93091e-12
-0.000108253
3.22266e-07
6.14896e-11
-0.00010736
-1.9147e-06
1.3054e-10
-0.000105263
-5.45096e-06
2.60772e-10
-0.000101418
-1.04225e-05
5.0998e-10
-1.66311e-05
4.50535e-10
-9.53093e-05
-0.000107125
2.06498e-05
-1.03363e-09
-0.000110373
1.4219e-05
-1.15975e-09
-0.000112257
9.39108e-06
-9.40798e-10
-0.000113319
6.06169e-06
-7.36272e-10
-0.000113918
3.90664e-06
-5.18822e-10
-0.000114267
2.59589e-06
-3.41517e-10
-0.00011449
1.86894e-06
-2.18432e-10
-0.000114657
1.54293e-06
-1.38819e-10
-0.000114809
1.4943e-06
-9.09098e-11
-0.000114971
1.63492e-06
-6.5395e-11
-0.000115159
1.88869e-06
-5.58053e-11
-0.000115376
2.16903e-06
-5.79012e-11
-0.000115614
2.35622e-06
-6.85742e-11
-0.000115837
2.27403e-06
-8.15417e-11
-0.000115961
1.66714e-06
-7.22027e-11
-0.000115824
1.84443e-07
-5.98958e-12
-0.00011513
-2.60796e-06
6.32476e-11
-0.000113405
-7.17709e-06
2.56851e-10
-0.000109962
-1.38658e-05
8.97322e-10
-2.25931e-05
1.2876e-09
-0.000104001
-0.000112178
2.49139e-05
-2.20677e-09
-0.000114124
1.61666e-05
-1.88552e-09
-0.000114843
1.01114e-05
-1.18314e-09
-0.000115008
6.22736e-06
-7.92851e-10
-0.000114961
3.86002e-06
-4.66607e-10
-0.000114851
2.48659e-06
-2.46416e-10
-0.000114733
1.75068e-06
-1.22169e-10
-0.000114618
1.42827e-06
-5.61879e-11
-0.000114505
1.38161e-06
-2.39848e-11
-0.000114391
1.52081e-06
-1.16847e-11
-0.000114277
1.77396e-06
-1.24187e-11
-0.000114169
2.0617e-06
-2.3792e-11
-0.000114085
2.27218e-06
-4.60149e-11
-0.000114044
2.23272e-06
-7.81781e-11
-0.000114053
1.67611e-06
-9.72895e-11
-0.000114068
2.0036e-07
-5.85715e-11
-0.000113923
-2.7534e-06
-3.17326e-11
-0.0001132
-7.89986e-06
1.41573e-10
-0.000111088
-1.59793e-05
1.544e-09
-2.73643e-05
3.27027e-09
-0.000106321
-0.000109673
2.70889e-05
-5.87015e-09
-0.000109463
1.59603e-05
-3.88054e-09
-0.000108529
9.17867e-06
-1.7959e-09
-0.000107575
5.2741e-06
-9.36723e-10
-0.000106807
3.09299e-06
-3.98089e-10
-0.000106232
1.91149e-06
-1.23251e-10
-0.000105792
1.31092e-06
-1.5136e-11
-0.000105425
1.06052e-06
2.04381e-11
-0.000105077
1.03388e-06
2.48509e-11
-0.000104713
1.15734e-06
1.49663e-11
-0.000104317
1.37777e-06
-3.51779e-12
-0.000103894
1.63902e-06
-3.00764e-11
-0.000103482
1.85944e-06
-6.60621e-11
-0.000103153
1.90404e-06
-1.14782e-10
-0.000103021
1.54432e-06
-1.51877e-10
-0.000103215
3.94797e-07
-7.80579e-11
-0.000103799
-2.17013e-06
9.27536e-11
-0.000104585
-7.11433e-06
4.66589e-10
-0.000104773
-1.57943e-05
3.73391e-09
-2.96993e-05
8.98728e-09
-0.000102447
-9.82446e-05
2.56965e-05
-9.97019e-09
-9.5074e-05
1.27937e-05
-4.05677e-09
-9.23121e-05
6.41759e-06
-8.25696e-10
-9.03503e-05
3.31262e-06
-3.13601e-10
-8.90482e-05
1.79084e-06
4.0707e-11
-8.81843e-05
1.04741e-06
1.65299e-10
-8.7573e-05
6.99494e-07
1.56513e-10
-8.70805e-05
5.67862e-07
1.28927e-10
-8.66146e-05
5.67937e-07
1.06991e-10
-8.61147e-05
6.57308e-07
9.15899e-11
-8.55467e-05
8.09684e-07
7.89331e-11
-8.49068e-05
9.99086e-07
6.29932e-11
-8.42331e-05
1.18572e-06
3.43488e-11
-8.36259e-05
1.29684e-06
-3.33266e-11
-8.32746e-05
1.19313e-06
-1.32254e-10
-8.34802e-05
6.00447e-07
-4.32737e-11
-8.46191e-05
-1.03139e-06
1.23935e-10
-8.7006e-05
-4.72688e-06
-4.64047e-10
-9.03082e-05
-1.24955e-05
3.29861e-09
-2.79553e-05
1.43553e-08
-9.20665e-05
-7.5031e-05
1.81479e-05
-1.24547e-08
-6.87167e-05
6.47389e-06
5.51989e-09
-6.48289e-05
2.52359e-06
6.18456e-09
-6.25883e-05
1.0694e-06
2.64448e-09
-6.1297e-05
4.98165e-07
1.36983e-09
-6.05175e-05
2.67124e-07
8.3237e-10
-5.99947e-05
1.76094e-07
5.24433e-10
-5.95777e-05
1.50539e-07
3.98192e-10
-5.9173e-05
1.62817e-07
3.83081e-10
-5.87186e-05
2.02466e-07
4.31133e-10
-5.81744e-05
2.64983e-07
5.1721e-10
-5.75227e-05
3.4674e-07
6.19506e-10
-5.67788e-05
4.41098e-07
6.9985e-10
-5.60149e-05
5.32349e-07
6.60156e-10
-5.54043e-05
5.8213e-07
3.75072e-10
-5.53052e-05
5.01414e-07
-8.97102e-11
-5.63009e-05
-3.40518e-08
-1.66445e-09
-5.94341e-05
-1.58598e-06
-7.68643e-09
-6.57975e-05
-6.12162e-06
-1.04401e-08
-1.93832e-05
1.55073e-08
-7.43851e-05
-3.40865e-05
-6.91333e-08
-2.76008e-05
-1.1779e-08
-2.50763e-05
-8.57514e-10
-2.4005e-05
-1.89192e-09
-2.35056e-05
-1.22988e-09
-2.32379e-05
-5.7854e-10
-2.30615e-05
-3.27948e-10
-2.29108e-05
-2.32957e-10
-2.27477e-05
-2.06835e-10
-2.2545e-05
-2.27718e-10
-2.22798e-05
-2.81852e-10
-2.19327e-05
-3.55785e-10
-2.14911e-05
-4.30404e-10
-2.09583e-05
-4.72049e-10
-2.03758e-05
-3.64469e-10
-1.98746e-05
2.08099e-10
-1.99094e-05
7.70142e-10
-2.14929e-05
-2.56211e-09
-2.76196e-05
5.07062e-09
8.74951e-08
-4.70902e-05
-1.97877e-05
1.43642e-06
-4.32824e-14
-2.08421e-05
1.0559e-06
3.78415e-14
-2.15795e-05
7.38404e-07
8.1062e-14
-2.20771e-05
4.98294e-07
1.0983e-13
-2.24084e-05
3.3172e-07
1.29154e-13
-2.26347e-05
2.26513e-07
1.42182e-13
-2.28038e-05
1.69228e-07
1.34089e-13
-2.29522e-05
1.48576e-07
1.17755e-13
-2.31082e-05
1.56123e-07
1.11136e-13
-2.32934e-05
1.8545e-07
1.11891e-13
-2.35237e-05
2.30537e-07
1.09917e-13
-2.38071e-05
2.83762e-07
1.04833e-13
-2.41404e-05
3.33694e-07
9.92546e-14
-2.45029e-05
3.62964e-07
9.13847e-14
-2.48492e-05
3.46785e-07
7.70502e-14
-2.51018e-05
2.53176e-07
5.41621e-14
-2.51489e-05
4.73451e-08
2.28054e-14
-2.4846e-05
-3.02974e-07
-1.72843e-14
-2.40403e-05
-8.06335e-07
-6.19436e-14
-1.43721e-06
-1.13018e-13
-2.26046e-05
-5.16384e-05
4.97615e-06
-8.93559e-14
-5.4259e-05
3.67483e-06
-6.27658e-16
-5.61127e-05
2.59081e-06
5.14956e-14
-5.73839e-05
1.76858e-06
8.48288e-14
-5.82464e-05
1.19349e-06
1.03722e-13
-5.88448e-05
8.24327e-07
1.2872e-13
-5.92917e-05
6.15714e-07
1.29315e-13
-5.96723e-05
5.28802e-07
1.12366e-13
-6.005e-05
5.33375e-07
1.03458e-13
-6.04701e-05
6.05225e-07
1.06126e-13
-6.09612e-05
7.21153e-07
1.0768e-13
-6.15307e-05
8.52868e-07
1.01487e-13
-6.2158e-05
9.60501e-07
8.96102e-14
-6.27822e-05
9.86723e-07
7.49709e-14
-6.3289e-05
8.53224e-07
5.87595e-14
-6.34986e-05
4.62763e-07
4.03217e-14
-6.31623e-05
-2.88466e-07
1.89133e-14
-6.19794e-05
-1.48465e-06
-4.17853e-15
-5.96374e-05
-3.1464e-06
-2.58329e-14
-5.18027e-06
-4.58822e-14
-5.58917e-05
-7.66808e-05
9.8638e-06
-6.49486e-14
-8.0216e-05
7.20955e-06
1.42269e-14
-8.26645e-05
5.03889e-06
5.53442e-14
-8.43145e-05
3.41814e-06
7.39498e-14
-8.54186e-05
2.29718e-06
6.50942e-14
-8.61754e-05
1.58083e-06
9.53931e-14
-8.67325e-05
1.17264e-06
1.09608e-13
-8.71969e-05
9.93014e-07
9.75576e-14
-8.76448e-05
9.81106e-07
9.53977e-14
-8.81283e-05
1.08859e-06
1.11335e-13
-8.8677e-05
1.26981e-06
1.24301e-13
-8.92946e-05
1.47037e-06
1.18738e-13
-8.99495e-05
1.61533e-06
9.59025e-14
-9.05612e-05
1.59847e-06
6.65791e-14
-9.09835e-05
1.27548e-06
3.78577e-14
-9.09873e-05
4.66672e-07
1.39543e-14
-9.02532e-05
-1.02227e-06
-7.4869e-15
-8.83846e-05
-3.35284e-06
-1.72267e-14
-8.49566e-05
-6.57388e-06
-2.37459e-14
-1.05177e-05
-2.77331e-14
-7.96187e-05
-9.51909e-05
1.53441e-05
-1.0903e-14
-9.89476e-05
1.09656e-05
5.32065e-14
-0.000101412
7.50297e-06
8.87763e-14
-0.000102991
4.99636e-06
1.08208e-13
-0.000104001
3.30636e-06
5.17032e-14
-0.000104666
2.24571e-06
7.2716e-14
-0.000105139
1.6455e-06
1.01118e-13
-0.000105522
1.3758e-06
9.13556e-14
-0.000105883
1.3421e-06
8.5124e-14
-0.000106267
1.47234e-06
1.04621e-13
-0.000106698
1.7008e-06
1.30842e-13
-0.000107178
1.95086e-06
1.27736e-13
-0.000107681
2.11744e-06
9.73572e-14
-0.000108132
2.05025e-06
5.51754e-14
-0.000108398
1.54092e-06
1.63473e-14
-0.000108252
3.20893e-07
-8.40907e-15
-0.000107358
-1.9157e-06
-1.6596e-14
-0.000105261
-5.45022e-06
-1.34956e-14
-0.000101416
-1.0418e-05
-1.29499e-14
-1.66249e-05
-2.0324e-14
-9.53084e-05
-0.000107124
2.06411e-05
1.75335e-14
-0.00011037
1.42102e-05
5.49446e-14
-0.000112254
9.38564e-06
9.15061e-14
-0.000113316
6.05848e-06
1.59162e-13
-0.000113916
3.90495e-06
7.40556e-14
-0.000114265
2.59512e-06
7.66152e-14
-0.000114489
1.86866e-06
1.21611e-13
-0.000114656
1.54286e-06
1.11894e-13
-0.000114808
1.49429e-06
8.66853e-14
-0.000114971
1.63486e-06
8.60145e-14
-0.000115158
1.88848e-06
1.02713e-13
-0.000115376
2.16855e-06
9.55226e-14
-0.000115614
2.35536e-06
6.19288e-14
-0.000115837
2.27268e-06
1.93304e-14
-0.000115961
1.6653e-06
-4.29592e-15
-0.000115823
1.82782e-07
-2.8127e-15
-0.000115129
-2.60977e-06
2.73641e-14
-0.000113402
-7.1769e-06
6.03617e-14
-0.00010996
-1.3859e-05
7.30311e-14
-2.2582e-05
6.14697e-14
-0.000104002
-0.000112175
2.48936e-05
3.66237e-14
-0.000114118
1.61512e-05
2.17482e-14
-0.000114838
1.01044e-05
2.76478e-14
-0.000115004
6.22408e-06
1.33693e-13
-0.000114959
3.85866e-06
6.36157e-14
-0.00011485
2.48619e-06
4.67057e-14
-0.000114732
1.75066e-06
1.2413e-13
-0.000114618
1.42836e-06
1.44764e-13
-0.000114505
1.3817e-06
1.13119e-13
-0.000114391
1.52083e-06
8.57293e-14
-0.000114276
1.77381e-06
7.8289e-14
-0.000114169
2.0613e-06
5.66465e-14
-0.000114085
2.27138e-06
2.06412e-14
-0.000114044
2.23135e-06
-3.10944e-15
-0.000114053
1.67404e-06
-8.31014e-16
-0.000114068
1.98327e-07
3.71472e-14
-0.000113922
-2.75642e-06
9.75431e-14
-0.000113197
-7.90119e-06
1.45367e-13
-0.000111086
-1.59692e-05
1.45235e-13
-2.73412e-05
1.0931e-13
-0.000106323
-0.000109666
2.7041e-05
9.16616e-14
-0.000109453
1.59344e-05
2.20073e-14
-0.000108522
9.1717e-06
7.2763e-14
-0.000107571
5.27217e-06
1.52431e-13
-0.000106806
3.0927e-06
1.06283e-13
-0.000106231
1.91175e-06
1.76428e-14
-0.000105792
1.31124e-06
6.98514e-14
-0.000105424
1.06075e-06
1.20454e-13
-0.000105076
1.03402e-06
1.12206e-13
-0.000104713
1.15736e-06
8.06448e-14
-0.000104317
1.37763e-06
5.58096e-14
-0.000103894
1.63865e-06
1.95801e-14
-0.000103482
1.85868e-06
-1.25347e-14
-0.000103153
1.90267e-06
-1.86719e-14
-0.000103021
1.5421e-06
7.31851e-15
-0.000103215
3.9213e-07
6.31471e-14
-0.000103797
-2.17424e-06
1.30157e-13
-0.00010458
-7.11749e-06
1.72646e-13
-0.000104769
-1.57769e-05
1.51765e-13
-2.96444e-05
1.07505e-13
-0.000102457
-9.82301e-05
2.56054e-05
1.24758e-13
-9.50634e-05
1.27637e-05
-6.49443e-14
-9.23085e-05
6.41598e-06
4.89733e-14
-9.035e-05
3.3133e-06
6.46815e-14
-8.90487e-05
1.79147e-06
1.34881e-13
-8.81848e-05
1.04796e-06
7.05082e-14
-8.75732e-05
6.9984e-07
6.36632e-14
-8.70804e-05
5.68049e-07
8.48778e-14
-8.66143e-05
5.68025e-07
7.93057e-14
-8.61141e-05
6.57322e-07
4.91095e-14
-8.55461e-05
8.09617e-07
9.07392e-15
-8.49062e-05
9.98902e-07
-2.87787e-14
-8.42329e-05
1.18534e-06
-4.93281e-14
-8.36263e-05
1.29607e-06
-4.02658e-14
-8.3276e-05
1.19165e-06
-1.34947e-15
-8.34821e-05
5.9823e-07
5.74822e-14
-8.46227e-05
-1.03356e-06
1.3637e-13
-8.70087e-05
-4.73192e-06
2.12907e-13
-9.03059e-05
-1.24764e-05
1.82978e-13
-2.78536e-05
1.20847e-13
-9.20822e-05
-7.50123e-05
1.80674e-05
1.00268e-13
-6.87242e-05
6.4811e-06
3.3519e-14
-6.48376e-05
2.53554e-06
2.2918e-13
-6.25947e-05
1.07304e-06
9.62694e-14
-6.13008e-05
4.98878e-07
1.16882e-13
-6.05193e-05
2.67364e-07
9.41186e-14
-5.99953e-05
1.76293e-07
7.84919e-14
-5.95776e-05
1.50788e-07
6.6543e-14
-5.91724e-05
1.63172e-07
4.42919e-14
-5.87176e-05
2.02981e-07
7.0975e-15
-5.81732e-05
2.65722e-07
-3.73489e-14
-5.75214e-05
3.47782e-07
-7.16878e-14
-5.67779e-05
4.42535e-07
-8.01057e-14
-5.60155e-05
5.34301e-07
-5.40051e-14
-5.5408e-05
5.84552e-07
-3.33754e-15
-5.53116e-05
5.01649e-07
6.20834e-14
-5.6316e-05
-3.07917e-08
2.00086e-13
-5.94606e-05
-1.595e-06
3.57297e-13
-6.58135e-05
-6.13395e-06
3.44381e-13
-1.93191e-05
3.38682e-13
-7.43325e-05
-3.40764e-05
-1.31298e-13
-2.7607e-05
-1.31916e-13
-2.50724e-05
1.98656e-13
-2.40012e-05
1.68305e-13
-2.35036e-05
1.38922e-13
-2.32368e-05
1.09972e-13
-2.30608e-05
8.15845e-14
-2.29103e-05
5.38307e-14
-2.27473e-05
2.16927e-14
-2.25445e-05
-1.68266e-14
-2.22791e-05
-5.31844e-14
-2.19317e-05
-7.30495e-14
-2.14896e-05
-6.12271e-14
-2.09557e-05
-2.17282e-14
-2.03716e-05
2.08796e-14
-1.98697e-05
8.23279e-14
-1.98997e-05
2.29018e-13
-2.14973e-05
4.35688e-13
-2.76262e-05
2.43584e-13
-7.00124e-14
-4.68577e-05
-1.97877e-05
1.43642e-06
-2.17163e-09
-2.08421e-05
1.0559e-06
-1.5207e-09
-2.15795e-05
7.38404e-07
-1.00808e-09
-2.20771e-05
4.98294e-07
-6.37638e-10
-2.24084e-05
3.3172e-07
-3.92437e-10
-2.26347e-05
2.26513e-07
-2.44771e-10
-2.28038e-05
1.69228e-07
-1.68038e-10
-2.29522e-05
1.48576e-07
-1.42064e-10
-2.31082e-05
1.56123e-07
-1.53183e-10
-2.32934e-05
1.8545e-07
-1.92719e-10
-2.35237e-05
2.30537e-07
-2.54563e-10
-2.38071e-05
2.83762e-07
-3.32269e-10
-2.41404e-05
3.33694e-07
-4.16054e-10
-2.45029e-05
3.62964e-07
-4.89702e-10
-2.48492e-05
3.46785e-07
-5.26323e-10
-2.51018e-05
2.53176e-07
-4.82448e-10
-2.51489e-05
4.73451e-08
-3.03567e-10
-2.4846e-05
-3.02974e-07
4.3834e-11
-2.40403e-05
-8.06335e-07
6.55439e-10
-1.43721e-06
1.57664e-09
-2.26046e-05
-5.16384e-05
4.97615e-06
1.93981e-09
-5.4259e-05
3.67483e-06
1.62005e-09
-5.61127e-05
2.59081e-06
1.28231e-09
-5.73839e-05
1.76858e-06
9.80861e-10
-5.82464e-05
1.19349e-06
7.34892e-10
-5.88448e-05
8.24327e-07
5.54019e-10
-5.92917e-05
6.15714e-07
4.37869e-10
-5.96723e-05
5.28802e-07
3.79062e-10