/*--------------------------------*- C++ -*----------------------------------*\
| =========                 |                                                 |
| \\      /  F ield         | OpenFOAM: The Open Source CFD Toolbox           |
|  \\    /   O peration     | Version:  2.4.0                                 |
|   \\  /    A nd           | Web:      www.OpenFOAM.org                      |
|    \\/     M anipulation  |                                                 |
\*---------------------------------------------------------------------------*/
FoamFile
{
    version     2.0;
    format      ascii;
    class       volVectorField;
    location    "3.7";
    object      U;
}
// * * * * * * * * * * * * * * * * * * * * * * * * * * * * * * * * * * * * * //

dimensions      [0 1 -1 0 0 0 0];

internalField   nonuniform List<vector> 
4800
(
(0.000306483 -0.000310092 -1.74911e-07)
(1.72144e-05 0.000157278 0.000217353)
(-0.00184532 0.000665211 0.000445238)
(-0.00483937 0.0010085 0.000614135)
(-0.00856832 0.00120331 0.000680062)
(-0.0126904 0.0012874 0.000622604)
(-0.0169219 0.00128835 0.000435461)
(-0.0210247 0.00122008 0.000119142)
(-0.0247884 0.00108995 -0.000320322)
(-0.0280359 0.000910066 -0.000870006)
(-0.000182762 -1.86233e-05 -0.000217083)
(-0.00248482 0.00239463 5.16775e-06)
(-0.00807109 0.00474823 0.000174222)
(-0.0159527 0.00644547 0.000275038)
(-0.0253845 0.00748053 0.00028948)
(-0.0356865 0.00794644 0.000201594)
(-0.0462176 0.00792993 4.66831e-06)
(-0.0563967 0.00749131 -0.000303688)
(-0.0657045 0.00668633 -0.00072217)
(-0.0737146 0.00560491 -0.00124424)
(-0.000779529 0.00197341 -0.000450462)
(-0.00521957 0.00810072 -0.000156839)
(-0.014312 0.0135563 1.31408e-05)
(-0.0263734 0.0175469 9.22987e-05)
(-0.0403998 0.0200312 8.92543e-05)
(-0.0555186 0.0211395 -4.86648e-06)
(-0.0708597 0.0210149 -0.000194375)
(-0.0855981 0.0197807 -0.000483133)
(-0.0989745 0.0175852 -0.000874312)
(-0.110352 0.0146797 -0.0013676)
(-0.00125842 0.00539396 -0.000608797)
(-0.00750258 0.0166201 -0.000228719)
(-0.0195589 0.0259032 -3.46814e-05)
(-0.0350336 0.0326018 4.66128e-05)
(-0.0526823 0.0367484 4.58976e-05)
(-0.0714975 0.0385305 -3.96794e-05)
(-0.0904531 0.0381338 -0.000212726)
(-0.108541 0.0357292 -0.000479719)
(-0.124792 0.0315605 -0.000850124)
(-0.138346 0.0260843 -0.00133236)
(-0.00158692 0.00991065 -0.000617075)
(-0.00913547 0.0273474 -0.000161915)
(-0.0233713 0.0409937 5.77699e-05)
(-0.0413331 0.0506459 0.000151658)
(-0.0615795 0.0565389 0.000166596)
(-0.0830076 0.0589534 0.000103261)
(-0.104484 0.058103 -4.18189e-05)
(-0.12486 0.05417 -0.000280647)
(-0.142964 0.0474583 -0.000632855)
(-0.157643 0.0386308 -0.0011225)
(-0.00175879 0.0151309 -0.000425598)
(-0.0100294 0.0395437 8.55274e-05)
(-0.0255009 0.0579311 0.000326507)
(-0.0448746 0.0707016 0.000440328)
(-0.0665871 0.0783874 0.000483467)
(-0.0894826 0.0813954 0.000457418)
(-0.112371 0.0799495 0.000354581)
(-0.134009 0.0741846 0.000153528)
(-0.15304 0.0643763 -0.000181175)
(-0.167893 0.0513087 -0.000704231)
(-0.00177413 0.0206294 -1.03092e-05)
(-0.0101485 0.0523509 0.000534645)
(-0.0258219 0.0756488 0.000789337)
(-0.0454183 0.0916056 0.000928277)
(-0.0673378 0.101099 0.00101159)
(-0.0904179 0.104683 0.0010395)
(-0.113468 0.102575 0.000997299)
(-0.135226 0.0947868 0.000850234)
(-0.154239 0.0814062 0.00054119)
(-0.168373 0.063068 -4.60194e-05)
(-0.0016402 0.0259776 0.000629232)
(-0.00950879 0.0648745 0.00118594)
(-0.0243367 0.0930042 0.00144547)
(-0.0429119 0.11208 0.00161311)
(-0.0636676 0.123323 0.00174778)
(-0.0854621 0.12745 0.00184787)
(-0.107147 0.124668 0.0018901)
(-0.127538 0.114804 0.0018244)
(-0.145317 0.0975486 0.0015713)
(-0.157753 0.072777 0.000897033)
(-0.00137703 0.0307744 0.00147074)
(-0.00819934 0.0762573 0.00201986)
(-0.0212246 0.108865 0.00227515)
(-0.0375886 0.130799 0.00247264)
(-0.0557857 0.143573 0.00266668)
(-0.0746667 0.148076 0.00285516)
(-0.0930908 0.144556 0.00300701)
(-0.109965 0.132699 0.00305623)
(-0.124494 0.111748 0.00291309)
(-0.133787 0.0799739 0.00213756)
(-0.00102431 0.0346935 0.00247163)
(-0.00640647 0.0857788 0.00299934)
(-0.0169001 0.122232 0.00324148)
(-0.0300963 0.146516 0.00346575)
(-0.0445259 0.160313 0.00372074)
(-0.058918 0.164645 0.00400873)
(-0.0719206 0.159853 0.00430052)
(-0.0821419 0.145614 0.00452617)
(-0.0892916 0.12104 0.00465379)
(-0.0923593 0.0834243 0.00405811)
(0.000311545 -0.000314533 -1.61152e-09)
(2.44516e-05 0.000151418 1.34441e-06)
(-0.00184155 0.000651225 2.01311e-06)
(-0.00483674 0.000988757 2.5864e-06)
(-0.00856682 0.00118039 2.929e-06)
(-0.0126898 0.00126293 3.07085e-06)
(-0.0169221 0.00126383 3.08028e-06)
(-0.0210258 0.00119686 2.95948e-06)
(-0.0247907 0.00106916 2.68797e-06)
(-0.0280393 0.000892333 2.24744e-06)
(-0.000175358 -2.58351e-05 -1.13307e-06)
(-0.00248175 0.00239268 3.1169e-07)
(-0.00807862 0.00473701 -1.17205e-06)
(-0.0159575 0.0064291 -1.85786e-06)
(-0.0253869 0.00746233 -2.20171e-06)
(-0.0356872 0.00792739 -2.41786e-06)
(-0.0462166 0.00791101 -2.42516e-06)
(-0.0563946 0.00747357 -2.25452e-06)
(-0.0657024 0.00667064 -1.97719e-06)
(-0.0737134 0.00559134 -1.70565e-06)
(-0.0007635 0.00196787 -1.95177e-06)
(-0.00520829 0.00810733 1.76272e-06)
(-0.0143189 0.0135594 8.40223e-08)
(-0.0263756 0.0175502 -7.07105e-08)
(-0.0403998 0.0200364 9.41391e-08)
(-0.0555183 0.0211457 8.80557e-08)
(-0.0708587 0.0210215 9.71547e-08)
(-0.0855968 0.0197875 1.4309e-07)
(-0.0989742 0.0175921 1.96349e-07)
(-0.110354 0.0146854 1.21122e-07)
(-0.00123541 0.00538911 -2.83528e-06)
(-0.00748622 0.0166241 2.48549e-06)
(-0.019568 0.0259023 -8.70692e-09)
(-0.0350355 0.0325991 -2.18619e-07)
(-0.0526812 0.0367462 6.77856e-08)
(-0.0714966 0.0385287 1.00664e-07)
(-0.0904515 0.0381324 1.32488e-07)
(-0.108539 0.0357288 2.15359e-07)
(-0.124792 0.0315623 3.71419e-07)
(-0.138351 0.0260864 3.27425e-07)
(-0.00155935 0.00990765 -3.46389e-06)
(-0.00911691 0.0273498 2.92525e-06)
(-0.023384 0.0409916 -3.30565e-07)
(-0.0413361 0.0506417 -7.19276e-07)
(-0.0615785 0.0565343 -4.35155e-07)
(-0.0830064 0.0589486 -4.1585e-07)
(-0.104482 0.0580984 -3.71515e-07)
(-0.124856 0.0541667 -2.18294e-07)
(-0.142962 0.0474596 2.34116e-07)
(-0.15765 0.0386342 4.58802e-07)
(-0.00172875 0.0151302 -3.75996e-06)
(-0.0100099 0.0395451 3.24275e-06)
(-0.0255159 0.05793 -4.31477e-07)
(-0.0448788 0.070699 -9.14391e-07)
(-0.0665864 0.0783841 -6.35053e-07)
(-0.0894815 0.0813917 -6.31811e-07)
(-0.112368 0.0799452 -6.18241e-07)
(-0.134001 0.0741809 -4.97681e-07)
(-0.153033 0.0643808 4.03056e-07)
(-0.167907 0.0513206 1.27559e-06)
(-0.00174395 0.0206307 -3.70842e-06)
(-0.0101295 0.0523511 3.33568e-06)
(-0.0258381 0.0756485 -4.60374e-07)
(-0.0454234 0.0916046 -9.99969e-07)
(-0.0673378 0.101097 -7.63704e-07)
(-0.0904176 0.104681 -7.93676e-07)
(-0.113466 0.102572 -8.80148e-07)
(-0.135213 0.0947819 -1.05576e-06)
(-0.15422 0.0814168 5.28584e-07)
(-0.168402 0.0631064 3.23926e-06)
(-0.00161171 0.0259806 -3.4721e-06)
(-0.0094911 0.0648736 3.19394e-06)
(-0.0243527 0.0930049 -4.21227e-07)
(-0.0429174 0.112081 -9.73022e-07)
(-0.0636684 0.123323 -7.96963e-07)
(-0.0854629 0.127449 -8.11617e-07)
(-0.107146 0.124663 -9.20384e-07)
(-0.127515 0.114788 -1.63352e-06)
(-0.145264 0.0975445 1.55934e-06)
(-0.157799 0.0728383 1.12753e-05)
(-0.00135218 0.0307793 -2.9054e-06)
(-0.00818408 0.076256 2.89128e-06)
(-0.0212391 0.108867 -2.92029e-07)
(-0.0375943 0.130803 -8.15615e-07)
(-0.0557876 0.143577 -7.49023e-07)
(-0.0746711 0.148079 -8.1188e-07)
(-0.0931017 0.144553 -1.09142e-06)
(-0.109947 0.132665 -3.82087e-06)
(-0.124388 0.111672 -1.13775e-06)
(-0.133835 0.0799435 2.53107e-05)
(-0.0010044 0.0346994 -2.10879e-06)
(-0.00639414 0.0857773 2.49566e-06)
(-0.0169114 0.122236 -4.99697e-08)
(-0.0301004 0.146524 -4.65138e-07)
(-0.0445272 0.160326 -4.94338e-07)
(-0.0589246 0.164668 -7.25282e-07)
(-0.0719538 0.159897 -1.54085e-06)
(-0.0821833 0.145679 -9.50913e-06)
(-0.0892016 0.121103 -2.2241e-05)
(-0.0924383 0.0835435 7.62977e-06)
(0.000311569 -0.000314509 -9.39322e-08)
(2.44901e-05 0.00015143 -1.38662e-06)
(-0.00184153 0.00065123 -2.03697e-06)
(-0.00483673 0.000988759 -2.60133e-06)
(-0.00856681 0.00118039 -2.93829e-06)
(-0.0126898 0.00126293 -3.07657e-06)
(-0.0169221 0.00126383 -3.08375e-06)
(-0.0210258 0.00119686 -2.96152e-06)
(-0.0247907 0.00106916 -2.68905e-06)
(-0.0280393 0.000892333 -2.24787e-06)
(-0.000175346 -2.57966e-05 1.09094e-06)
(-0.00248172 0.0023927 -3.41056e-07)
(-0.0080786 0.00473702 1.1519e-06)
(-0.0159574 0.00642911 1.84432e-06)
(-0.0253869 0.00746233 2.1929e-06)
(-0.0356872 0.00792739 2.41226e-06)
(-0.0462166 0.00791101 2.4217e-06)
(-0.0563946 0.00747357 2.25245e-06)
(-0.0657024 0.00667064 1.97607e-06)
(-0.0737134 0.00559134 1.70516e-06)
(-0.000763496 0.00196789 1.92798e-06)
(-0.00520828 0.00810734 -1.78296e-06)
(-0.0143189 0.0135594 -9.90894e-08)
(-0.0263756 0.0175502 5.99802e-08)
(-0.0403998 0.0200364 -1.01442e-07)
(-0.0555183 0.0211457 -9.28553e-08)
(-0.0708587 0.0210215 -1.00208e-07)
(-0.0855968 0.0197875 -1.44965e-07)
(-0.0989742 0.0175921 -1.97399e-07)
(-0.110354 0.0146854 -1.21592e-07)
(-0.00123541 0.00538913 2.82042e-06)
(-0.00748621 0.0166242 -2.49915e-06)
(-0.019568 0.0259023 -1.94187e-09)
(-0.0350355 0.0325991 2.10667e-07)
(-0.0526812 0.0367462 -7.33593e-08)
(-0.0714966 0.0385287 -1.044e-07)
(-0.0904515 0.0381324 -1.34895e-07)
(-0.108539 0.0357288 -2.16846e-07)
(-0.124792 0.0315623 -3.72236e-07)
(-0.138351 0.0260864 -3.27753e-07)
(-0.00155935 0.00990766 3.45459e-06)
(-0.00911691 0.0273499 -2.93435e-06)
(-0.023384 0.0409916 3.2325e-07)
(-0.0413361 0.0506417 7.13536e-07)
(-0.0615785 0.0565343 4.31003e-07)
(-0.0830064 0.0589486 4.13006e-07)
(-0.104482 0.0580984 3.69645e-07)
(-0.124856 0.0541667 2.17116e-07)
(-0.142962 0.0474596 -2.34777e-07)
(-0.15765 0.0386342 -4.59071e-07)
(-0.00172875 0.0151302 3.75424e-06)
(-0.0100099 0.0395451 -3.24858e-06)
(-0.0255159 0.05793 4.26685e-07)
(-0.0448788 0.070699 9.10405e-07)
(-0.0665864 0.0783841 6.32069e-07)
(-0.0894815 0.0813917 6.29735e-07)
(-0.112368 0.0799452 6.16861e-07)
(-0.134001 0.0741809 4.96796e-07)
(-0.153033 0.0643808 -4.03573e-07)
(-0.167907 0.0513206 -1.27583e-06)
(-0.00174395 0.0206307 3.70472e-06)
(-0.0101295 0.0523511 -3.33948e-06)
(-0.0258381 0.0756485 4.57197e-07)
(-0.0454234 0.0916046 9.9726e-07)
(-0.0673378 0.101097 7.61669e-07)
(-0.0904176 0.104681 7.92278e-07)
(-0.113466 0.102572 8.7923e-07)
(-0.135213 0.0947819 1.05517e-06)
(-0.15422 0.0814168 -5.28935e-07)
(-0.168402 0.0631064 -3.2394e-06)
(-0.00161171 0.0259806 3.46954e-06)
(-0.0094911 0.0648736 -3.19639e-06)
(-0.0243527 0.0930049 4.19165e-07)
(-0.0429174 0.112081 9.7125e-07)
(-0.0636684 0.123323 7.95668e-07)
(-0.0854629 0.127449 8.10766e-07)
(-0.107146 0.124663 9.19849e-07)
(-0.127515 0.114788 1.6332e-06)
(-0.145264 0.0975445 -1.55949e-06)
(-0.157799 0.0728383 -1.12753e-05)
(-0.00135218 0.0307793 2.90381e-06)
(-0.00818408 0.076256 -2.89284e-06)
(-0.0212391 0.108867 2.90703e-07)
(-0.0375943 0.130803 8.145e-07)
(-0.0557876 0.143577 7.48267e-07)
(-0.0746711 0.148079 8.11425e-07)
(-0.0931017 0.144553 1.09118e-06)
(-0.109947 0.132665 3.82085e-06)
(-0.124388 0.111672 1.13791e-06)
(-0.133835 0.0799435 -2.53104e-05)
(-0.0010044 0.0346994 2.10775e-06)
(-0.00639414 0.0857773 -2.49667e-06)
(-0.0169114 0.122236 4.91313e-08)
(-0.0301004 0.146524 4.64497e-07)
(-0.0445272 0.160326 4.93962e-07)
(-0.0589246 0.164668 7.2509e-07)
(-0.0719538 0.159897 1.54082e-06)
(-0.0821833 0.145679 9.50937e-06)
(-0.0892016 0.121103 2.22413e-05)
(-0.0924383 0.0835435 -7.62959e-06)
(0.000306607 -0.000309969 2.75355e-07)
(1.73907e-05 0.000157324 -0.000217308)
(-0.00184524 0.000665226 -0.000445213)
(-0.00483933 0.00100851 -0.000614119)
(-0.0085683 0.00120331 -0.000680053)
(-0.0126903 0.0012874 -0.000622598)
(-0.0169219 0.00128836 -0.000435458)
(-0.0210247 0.00122008 -0.00011914)
(-0.0247884 0.00108995 0.000320323)
(-0.0280359 0.000910066 0.000870007)
(-0.000182717 -1.8447e-05 0.000217128)
(-0.00248474 0.00239471 -5.13671e-06)
(-0.00807104 0.00474826 -0.000174201)
(-0.0159527 0.00644548 -0.000275023)
(-0.0253845 0.00748053 -0.00028947)
(-0.0356865 0.00794644 -0.000201588)
(-0.0462176 0.00792993 -4.66465e-06)
(-0.0563967 0.00749131 0.00030369)
(-0.0657045 0.00668633 0.000722171)
(-0.0737146 0.00560491 0.00124424)
(-0.000779515 0.00197349 0.000450487)
(-0.00521954 0.00810077 0.00015686)
(-0.014312 0.0135563 -1.31249e-05)
(-0.0263734 0.0175469 -9.22874e-05)
(-0.0403998 0.0200312 -8.92466e-05)
(-0.0555186 0.0211395 4.87155e-06)
(-0.0708597 0.0210149 0.000194379)
(-0.0855981 0.0197807 0.000483135)
(-0.0989745 0.0175852 0.000874313)
(-0.110352 0.0146797 0.0013676)
(-0.00125841 0.005394 0.000608812)
(-0.00750257 0.0166201 0.000228733)
(-0.0195589 0.0259033 3.46927e-05)
(-0.0350336 0.0326018 -4.66044e-05)
(-0.0526823 0.0367484 -4.58917e-05)
(-0.0714975 0.0385305 3.96834e-05)
(-0.0904531 0.0381338 0.000212729)
(-0.108541 0.0357292 0.00047972)
(-0.124792 0.0315605 0.000850125)
(-0.138346 0.0260843 0.00133236)
(-0.00158691 0.00991067 0.000617084)
(-0.00913546 0.0273475 0.000161924)
(-0.0233713 0.0409937 -5.77622e-05)
(-0.0413331 0.0506459 -0.000151652)
(-0.0615795 0.0565389 -0.000166591)
(-0.0830076 0.0589534 -0.000103258)
(-0.104484 0.058103 4.18209e-05)
(-0.12486 0.05417 0.000280648)
(-0.142964 0.0474583 0.000632856)
(-0.157643 0.0386308 0.0011225)
(-0.00175878 0.0151309 0.000425604)
(-0.0100294 0.0395437 -8.55213e-05)
(-0.0255009 0.0579311 -0.000326502)
(-0.0448746 0.0707016 -0.000440324)
(-0.0665871 0.0783874 -0.000483464)
(-0.0894826 0.0813954 -0.000457415)
(-0.112371 0.0799495 -0.000354579)
(-0.134009 0.0741846 -0.000153527)
(-0.15304 0.0643763 0.000181175)
(-0.167893 0.0513087 0.000704232)
(-0.00177413 0.0206295 1.03131e-05)
(-0.0101485 0.0523509 -0.000534641)
(-0.0258219 0.0756488 -0.000789334)
(-0.0454183 0.0916056 -0.000928274)
(-0.0673378 0.101099 -0.00101159)
(-0.0904179 0.104683 -0.0010395)
(-0.113468 0.102575 -0.000997298)
(-0.135226 0.0947868 -0.000850234)
(-0.154239 0.0814062 -0.00054119)
(-0.168373 0.063068 4.60196e-05)
(-0.0016402 0.0259776 -0.00062923)
(-0.00950879 0.0648745 -0.00118593)
(-0.0243367 0.0930042 -0.00144547)
(-0.0429119 0.11208 -0.00161311)
(-0.0636676 0.123323 -0.00174778)
(-0.0854621 0.12745 -0.00184787)
(-0.107147 0.124668 -0.0018901)
(-0.127538 0.114804 -0.0018244)
(-0.145317 0.0975486 -0.0015713)
(-0.157753 0.072777 -0.000897033)
(-0.00137703 0.0307744 -0.00147073)
(-0.00819933 0.0762573 -0.00201986)
(-0.0212246 0.108865 -0.00227515)
(-0.0375886 0.130799 -0.00247264)
(-0.0557857 0.143573 -0.00266668)
(-0.0746667 0.148076 -0.00285516)
(-0.0930908 0.144556 -0.00300701)
(-0.109965 0.132699 -0.00305623)
(-0.124494 0.111748 -0.00291309)
(-0.133787 0.0799739 -0.00213756)
(-0.00102431 0.0346935 -0.00247163)
(-0.00640647 0.0857788 -0.00299934)
(-0.0169001 0.122232 -0.00324148)
(-0.0300963 0.146516 -0.00346575)
(-0.0445259 0.160313 -0.00372074)
(-0.058918 0.164645 -0.00400873)
(-0.0719206 0.159853 -0.00430052)
(-0.0821419 0.145614 -0.00452617)
(-0.0892916 0.12104 -0.00465379)
(-0.0923593 0.0834243 -0.00405811)
(-0.0306542 0.000705921 -0.00150919)
(-0.0326293 0.000511732 -0.00221239)
(-0.0340373 0.000350445 -0.00295668)
(-0.0349983 0.000229932 -0.00372478)
(-0.0356375 0.000147979 -0.00450525)
(-0.0360642 9.78924e-05 -0.00529142)
(-0.0363655 7.24987e-05 -0.00608012)
(-0.0366081 6.6068e-05 -0.0068706)
(-0.036843 7.46831e-05 -0.00766396)
(-0.0371097 9.57433e-05 -0.00846294)
(-0.0374384 0.000127023 -0.00927193)
(-0.0378492 0.000165471 -0.0100971)
(-0.0383476 0.000205845 -0.0109465)
(-0.0389167 0.000239275 -0.0118298)
(-0.039506 0.000252058 -0.0127573)
(-0.0400189 0.00022531 -0.0137383)
(-0.0403033 0.000136829 -0.0147781)
(-0.0401494 -3.30721e-05 -0.0158744)
(-0.0393095 -0.000296296 -0.0170111)
(-0.0375443 -0.000640929 -0.0181561)
(-0.0801682 0.0043993 -0.00185617)
(-0.0850505 0.0032546 -0.00253812)
(-0.0885596 0.00229406 -0.00327159)
(-0.0909878 0.0015622 -0.00404125)
(-0.0926326 0.00104977 -0.00483529)
(-0.0937517 0.000722127 -0.00564548)
(-0.0945503 0.000539864 -0.00646662)
(-0.0951842 0.000469032 -0.00729608)
(-0.0957702 0.000483524 -0.00813334)
(-0.0963946 0.000562841 -0.00897971)
(-0.0971169 0.000687502 -0.00983823)
(-0.0979681 0.000833232 -0.0107135)
(-0.0989415 0.000964659 -0.0116117)
(-0.0999768 0.00102939 -0.0125397)
(-0.100939 0.000954171 -0.0135046)
(-0.101595 0.000646298 -0.0145124)
(-0.101602 5.03391e-06 -0.0155653)
(-0.100507 -0.00105227 -0.0166588)
(-0.097797 -0.002552 -0.0177789)
(-0.0929887 -0.00441082 -0.018898)
(-0.119351 0.0114778 -0.00195381)
(-0.126 0.00847303 -0.00261275)
(-0.13067 0.00597566 -0.0033269)
(-0.133841 0.00408389 -0.00408158)
(-0.135956 0.00276054 -0.0048648)
(-0.137378 0.00190889 -0.00566772)
(-0.138381 0.00142371 -0.0064844)
(-0.139163 0.00121498 -0.00731134)
(-0.139869 0.00121242 -0.00814711)
(-0.140598 0.00135935 -0.00899209)
(-0.141418 0.00160143 -0.00984817)
(-0.142356 0.00187312 -0.0107187)
(-0.143396 0.00208337 -0.0116081)
(-0.144453 0.00210281 -0.0125218)
(-0.145353 0.00175629 -0.0134655)
(-0.145802 0.000827862 -0.0144441)
(-0.14536 -0.000911878 -0.0154606)
(-0.143443 -0.00364711 -0.0165133)
(-0.139362 -0.00742101 -0.0175927)
(-0.132443 -0.0120209 -0.0186782)
(-0.148672 0.0201001 -0.00192109)
(-0.155904 0.0146042 -0.00258643)
(-0.160706 0.0101497 -0.00330779)
(-0.163798 0.00685185 -0.00406939)
(-0.165764 0.00458669 -0.00485845)
(-0.167033 0.00314552 -0.00566592)
(-0.167896 0.00232418 -0.00648582)
(-0.168549 0.00195751 -0.00731458)
(-0.169123 0.00192087 -0.00815049)
(-0.169706 0.00211624 -0.00899329)
(-0.170352 0.00245191 -0.00984401)
(-0.171086 0.00281968 -0.0107047)
(-0.171892 0.0030714 -0.0115786)
(-0.172695 0.00299743 -0.0124696)
(-0.173339 0.0023124 -0.0133828)
(-0.173545 0.000658811 -0.0143239)
(-0.172871 -0.0023543 -0.0152986)
(-0.17068 -0.00705982 -0.016311)
(-0.166144 -0.0135726 -0.0173605)
(-0.158333 -0.0215716 -0.0184374)
(-0.168095 0.029024 -0.00175072)
(-0.174656 0.0204867 -0.0024579)
(-0.178507 0.0138477 -0.00321612)
(-0.180692 0.00912025 -0.0040078)
(-0.181915 0.0059781 -0.00481954)
(-0.182613 0.00402781 -0.00564312)
(-0.183036 0.00293141 -0.00647378)
(-0.183329 0.00243731 -0.00730887)
(-0.183572 0.00236737 -0.00814708)
(-0.183816 0.00258896 -0.008988)
(-0.184093 0.00298345 -0.00983186)
(-0.184418 0.00341401 -0.0106795)
(-0.184791 0.00369283 -0.0115324)
(-0.185182 0.00354913 -0.0123932)
(-0.185507 0.00260238 -0.013266)
(-0.185586 0.000352563 -0.0141574)
(-0.185072 -0.00378822 -0.0150772)
(-0.183369 -0.0103856 -0.016038)
(-0.179543 -0.0197616 -0.0170529)
(-0.172291 -0.0316197 -0.0181323)
(-0.177207 0.0370225 -0.00143556)
(-0.181693 0.0249476 -0.00223472)
(-0.183475 0.0161363 -0.00306471)
(-0.184003 0.0102213 -0.00391006)
(-0.184015 0.00648198 -0.00475932)
(-0.183857 0.00425073 -0.00560793)
(-0.183666 0.00303039 -0.00645454)
(-0.183479 0.00248736 -0.00729881)
(-0.183299 0.00240492 -0.00814069)
(-0.183118 0.00263412 -0.00897996)
(-0.182933 0.00305029 -0.00981622)
(-0.182751 0.00351341 -0.0106489)
(-0.182591 0.0038284 -0.0114776)
(-0.182486 0.00370258 -0.0123028)
(-0.182466 0.0027008 -0.0131269)
(-0.182526 0.000205484 -0.0139566)
(-0.182532 -0.00459232 -0.0148056)
(-0.182079 -0.012606 -0.0156959)
(-0.180249 -0.0246115 -0.0166595)
(-0.175239 -0.0406718 -0.0177464)
(-0.175063 0.0425985 -0.000996014)
(-0.175817 0.0266543 -0.00195599)
(-0.174468 0.016113 -0.00289271)
(-0.172823 0.00962967 -0.00380851)
(-0.171425 0.00582016 -0.00470162)
(-0.170368 0.00367567 -0.00557674)
(-0.169581 0.00255329 -0.006439)
(-0.168957 0.00207157 -0.00729178)
(-0.168402 0.00200803 -0.00813678)
(-0.167842 0.00222491 -0.00897421)
(-0.167237 0.00261716 -0.00980294)
(-0.166573 0.00307102 -0.0106208)
(-0.165884 0.00342357 -0.011425)
(-0.165256 0.00341492 -0.012213)
(-0.164841 0.0026257 -0.012984)
(-0.164853 0.000393614 -0.0137423)
(-0.165489 -0.00427672 -0.0145037)
(-0.166765 -0.0127326 -0.0152985)
(-0.168119 -0.0265551 -0.016181)
(-0.167297 -0.04689 -0.0172738)
(-0.159666 0.0435813 -0.000489742)
(-0.154744 0.0240064 -0.00169455)
(-0.149597 0.0130281 -0.00276015)
(-0.145842 0.00712934 -0.00374663)
(-0.143318 0.00401896 -0.00467496)
(-0.141662 0.00241251 -0.00556714)
(-0.140541 0.00162683 -0.00643778)
(-0.139699 0.00131263 -0.00729435)
(-0.138959 0.00129183 -0.00814004)
(-0.138204 0.00146819 -0.00897504)
(-0.137356 0.0017774 -0.00979723)
(-0.136383 0.00215371 -0.0106026)
(-0.135307 0.00249882 -0.0113854)
(-0.134229 0.00264122 -0.0121395)
(-0.133373 0.00227074 -0.0128588)
(-0.133132 0.000822878 -0.0135425)
(-0.134061 -0.00271198 -0.0142056)
(-0.13685 -0.0100166 -0.0148812)
(-0.141984 -0.0237909 -0.0156394)
(-0.147524 -0.0476905 -0.0167157)
(-0.12659 0.0374512 -0.000207635)
(-0.114272 0.0160938 -0.00168424)
(-0.106064 0.00711611 -0.00279778)
(-0.101479 0.00330948 -0.0037918)
(-0.0988625 0.00164816 -0.0047128)
(-0.0973213 0.000913794 -0.00559547)
(-0.096348 0.000599218 -0.0064593)
(-0.0956384 0.000494594 -0.00731188)
(-0.0950082 0.000513114 -0.00815525)
(-0.0943387 0.000617477 -0.00898825)
(-0.0935498 0.000788534 -0.00980708)
(-0.0925928 0.00100919 -0.0106055)
(-0.0914597 0.00125105 -0.0113746)
(-0.0902086 0.00145472 -0.012103)
(-0.0890198 0.00148928 -0.0127774)
(-0.0882865 0.00106041 -0.0133865)
(-0.0886946 -0.000512486 -0.0139384)
(-0.0915564 -0.00484922 -0.0144384)
(-0.0993548 -0.0155165 -0.0149307)
(-0.113178 -0.0405355 -0.0158109)
(-0.0644282 0.0229486 -0.000858282)
(-0.0480685 0.00661708 -0.00232716)
(-0.0413629 0.00201801 -0.00308087)
(-0.038932 0.000648546 -0.00382924)
(-0.0378766 0.000223462 -0.00459399)
(-0.0373375 9.32225e-05 -0.00537163)
(-0.0370162 5.8274e-05 -0.00615991)
(-0.036773 5.76109e-05 -0.00695364)
(-0.0365337 7.42837e-05 -0.0077478)
(-0.0362495 0.000104945 -0.00853737)
(-0.0358814 0.00015037 -0.00931613)
(-0.035395 0.000212464 -0.0100755)
(-0.0347624 0.000292653 -0.0108032)
(-0.0339704 0.000388597 -0.0114815)
(-0.0330417 0.000483822 -0.012085)
(-0.0320873 0.000515964 -0.0125782)
(-0.0314504 0.000260442 -0.0129134)
(-0.0320934 -0.0011392 -0.0130541)
(-0.037707 -0.00641021 -0.0128796)
(-0.0564038 -0.0256845 -0.0130218)
(-0.0306579 0.000691389 1.69158e-06)
(-0.0326324 0.00050046 1.18466e-06)
(-0.0340395 0.000342116 7.85397e-07)
(-0.0349997 0.000223983 4.96862e-07)
(-0.0356383 0.000143803 3.05869e-07)
(-0.0360646 9.49257e-05 1.90834e-07)
(-0.0363656 7.02618e-05 1.31032e-07)
(-0.036608 6.41745e-05 1.10761e-07)
(-0.0368427 7.2831e-05 1.19411e-07)
(-0.0371093 9.37061e-05 1.50222e-07)
(-0.0374379 0.000124649 1.98411e-07)
(-0.0378486 0.000162704 2.58949e-07)
(-0.038347 0.000202753 3.24225e-07)
(-0.0389161 0.00023611 3.81609e-07)
(-0.0395055 0.000249316 4.1015e-07)
(-0.0400188 0.000223787 3.75979e-07)
(-0.040304 0.000137595 2.36637e-07)
(-0.0401514 -2.88256e-05 -3.39833e-08)
(-0.0393132 -0.000287307 -5.10421e-07)
(-0.0375498 -0.000626452 -1.22804e-06)
(-0.0801672 0.00438727 -1.50877e-06)
(-0.0850489 0.00324474 -1.25994e-06)
(-0.0885576 0.00228652 -9.97195e-07)
(-0.0909858 0.00155669 -7.62699e-07)
(-0.0926308 0.00104585 -5.71364e-07)
(-0.0937503 0.000719376 -4.30666e-07)
(-0.0945492 0.000537871 -3.40324e-07)
(-0.0951835 0.000467462 -2.9461e-07)
(-0.0957699 0.000482107 -2.85388e-07)
(-0.0963944 0.000561371 -3.03148e-07)
(-0.0971167 0.000685824 -3.36351e-07)
(-0.0979678 0.000831254 -3.6975e-07)
(-0.0989408 0.000962373 -3.8254e-07)
(-0.0999753 0.00102692 -3.47132e-07)
(-0.100936 0.000951836 -2.29567e-07)
(-0.101592 0.000644671 5.71908e-09)
(-0.101597 4.9313e-06 3.82041e-07)
(-0.100502 -0.00104985 8.90621e-07)
(-0.0977925 -0.00254599 1.49998e-06)
(-0.092986 -0.00440115 2.07321e-06)
(-0.119353 0.0114798 -1.85212e-07)
(-0.126 0.00847342 -3.23582e-07)
(-0.13067 0.00597562 -3.55459e-07)
(-0.133839 0.00408377 -3.38444e-07)
(-0.135954 0.00276053 -2.89668e-07)
(-0.137377 0.00190905 -2.31726e-07)
(-0.13838 0.00142405 -1.79081e-07)
(-0.139162 0.00121551 -1.3739e-07)
(-0.139868 0.00121314 -1.07358e-07)
(-0.140598 0.00136024 -8.6957e-08)
(-0.141417 0.00160248 -7.27155e-08)
(-0.142356 0.00187424 -6.02335e-08)
(-0.143395 0.00208443 -4.42478e-08)
(-0.144452 0.00210358 -1.8225e-08)
(-0.145352 0.00175654 2.65444e-08)
(-0.1458 0.000827315 9.73521e-08)
(-0.145357 -0.000913477 1.90158e-07)
(-0.14344 -0.00364972 2.9887e-07)
(-0.139361 -0.00742448 4.10885e-07)
(-0.132445 -0.0120268 3.49782e-07)
(-0.148677 0.0200966 -2.95145e-07)
(-0.155905 0.0146002 -4.76651e-07)
(-0.160705 0.0101471 -4.7412e-07)
(-0.163796 0.00685043 -4.21985e-07)
(-0.165762 0.00458613 -3.36315e-07)
(-0.167031 0.00314551 -2.49263e-07)
(-0.167894 0.00232447 -1.76858e-07)
(-0.168548 0.00195793 -1.21947e-07)
(-0.169122 0.00192135 -8.28629e-08)
(-0.169705 0.00211672 -5.64468e-08)
(-0.170352 0.00245235 -3.94454e-08)
(-0.171086 0.00282002 -2.89315e-08)
(-0.171891 0.00307155 -2.21286e-08)
(-0.172694 0.00299728 -1.46314e-08)
(-0.173338 0.00231192 4.62673e-09)
(-0.173543 0.000658087 4.78188e-08)
(-0.172869 -0.00235509 1.01518e-07)
(-0.170677 -0.00705979 2.02811e-07)
(-0.166143 -0.0135702 3.96639e-07)
(-0.158339 -0.0215687 3.50401e-07)
(-0.168103 0.029015 -8.03939e-07)
(-0.174655 0.0204791 -9.02008e-07)
(-0.178504 0.0138441 -7.31685e-07)
(-0.180688 0.00911889 -5.72551e-07)
(-0.181912 0.00597805 -4.03486e-07)
(-0.182611 0.00402836 -2.65579e-07)
(-0.183035 0.00293213 -1.69807e-07)
(-0.183327 0.002438 -1.07891e-07)
(-0.183571 0.00236796 -7.0644e-08)
(-0.183816 0.00258942 -5.0794e-08)
(-0.184092 0.00298378 -4.33256e-08)
(-0.184417 0.00341417 -4.49613e-08)
(-0.18479 0.00369278 -5.32882e-08)
(-0.185181 0.00354882 -6.34058e-08)
(-0.185506 0.00260183 -5.61634e-08)
(-0.185584 0.000352022 -4.66332e-09)
(-0.185068 -0.00378827 4.92106e-08)
(-0.183363 -0.0103834 1.99817e-07)
(-0.17954 -0.019753 6.97971e-07)
(-0.172301 -0.0316067 1.00151e-06)
(-0.177223 0.0370045 -1.71637e-06)
(-0.181688 0.0249354 -1.46652e-06)
(-0.183468 0.0161326 -9.20226e-07)
(-0.183997 0.0102211 -6.16578e-07)
(-0.184011 0.00648311 -3.62886e-07)
(-0.183855 0.00425218 -1.91636e-07)
(-0.183664 0.00303169 -9.4935e-08)
(-0.183478 0.00248839 -4.35969e-08)
(-0.183298 0.00240571 -1.85711e-08)
(-0.183117 0.00263472 -9.01954e-09)
(-0.182933 0.00305074 -9.5995e-09)
(-0.182751 0.00351373 -1.84613e-08)
(-0.182591 0.00382854 -3.57729e-08)
(-0.182485 0.00370247 -6.08128e-08)
(-0.182465 0.00270044 -7.56774e-08)
(-0.182524 0.000205193 -4.55342e-08)
(-0.182527 -0.00459175 -2.4614e-08)
(-0.182068 -0.0126021 1.10215e-07)
(-0.180238 -0.0245951 1.20099e-06)
(-0.175255 -0.0406441 2.54362e-06)
(-0.175095 0.0425736 -4.56563e-06)
(-0.175802 0.0266462 -3.01818e-06)
(-0.174453 0.0161167 -1.39677e-06)
(-0.172814 0.009634 -7.28461e-07)
(-0.17142 0.00582371 -3.09559e-07)
(-0.170365 0.00367829 -9.58643e-08)
(-0.16958 0.00255509 -1.17304e-08)
(-0.168957 0.00207285 1.59816e-08)
(-0.168401 0.00200902 1.94116e-08)
(-0.167842 0.00222579 1.1705e-08)
(-0.167236 0.00261803 -2.69456e-09)
(-0.166573 0.0030719 -2.33771e-08)
(-0.165884 0.00342439 -5.13917e-08)
(-0.165255 0.00341548 -8.92951e-08)
(-0.16484 0.0026257 -1.18128e-07)
(-0.164851 0.000393058 -6.06717e-08)
(-0.165482 -0.00427823 7.22303e-08)
(-0.166745 -0.0127351 3.63021e-07)
(-0.168092 -0.0265436 2.90425e-06)
(-0.167329 -0.0468543 6.99016e-06)
(-0.159726 0.04354 -7.7545e-06)
(-0.154712 0.0240166 -3.1553e-06)
(-0.149578 0.0130498 -6.42184e-07)
(-0.145837 0.00714165 -2.43876e-07)
(-0.143316 0.00402525 3.17612e-08)
(-0.141662 0.00241592 1.28612e-07)
(-0.14054 0.00162879 1.21772e-07)
(-0.139698 0.00131398 1.00334e-07)
(-0.138959 0.00129307 8.32711e-08)
(-0.138203 0.00146959 7.12726e-08)
(-0.137356 0.00177911 6.13997e-08)
(-0.136383 0.0021558 4.89708e-08)
(-0.135307 0.00250118 2.66725e-08)
(-0.134229 0.00264343 -2.59571e-08)
(-0.133373 0.0022719 -1.02869e-07)
(-0.133132 0.00082146 -3.36156e-08)
(-0.13406 -0.00272048 9.64961e-08)
(-0.136829 -0.0100391 -3.6077e-07)
(-0.141938 -0.0238041 2.56573e-06)
(-0.147584 -0.0476344 1.11653e-05)
(-0.126664 0.0372541 -9.6869e-06)
(-0.114203 0.0160341 4.29328e-06)
(-0.106053 0.00710502 4.81041e-06)
(-0.101488 0.00330226 2.05689e-06)
(-0.0988677 0.00164279 1.0655e-06)
(-0.0973238 0.000910443 6.47461e-07)
(-0.0963492 0.000597013 4.07939e-07)
(-0.0956387 0.000492944 3.09744e-07)
(-0.095008 0.000511677 2.97976e-07)
(-0.0943381 0.00061602 3.35324e-07)
(-0.093549 0.000786908 4.0224e-07)
(-0.0925923 0.00100734 4.81777e-07)
(-0.0914599 0.00124907 5.44262e-07)
(-0.0902101 0.00145297 5.13414e-07)
(-0.0890233 0.00148852 2.91724e-07)
(-0.0882952 0.00106162 -6.97158e-08)
(-0.0887136 -0.000509183 -1.2944e-06)
(-0.0915527 -0.00484193 -5.97805e-06)
(-0.0992645 -0.015452 -8.1198e-06)
(-0.11323 -0.0402791 1.20615e-05)
(-0.064471 0.0228034 -5.38513e-05)
(-0.0479095 0.00654807 -9.17531e-06)
(-0.0413178 0.00199018 -6.67816e-07)
(-0.0389276 0.000632828 -1.47357e-06)
(-0.0378735 0.0002143 -9.57922e-07)
(-0.0373353 8.80585e-05 -4.50581e-07)
(-0.0370153 5.51217e-05 -2.55402e-07)
(-0.0367726 5.53084e-05 -1.81429e-07)
(-0.0365336 7.21878e-05 -1.61104e-07)
(-0.0362496 0.000102667 -1.774e-07)
(-0.0358816 0.000147673 -2.19597e-07)
(-0.0353953 0.000209249 -2.77202e-07)
(-0.0347627 0.000289052 -3.35315e-07)
(-0.0339703 0.000385198 -3.67721e-07)
(-0.0330406 0.000481975 -2.83884e-07)
(-0.0320863 0.000517907 1.62171e-07)
(-0.0314528 0.000269785 6.00083e-07)
(-0.0320515 -0.00111558 -1.99544e-06)
(-0.0374909 -0.00633603 3.94994e-06)
(-0.0563904 -0.0254895 6.8154e-05)
(-0.0306579 0.000691389 -1.69163e-06)
(-0.0326324 0.00050046 -1.18453e-06)
(-0.0340395 0.000342116 -7.85194e-07)
(-0.0349997 0.000223983 -4.96619e-07)
(-0.0356383 0.000143803 -3.05604e-07)
(-0.0360646 9.49257e-05 -1.90568e-07)
(-0.0363656 7.02618e-05 -1.30802e-07)
(-0.036608 6.41745e-05 -1.1058e-07)
(-0.0368427 7.2831e-05 -1.19246e-07)
(-0.0371093 9.37061e-05 -1.5004e-07)
(-0.0374379 0.000124649 -1.98214e-07)
(-0.0378486 0.000162704 -2.58746e-07)
(-0.038347 0.000202753 -3.24014e-07)
(-0.0389161 0.00023611 -3.81385e-07)
(-0.0395055 0.000249316 -4.09919e-07)
(-0.0400188 0.000223787 -3.7576e-07)
(-0.040304 0.000137595 -2.36445e-07)
(-0.0401514 -2.88256e-05 3.41305e-08)
(-0.0393132 -0.000287307 5.10503e-07)
(-0.0375498 -0.000626452 1.22804e-06)
(-0.0801672 0.00438727 1.50866e-06)
(-0.0850489 0.00324474 1.26002e-06)
(-0.0885576 0.00228652 9.97379e-07)
(-0.0909858 0.00155669 7.62943e-07)