/*--------------------------------*- C++ -*----------------------------------*\
| =========                 |                                                 |
| \\      /  F ield         | OpenFOAM: The Open Source CFD Toolbox           |
|  \\    /   O peration     | Version:  2.4.0                                 |
|   \\  /    A nd           | Web:      www.OpenFOAM.org                      |
|    \\/     M anipulation  |                                                 |
\*---------------------------------------------------------------------------*/
FoamFile
{
    version     2.0;
    format      ascii;
    class       volScalarField;
    location    "0.105";
    object      T;
}
// * * * * * * * * * * * * * * * * * * * * * * * * * * * * * * * * * * * * * //

dimensions      [0 0 0 1 0 0 0];

internalField   nonuniform List<scalar> 
1600
(
98.642
95.9417
93.2883
90.7127
88.2456
85.917
83.7561
81.7915
80.0502
78.5585
77.3408
76.4203
75.8181
75.5537
75.6443
76.1053
76.9496
78.1877
79.8279
81.8758
84.3348
87.2054
90.486
94.1724
98.2577
102.733
107.587
112.806
118.374
124.273
130.483
136.981
143.744
150.745
157.956
165.348
172.891
180.551
188.297
196.093
98.6424
95.9429
93.2902
90.7154
88.249
85.9211
83.7611
81.7972
80.0568
78.5659
77.3492
76.4296
75.8285
75.5652
75.6571
76.1193
76.9649
78.2043
79.8457
81.8949
84.3549
87.2265
90.5078
94.1946
98.2802
102.755
107.609
112.827
118.394
124.292
130.5
136.997
143.758
150.757
157.967
165.357
172.898
180.556
188.3
196.094
98.6432
95.9452
93.294
90.7207
88.2558
85.9295
83.7709
81.8086
80.0699
78.5807
77.3659
76.4482
75.8492
75.5881
75.6823
76.1469
76.9949
78.2368
79.8807
81.9321
84.3943
87.2678
90.5507
94.2386
98.3248
102.8
107.653
112.87
118.436
124.331
130.536
137.03
143.787
150.783
157.988
165.375
172.911
180.566
188.305
196.096
98.6444
95.9487
93.2999
90.7289
88.2664
85.9423
83.7862
81.8263
80.09
78.6035
77.3913
76.4766
75.8806
75.6226
75.7201
76.1881
77.0396
78.2849
79.9322
81.9869
84.4521
87.3283
90.6134
94.303
98.3901
102.866
107.718
112.934
118.497
124.389
130.59
137.079
143.832
150.821
158.021
165.402
172.932
180.581
188.314
196.099
98.646
95.9535
93.308
90.7403
88.281
85.9601
83.8072
81.8506
80.1177
78.6347
77.4261
76.5151
75.9229
75.669
75.7706
76.2429
77.0988
78.3485
80
82.0589
84.5279
87.4074
90.6954
94.3871
98.4756
102.952
107.803
113.017
118.577
124.465
130.662
137.145
143.891
150.873
158.065
165.438
172.961
180.601
188.326
196.103
98.6482
95.9599
93.3186
90.7551
88.2999
85.9832
83.8344
81.882
80.1533
78.6746
77.4705
76.564
75.9765
75.7274
75.834
76.3114
77.1723
78.4272
80.0837
82.1474
84.6209
87.5045
90.7958
94.4902
98.5803
103.057
107.908
113.12
118.676
124.56
130.751
137.226
143.964
150.938
158.12
165.483
172.996
180.626
188.341
196.108
98.6508
95.9678
93.3318
90.7735
88.3235
86.0119
83.8682
81.9209
80.1974
78.7239
77.525
76.6238
76.0418
75.7983
75.9105
76.3936
77.2603
78.5208
80.183
82.2521
84.7307
87.6188
90.914
94.6113
98.7035
103.181
108.031
113.241
118.794
124.672
130.856
137.323
144.051
151.015
158.186
165.537
173.038
180.656
188.359
196.114
98.6541
95.9775
93.348
90.796
88.3522
86.0469
83.9094
81.9681
80.2507
78.7831
77.5903
76.6953
76.1193
75.882
76.0004
76.4898
77.3627
78.6294
80.2977
82.3725
84.8565
87.7495
91.0488
94.7495
98.8438
103.322
108.172
113.379
118.928
124.801
130.977
137.435
144.152
151.104
158.262
165.6
173.087
180.691
188.38
196.121
98.658
95.9891
93.3673
90.823
88.3867
86.0887
83.9584
82.0243
80.3138
78.8532
77.6672
76.779
76.2098
75.9792
76.1043
76.6003
77.4798
78.753
80.4274
82.5082
84.9977
87.8957
91.1993
94.9034
99
103.479
108.328
113.534
119.078
124.945
131.113
137.561
144.266
151.204
158.348
165.671
173.142
180.731
188.404
196.129
98.6626
96.0029
93.3903
90.8549
88.4274
86.138
84.0162
82.0903
80.3878
78.935
77.7567
76.8759
76.3141
76.0906
76.2228
76.7256
77.6118
78.8914
80.5721
82.6587
85.1536
88.0564
91.3642
95.0715
99.1703
103.65
108.499
113.702
119.242
125.102
131.262
137.699
144.392
151.315
158.444
165.75
173.203
180.774
188.43
196.138
98.668
96.0191
93.4171
90.8922
88.475
86.1957
84.0835
82.167
80.4737
79.0296
77.8597
76.9871
76.4331
76.2171
76.3565
76.8663
77.7591
79.045
80.7316
82.8237
85.3235
88.2307
91.5422
95.2523
99.353
103.834
108.682
113.882
119.418
125.272
131.422
137.849
144.528
151.437
158.548
165.836
173.271
180.823
188.459
196.147
98.6743
96.0379
93.4483
90.9356
88.5303
86.2625
84.1614
82.2556
80.5725
79.1382
77.9776
77.1137
76.568
76.3599
76.5067
77.0233
77.9225
79.2142
80.9061
83.003
85.507
88.4178
91.7322
95.4444
99.5463
104.027
108.874
114.072
119.604
125.451
131.593
138.008
144.674
151.567
158.66
165.929
173.343
180.875
188.491
196.158
98.6816
96.0596
93.4844
90.9857
88.5941
86.3394
84.251
82.3573
80.6857
79.2622
78.1117
77.2573
76.7203
76.5203
76.6744
77.1976
78.1027
79.3997
81.0961
83.1968
85.7039
88.6172
91.9333
95.6467
99.7489
104.229
109.075
114.27
119.797
125.638
131.771
138.176
144.828
151.704
158.78
166.028
173.421
180.93
188.524
196.169
98.69
96.0846
93.5258
91.0432
88.6672
86.4276
84.3536
82.4735
80.8147
79.4032
78.2638
77.4195
76.8917
76.6999
76.8612
77.3908
78.3012
79.6026
81.3025
83.4058
85.9148
88.8291
92.1456
95.8587
99.9599
104.439
109.281
114.473
119.996
125.83
131.955
138.349
144.988
151.849
158.905
166.133
173.504
180.989
188.56
196.18
98.6995
96.1132
93.5732
91.109
88.7507
86.5282
84.4704
82.6057
80.9612
79.5629
78.4355
77.6022
77.0841
76.9006
77.0692
77.6047
78.5198
79.8247
81.527
83.6316
86.141
89.0548
92.37
96.081
100.18
104.655
109.494
114.681
120.199
126.027
132.144
138.527
145.153
151.998
159.036
166.242
173.59
181.052
188.597
196.193
98.7104
96.1458
93.6272
91.1838
88.8457
86.6425
84.6031
82.7556
81.127
79.7434
78.6292
77.8076
77.2997
77.1249
77.3005
77.8416
78.7607
80.0682
81.7717
83.8763
86.3845
89.296
92.6082
96.3155
100.41
104.88
109.714
114.896
120.406
126.227
132.335
138.708
145.322
152.151
159.171
166.357
173.681
181.117
188.637
196.206
98.7228
96.1828
93.6884
91.2687
88.9535
86.7721
84.7533
82.9251
81.3143
79.9468
78.8471
78.0381
77.5411
77.3752
77.558
78.1042
79.0268
80.336
82.0396
84.1428
86.6483
89.556
92.8632
96.5648
100.653
105.117
109.943
115.117
120.62
126.432
132.53
138.893
145.494
152.308
159.31
166.475
173.775
181.185
188.678
196.22
98.7368
96.2248
93.7578
91.3648
89.0754
86.9186
84.923
83.1163
81.5254
80.1758
79.0919
78.2967
77.8112
77.6547
77.8446
78.3959
79.3214
80.6316
82.3342
84.4348
86.936
89.8382
93.1388
96.8328
100.912
105.367
110.185
115.349
120.842
126.643
132.732
139.082
145.67
152.469
159.453
166.597
173.873
181.257
188.721
196.234
98.7526
96.2721
93.8361
91.4733
89.2129
87.0838
85.1142
83.3316
81.7627
80.4329
79.3665
78.5863
78.1132
77.9667
78.164
78.7202
79.6483
80.9587
82.6595
84.7563
87.252
90.1471
93.4394
97.1239
101.193
105.637
110.443
115.596
121.077
126.866
132.941
139.278
145.852
152.635
159.601
166.723
173.975
181.331
188.767
196.249
98.7705
96.3255
93.9244
91.5955
89.3678
87.2697
85.3292
83.5736
82.0292
80.7214
79.6742
78.9103
78.4508
78.315
78.52
79.0812
80.0116
81.3218
83.02
85.112
87.601
90.4877
93.77
97.4434
101.5
105.931
110.724
115.862
121.329
127.103
133.164
139.485
146.042
152.808
159.754
166.855
174.082
181.41
188.814
196.265
98.7905
96.3855
94.0237
91.733
89.5419
87.4786
85.5706
83.845
82.3279
81.0444
80.0185
79.2726
78.8279
78.7036
78.9169
79.4833
80.4159
81.7255
83.4205
85.5069
87.9882
90.8652
94.1361
97.7967
101.84
106.256
111.032
116.154
121.604
127.361
133.404
139.707
146.246
152.991
159.917
166.994
174.194
181.493
188.865
196.281
98.8131
96.4531
94.1352
91.8873
89.7373
87.7129
85.8413
84.1491
82.6623
81.4058
80.4033
79.6773
79.2488
79.137
79.3594
79.9314
80.8663
82.175
83.8664
85.9465
88.4191
91.2853
94.5435
98.1896
102.217
106.616
111.374
116.477
121.907
127.645
133.667
139.95
146.466
153.189
160.091
167.142
174.315
181.582
188.92
196.299
98.8384
96.5289
94.2605
92.0606
89.9565
87.9755
86.1444
84.4895
83.0363
81.8096
80.833
80.1288
79.7181
79.6201
79.8524
80.4305
81.3679
82.6758
84.3631
86.4363
88.8994
91.7537
94.998
98.6283
102.638
107.018
111.756
116.838
122.246
127.961
133.959
140.218
146.709
153.407
160.281
167.303
174.445
181.678
188.98
196.319
98.8669
96.614
94.4011
92.2549
90.2022
88.2697
86.4837
84.87
83.4541
82.2603
81.3122
80.6321
80.241
80.1582
80.4013
80.9861
81.9263
83.2334
84.9165
86.9824
89.4352
92.2767
95.5058
99.1189
103.11
107.469
112.185
117.243
122.626
128.315
134.287
140.518
146.981
153.648
160.491
167.481
174.588
181.784
189.045
196.341
98.8989
96.7095
94.5588
92.4729
90.4776
88.5991
86.8631
85.2953
83.9205
82.763
81.8463
81.1926
80.8229
80.7567
81.0118
81.6041
82.5476
83.8539
85.5326
87.5907
90.0327
92.8605
96.0735
99.6681
103.638
107.975
112.666
117.699
123.055
128.714
134.656
140.856
147.286
153.92
160.727
167.679
174.747
181.901
189.118
196.365
98.9348
96.8169
94.736
92.7174
90.7863
88.9678
87.2875
85.7702
84.4408
83.3232
82.4409
81.8161
81.4699
81.4218
81.69
82.2906
83.2378
84.5436
86.2178
88.2678
90.6984
93.5118
96.7075
100.282
104.23
108.543
113.208
118.212
123.538
129.166
135.074
141.239
147.632
154.227
160.994
167.903
174.926
182.033
189.2
196.392
98.9753
96.9376
94.9352
92.992
91.1325
89.3809
87.7621
86.3006
85.021
83.9471
83.1023
82.5089
82.1882
82.1599
82.4424
83.0521
84.0035
85.309
86.9787
89.0203
91.439
94.2372
97.4148
100.969
104.893
109.18
113.817
118.791
124.084
129.677
135.548
141.673
148.025
154.576
161.297
168.158
175.129
182.182
189.292
196.423
99.0209
97.0737
95.1595
93.3009
91.5212
89.8439
88.2931
86.8929
85.6677
84.6414
83.8372
83.2778
82.9846
82.9776
83.2756
83.8952
84.8513
86.1568
87.822
89.855
92.2613
95.0437
98.2023
101.734
105.634
109.893
114.5
119.441
124.699
130.255
136.085
142.167
148.472
154.974
161.643
168.448
175.36
182.351
189.397
196.458
99.0725
97.2276
95.4127
93.6491
91.9585
90.3635
88.8876
87.5545
86.3886
85.4136
84.6532
84.1302
83.8664
83.8822
84.1966
84.8269
85.7883
87.0939
88.7546
90.7789
93.1725
95.9385
99.0773
102.586
106.46
110.691
115.266
120.172
125.393
130.907
136.694
142.727
148.982
155.429
162.038
168.781
175.626
182.546
189.517
196.498
99.1312
97.4022
95.6997
94.0427
92.4515
90.9477
89.5539
88.2939
87.1919
86.2721
85.5583
85.0739
84.8412
84.8809
85.2127
85.8543
86.8212
88.1272
89.7835
91.7988
94.1794
96.9286
100.047
103.532
107.379
111.58
116.122
120.992
126.172
131.643
137.382
143.364
149.562
155.948
162.491
169.162
175.931
182.771
189.655
196.544
99.1981
97.6013
96.0263
94.4894
93.0091
91.6058
90.3018
89.1208
88.0873
87.226
86.5614
86.1174
85.917
85.9816
86.3314
86.9845
87.9573
89.2637
90.9155
92.9218
95.2891
98.0211
101.119
104.58
108.399
112.569
117.076
121.908
127.047
132.472
138.16
144.086
150.223
156.542
163.011
169.602
176.284
183.03
189.814
196.598
99.2752
97.83
96.4003
94.9988
93.642
92.3492
91.1426
90.0462
89.0852
88.2853
87.6717
87.2694
87.1021
87.192
87.56
88.2249
89.2034
90.5102
92.1574
94.1545
96.5085
99.2232
102.3
105.736
109.527
113.665
118.138
122.931
128.026
133.403
139.038
144.905
150.976
157.221
163.609
170.109
176.692
183.331
189.999
196.661
99.3647
98.0948
96.8318
95.5834
94.3638
93.1917
92.0897
91.0828
90.1976
89.4609
88.8994
88.5392
88.405
88.5201
88.906
89.5823
90.5664
91.8734
93.5158
95.5037
97.8441
100.541
103.597
107.009
110.772
114.878
119.315
124.068
129.119
134.447
140.027
145.832
151.833
157.999
164.298
170.698
177.168
183.683
190.216
196.735
99.47
98.4055
97.3348
96.2595
95.1916
94.1501
93.1589
92.2452
91.4374
90.7645
90.2549
89.9362
89.8343
89.9736
90.3766
91.0636
92.0527
93.3594
94.9968
96.9753
99.3023
101.982
105.017
108.405
112.14
116.214
120.616
125.33
130.337
135.615
141.139
146.881
152.809
158.892
165.095
171.384
177.728
184.099
190.472
196.825
99.5964
98.7761
97.929
97.049
96.1472
95.2447
94.3686
93.5494
92.8188
92.2084
91.7489
91.4696
91.3981
91.56
91.9786
92.6751
93.6682
94.974
96.606
98.5751
100.889
103.552
106.566
109.93
113.638
117.682
122.05
126.725
131.69
136.919
142.389
148.067
153.923
159.92
166.021
172.191
178.392
184.6
190.783
196.935
99.7524
99.2289
98.6433
97.9818
97.2584
96.5
95.7397
95.0133
94.3567
93.8052
93.3921
93.1488
93.1046
93.2862
93.7182
94.4224
95.4183
96.7223
98.3486
100.308
102.609
105.256
108.251
111.593
115.275
119.291
123.626
128.266
133.19
138.375
143.792
149.41
155.195
161.107
167.105
173.147
179.192
185.212
191.168
197.073
99.954
99.8016
99.521
99.0985
98.5603
97.9451
97.2957
96.6555
96.0662
95.567
95.1944
94.982
94.9606
95.1585
95.601
96.3108
97.3078
98.6092
100.229
102.18
104.468
107.1
110.078
113.399
117.058
121.048
125.355
129.963
134.851
139.995
145.366
150.931
156.651
162.483
168.382
174.296
180.174
185.978
191.654
197.248
100.232
100.56
100.626
100.452
100.094
99.6107
99.0597
98.4937
97.9607
97.5044
97.1642
96.976
96.972
97.1818
97.6314
98.3443
99.3409
100.639
102.253
104.194
106.472
109.091
112.053
115.357
118.997
122.966
127.249
131.831
136.69
141.801
147.133
152.653
158.32
164.086
169.897
175.694
181.406
186.974
192.303
197.49
100.699
101.623
102.042
102.101
101.9
101.525
101.051
100.541
100.05
99.6242
99.3067
99.1347
99.1422
99.3591
99.8126
100.527
101.522
102.816
104.424
106.359
108.628
111.236
114.187
117.478
121.104
125.057
129.323
133.885
138.723
143.81
149.116
154.604
160.232
165.95
171.697
177.406
182.98
188.326
193.261
197.909
101.56
103.237
103.944
104.16
104.054
103.74
103.306
102.824
102.352
101.941
101.634
101.469
101.481
101.7
102.154
102.868
103.861
105.152
106.757
108.686
110.95
113.552
116.496
119.779
123.397
127.341
131.597
136.149
140.975
146.049
151.34
156.81
162.415
168.105
173.815
179.473
184.969
190.186
194.846
198.94
)
;

boundaryField
{
    carasuperior
    {
        type            fixedGradient;
        gradient        uniform 100;
    }
    lateralizquierda
    {
        type            fixedValue;
        value           uniform 100;
    }
    lateralderecha
    {
        type            fixedValue;
        value           uniform 200;
    }
    carainferior
    {
        type            zeroGradient;
    }
    frontAndBack
    {
        type            empty;
    }
}


// ************************************************************************* //
