/*--------------------------------*- C++ -*----------------------------------*\
| =========                 |                                                 |
| \\      /  F ield         | OpenFOAM: The Open Source CFD Toolbox           |
|  \\    /   O peration     | Version:  2.4.0                                 |
|   \\  /    A nd           | Web:      www.OpenFOAM.org                      |
|    \\/     M anipulation  |                                                 |
\*---------------------------------------------------------------------------*/
FoamFile
{
    version     2.0;
    format      ascii;
    class       volScalarField;
    location    "3.9";
    object      p;
}
// * * * * * * * * * * * * * * * * * * * * * * * * * * * * * * * * * * * * * //

dimensions      [0 2 -2 0 0 0 0];

internalField   nonuniform List<scalar> 
4800
(
-6.13206e-07
-0.00160152
-0.00328428
-0.00453138
-0.00501836
-0.0045938
-0.00321053
-0.000872237
0.00237632
0.00643937
0.00159537
-3.70047e-05
-0.00123255
-0.00194471
-0.00204986
-0.00143783
-6.10006e-05
0.00209718
0.0050271
0.00868225
0.0033173
0.00110878
-9.46779e-05
-0.000651198
-0.000630083
2.71703e-05
0.00135214
0.00337208
0.00610906
0.00955999
0.00448374
0.00161842
0.000240395
-0.000331509
-0.000325843
0.000271785
0.00148151
0.00334914
0.00594122
0.00931482
0.00454153
0.00115498
-0.000408393
-0.00106989
-0.00117397
-0.000732385
0.000281353
0.00195199
0.00441857
0.0078458
0.00312305
-0.000574379
-0.00229009
-0.00309199
-0.00339379
-0.0032137
-0.00249636
-0.00109087
0.0012561
0.0049219
5.00401e-05
-0.0037179
-0.00553064
-0.00650903
-0.00709273
-0.00729115
-0.00699955
-0.00597477
-0.00380284
0.000325585
-0.00468187
-0.00827921
-0.0101246
-0.0113043
-0.0122483
-0.0129525
-0.0132527
-0.0128022
-0.0110106
-0.00622091
-0.0109068
-0.0141209
-0.0159335
-0.0173221
-0.018683
-0.0200067
-0.0210764
-0.0214459
-0.0204286
-0.0148063
-0.0183103
-0.0209829
-0.0226986
-0.024274
-0.0260625
-0.0280846
-0.0301383
-0.0317822
-0.0327753
-0.028388
-1.86709e-06
-0.00162292
-0.00331592
-0.00457188
-0.00506416
-0.00464179
-0.00325864
-0.000918456
0.00233434
0.00640428
0.00161263
-4.18796e-05
-0.00121538
-0.00191733
-0.00201734
-0.00140209
-2.51317e-05
0.00213053
0.00505636
0.0087075
0.00334754
0.0010825
-9.60625e-05
-0.000650251
-0.000631549
2.58176e-05
0.00135067
0.00336994
0.00610613
0.00955819
0.00452786
0.0015815
0.000240427
-0.000328341
-0.000326898
0.000270259
0.00147953
0.00334593
0.00593571
0.00930996
0.00459553
0.00111159
-0.000403562
-0.00105929
-0.00116756
-0.000726251
0.000286839
0.00195522
0.0044151
0.00783901
0.00318178
-0.000622422
-0.00228373
-0.00307848
-0.00338441
-0.00320436
-0.00248721
-0.0010835
0.00125013
0.00490301
0.00010821
-0.00376727
-0.00552383
-0.00649423
-0.00708142
-0.0072794
-0.00698652
-0.00595913
-0.00381067
0.000277612
-0.00462761
-0.00832651
-0.0101184
-0.0112899
-0.0122365
-0.0129404
-0.0132391
-0.012778
-0.0110337
-0.00638787
-0.0108615
-0.0141638
-0.0159292
-0.01731
-0.0186719
-0.0199947
-0.0210602
-0.0213893
-0.0204117
-0.0151811
-0.0182774
-0.0210199
-0.0226978
-0.0242671
-0.0260552
-0.0280738
-0.0301155
-0.0316414
-0.032446
-0.0285011
-1.78998e-06
-0.00162287
-0.00331589
-0.00457187
-0.00506416
-0.0046418
-0.00325865
-0.000918467
0.00233433
0.00640427
0.00161269
-4.18388e-05
-0.00121536
-0.00191733
-0.00201735
-0.0014021
-2.51432e-05
0.00213052
0.00505635
0.00870749
0.00334757
0.00108252
-9.60561e-05
-0.000650251
-0.000631556
2.58063e-05
0.00135066
0.00336992
0.00610612
0.00955818
0.00452787
0.00158151
0.000240423
-0.000328346
-0.000326908
0.000270246
0.00147951
0.00334592
0.0059357
0.00930995
0.00459553
0.00111159
-0.000403571
-0.0010593
-0.00116757
-0.000726264
0.000286826
0.00195521
0.00441509
0.007839
0.00318177
-0.000622426
-0.00228374
-0.00307849
-0.00338442
-0.00320438
-0.00248722
-0.00108351
0.00125012
0.004903
0.000108199
-0.00376728
-0.00552385
-0.00649424
-0.00708144
-0.00727942
-0.00698653
-0.00595914
-0.00381068
0.000277604
-0.00462762
-0.00832651
-0.0101184
-0.0112899
-0.0122366
-0.0129405
-0.0132391
-0.012778
-0.0110337
-0.00638788
-0.0108615
-0.0141638
-0.0159292
-0.01731
-0.0186719
-0.0199947
-0.0210602
-0.0213893
-0.0204117
-0.0151811
-0.0182774
-0.0210199
-0.0226979
-0.0242671
-0.0260552
-0.0280738
-0.0301155
-0.0316414
-0.032446
-0.0285011
-6.2572e-07
-0.00160142
-0.00328422
-0.00453136
-0.00501837
-0.00459382
-0.00321056
-0.000872266
0.00237629
0.00643934
0.00159547
-3.69275e-05
-0.00123251
-0.00194471
-0.00204987
-0.00143786
-6.10328e-05
0.00209714
0.00502707
0.00868223
0.00331736
0.00110881
-9.46747e-05
-0.000651205
-0.000630104
2.71395e-05
0.00135211
0.00337204
0.00610903
0.00955996
0.00448375
0.00161844
0.000240377
-0.00033153
-0.000325871
0.00027175
0.00148148
0.0033491
0.00594119
0.00931479
0.00454152
0.00115498
-0.000408419
-0.00106992
-0.00117401
-0.000732421
0.000281318
0.00195196
0.00441854
0.00784578
0.00312302
-0.000574391
-0.00229012
-0.00309203
-0.00339383
-0.00321374
-0.00249639
-0.0010909
0.00125607
0.00492188
5.00042e-05
-0.00371792
-0.00553068
-0.00650906
-0.00709276
-0.00729118
-0.00699958
-0.00597479
-0.00380286
0.000325566
-0.00468191
-0.00827924
-0.0101247
-0.0113043
-0.0122484
-0.0129525
-0.0132527
-0.0128022
-0.0110106
-0.00622093
-0.0109069
-0.014121
-0.0159335
-0.0173221
-0.018683
-0.0200068
-0.0210764
-0.0214459
-0.0204286
-0.0148063
-0.0183103
-0.0209829
-0.0226986
-0.024274
-0.0260625
-0.0280846
-0.0301383
-0.0317822
-0.0327753
-0.028388
0.011164
0.0163629
0.0218669
0.027548
0.0333215
0.0391378
0.0449733
0.0508223
0.0566929
0.0626054
0.0685921
0.0746991
0.0809857
0.0875231
0.0943877
0.101648
0.109344
0.117457
0.125868
0.13434
0.012966
0.0177405
0.0228758
0.0282644
0.0338235
0.0394954
0.0452436
0.0510498
0.0569104
0.0628346
0.068844
0.074971
0.0812583
0.0877551
0.0945117
0.101569
0.108945
0.116605
0.124452
0.132293
0.0136598
0.0182702
0.023268
0.0285501
0.0340324
0.0396528
0.0453694
0.051158
0.0570084
0.0629232
0.0689158
0.0750095
0.0812359
0.0876325
0.0942393
0.101092
0.108209
0.115581
0.12314
0.13074
0.0134299
0.0180847
0.0231333
0.0284641
0.0339876
0.03964
0.0453795
0.051181
0.0570323
0.062932
0.0688871
0.0749122
0.0810293
0.087267
0.0936601
0.100249
0.107073
0.114162
0.121512
0.129052
0.0122326
0.017181
0.022489
0.0280314
0.0337144
0.0394802
0.0452953
0.0511411
0.0570087
0.0628951
0.068802
0.0747353
0.0807057
0.0867312
0.0928408
0.0990816
0.105521
0.112249
0.119358
0.126918
0.0100179
0.0156131
0.0214267
0.0273462
0.0332927
0.0392342
0.045161
0.0510712
0.0569644
0.0628393
0.0686929
0.0745214
0.0803221
0.0860979
0.0918661
0.0976738
0.103616
0.10985
0.116604
0.124223
0.00691723
0.0136485
0.0202178
0.0266337
0.0328887
0.0390163
0.0450528
0.0510225
0.0569375
0.0627993
0.0686001
0.0743247
0.0799536
0.0854687
0.0908645
0.0961719
0.101501
0.107066
0.113262
0.120943
0.00334655
0.0118155
0.0192943
0.0262034
0.0327044
0.0389507
0.0450453
0.0510412
0.0569609
0.0628057
0.0685607
0.0741975
0.0796769
0.0849537
0.0899871
0.0947719
0.0994126
0.104136
0.109464
0.117061
0.00135503
0.0117976
0.0195979
0.0265367
0.032977
0.039153
0.0451983
0.0511657
0.0570692
0.0629004
0.0686325
0.0742213
0.0796047
0.0847024
0.0894197
0.0936789
0.0975305
0.100993
0.104419
0.110727
0.00590512
0.0171279
0.0227728
0.0283049
0.0339684
0.0397271
0.0455619
0.0514362
0.0573132
0.0631558
0.0689182
0.0745366
0.0799202
0.0849381
0.0894034
0.0930535
0.0955338
0.0965498
0.0952977
0.096843
0.0111376
0.0163444
0.0218546
0.0275402
0.0333167
0.0391348
0.0449712
0.0508206
0.0566911
0.062603
0.068589
0.074695
0.0809806
0.0875171
0.0943813
0.101642
0.10934
0.117457
0.125876
0.134359
0.0129883
0.0177591
0.0228906
0.0282757
0.033832
0.0395017
0.0452486
0.0510542
0.0569146
0.0628391
0.068849
0.0749765
0.0812639
0.0877602
0.0945151
0.101569
0.108939
0.116592
0.12443
0.132263
0.0136626
0.018275
0.0232733
0.0285551
0.0340367
0.0396562
0.0453721
0.05116
0.0570099
0.0629244
0.0689169
0.0750104
0.0812365
0.0876328
0.0942389
0.10109
0.108207
0.115576
0.123134
0.130735
0.0134342
0.0180917
0.0231403
0.0284704
0.0339926
0.0396437
0.0453821
0.0511828
0.0570335
0.0629328
0.0688876
0.0749126
0.0810296
0.0872672
0.09366
0.100248
0.107071
0.114159
0.121506
0.129047
0.0122445
0.0171944
0.0224999
0.0280399
0.0337204
0.0394841
0.0452978
0.0511427
0.0570098
0.0628959
0.0688027
0.074736
0.0807065
0.0867321
0.0928417
0.0990817
0.10552
0.112246
0.119347
0.126903
0.0100433
0.0156348
0.0214403
0.0273553
0.0332981
0.039237
0.0451624
0.0510719
0.0569647
0.0628394
0.068693
0.0745217
0.0803226
0.0860988
0.0918672
0.0976745
0.103617
0.109848
0.116586
0.124186
0.00698482
0.0136932
0.0202385
0.0266445
0.0328933
0.0390177
0.045053
0.0510222
0.0569372
0.0627991
0.0686002
0.0743251
0.0799543
0.08547
0.0908662
0.0961728
0.1015
0.107061
0.113219
0.120839
0.00346135
0.0118622
0.0193039
0.026207
0.0327039
0.0389487
0.0450435
0.0510398
0.0569597
0.0628047
0.0685598
0.0741968
0.0796765
0.0849541
0.0899886
0.0947724
0.0994112
0.104141
0.109426
0.116896
0.00149843
0.011734
0.0195267
0.0265062
0.0329612
0.0391434
0.0451922
0.0511611
0.0570648
0.0628954
0.0686265
0.0742142
0.0795966
0.0846948
0.0894153
0.09368
0.0975497
0.101081
0.104539
0.110548
0.00674552
0.0172711
0.0227832
0.0283279
0.0339833
0.0397341
0.0455659
0.051439
0.0573157
0.0631586
0.0689216
0.074541
0.0799254
0.0849439
0.0894078
0.093051
0.0955244
0.096581
0.095236
0.0957791
0.0111376
0.0163444
0.0218546
0.0275402
0.0333167
0.0391348
0.0449712
0.0508205
0.0566911
0.062603
0.068589
0.074695
0.0809806
0.0875171
0.0943813
0.101642
0.10934
0.117457
0.125876
0.134359
0.0129883
0.0177591
0.0228906
0.0282757
0.033832
0.0395017
0.0452486
0.0510542
0.0569146
0.0628391
0.068849
0.0749765
0.0812639
0.0877602
0.0945151
0.101569
0.108939
0.116592
0.12443
0.132263
0.0136626
0.018275
0.0232733
0.0285551
0.0340367
0.0396562
0.0453721
0.05116
0.0570099
0.0629244
0.0689169
0.0750104
0.0812365
0.0876328
0.0942389
0.10109
0.108207
0.115576
0.123134
0.130735
0.0134342
0.0180917
0.0231403
0.0284704
0.0339926
0.0396437
0.0453821
0.0511828
0.0570335
0.0629328
0.0688876
0.0749126
0.0810296
0.0872672
0.09366
0.100248
0.107071
0.114159
0.121506
0.129047
0.0122445
0.0171944
0.0224999
0.0280399
0.0337204
0.0394841
0.0452978
0.0511427
0.0570098
0.0628959
0.0688027
0.074736
0.0807065
0.0867321
0.0928417
0.0990817
0.10552
0.112246
0.119347
0.126903
0.0100433
0.0156348
0.0214403
0.0273553
0.0332981
0.039237
0.0451624
0.0510719
0.0569647
0.0628394
0.0686931
0.0745217
0.0803226
0.0860988
0.0918672
0.0976745
0.103617
0.109848
0.116586
0.124186
0.00698481
0.0136932
0.0202385
0.0266445
0.0328933
0.0390177
0.045053
0.0510222
0.0569372
0.0627991
0.0686002
0.0743251
0.0799543
0.08547
0.0908662
0.0961728
0.1015
0.107061
0.113219
0.120839
0.00346135
0.0118622
0.0193039
0.026207
0.0327039
0.0389487
0.0450435
0.0510398
0.0569597
0.0628047
0.0685598
0.0741968
0.0796765
0.0849541
0.0899886
0.0947724
0.0994112
0.104141
0.109426
0.116896
0.00149843
0.011734
0.0195267
0.0265062
0.0329612
0.0391434
0.0451922
0.0511611
0.0570648
0.0628954
0.0686265
0.0742142
0.0795966
0.0846948
0.0894153
0.09368
0.0975497
0.101081
0.104539
0.110548
0.00674551
0.0172711
0.0227832
0.0283279
0.0339833
0.0397341
0.0455659
0.051439
0.0573157
0.0631586
0.0689216
0.074541
0.0799254
0.0849439
0.0894078
0.093051
0.0955244
0.096581
0.095236
0.0957791
0.011164
0.0163629
0.0218668
0.027548
0.0333215
0.0391378
0.0449733
0.0508223
0.0566929
0.0626054
0.0685921
0.0746991
0.0809857
0.0875231
0.0943877
0.101648
0.109344
0.117457
0.125868
0.13434
0.012966
0.0177404
0.0228758
0.0282644
0.0338235
0.0394953
0.0452436
0.0510498
0.0569104
0.0628346
0.068844
0.074971
0.0812583
0.0877551
0.0945117
0.101569
0.108945
0.116605
0.124452
0.132293
0.0136598
0.0182702
0.023268
0.0285501
0.0340324
0.0396527
0.0453694
0.051158
0.0570084
0.0629232
0.0689158
0.0750095
0.0812359
0.0876326
0.0942393
0.101092
0.108209
0.115581
0.12314
0.13074
0.0134299
0.0180846
0.0231333
0.0284641
0.0339876
0.03964
0.0453795
0.051181
0.0570323
0.062932
0.0688871
0.0749122
0.0810293
0.087267
0.0936601
0.100249
0.107073
0.114162
0.121512
0.129052
0.0122326
0.017181
0.022489
0.0280314
0.0337144
0.0394802
0.0452953
0.0511411
0.0570087
0.0628951
0.0688021
0.0747353
0.0807057
0.0867312
0.0928408
0.0990816
0.105521
0.112249
0.119358
0.126918
0.0100178
0.0156131
0.0214267
0.0273462
0.0332927
0.0392342
0.045161
0.0510712
0.0569644
0.0628393
0.0686929
0.0745214
0.0803221
0.0860979
0.0918661
0.0976738
0.103617
0.10985
0.116604
0.124223
0.00691721
0.0136485
0.0202178
0.0266337
0.0328887
0.0390163
0.0450528
0.0510225
0.0569375
0.0627993
0.0686001
0.0743247
0.0799536
0.0854687
0.0908645
0.0961719
0.101501
0.107066
0.113262
0.120943
0.00334654
0.0118155
0.0192943
0.0262034
0.0327043
0.0389507
0.0450453
0.0510412
0.0569609
0.0628057
0.0685607
0.0741975
0.0796769
0.0849537
0.0899871
0.0947719
0.0994126
0.104136
0.109464
0.117061
0.00135501
0.0117976
0.0195979
0.0265367
0.032977
0.039153
0.0451983
0.0511657
0.0570692
0.0629004
0.0686325
0.0742213
0.0796047
0.0847024
0.0894197
0.0936789
0.0975305
0.100993
0.104419
0.110727
0.0059051
0.0171279
0.0227728
0.0283049
0.0339684
0.0397271
0.045562
0.0514362
0.0573132
0.0631558
0.0689182
0.0745366
0.0799202
0.0849381
0.0894034
0.0930535
0.0955338
0.0965498
0.0952977
0.096843
0.142502
0.149907
0.156134
0.16087
0.163947
0.165369
0.165314
0.164148
0.162426
0.160828
0.139831
0.146694
0.152538
0.157102
0.160249
0.161981
0.162447
0.161938
0.160792
0.159225
0.138116
0.144882
0.150693
0.155289
0.158533
0.160418
0.161069
0.160734
0.159596
0.157542
0.13654
0.143493
0.149512
0.15431
0.157731
0.159756
0.160497
0.160179
0.158884
0.156295
0.134751
0.142131
0.148567
0.153726
0.157429
0.159653
0.160504
0.160202
0.158781
0.155809
0.132728
0.140805
0.147861
0.153526
0.157608
0.160095
0.161104
0.160862
0.159397
0.156236
0.130673
0.139733
0.147557
0.153815
0.158325
0.16111
0.162317
0.162192
0.160779
0.157625
0.129028
0.139359
0.148003
0.154836
0.159729
0.162783
0.164189
0.164219
0.162947
0.159973
0.128033
0.14037
0.149788
0.157003
0.162075
0.165252
0.166788
0.166966
0.16589
0.163236
0.132415
0.145979
0.154565
0.161124
0.165738
0.168683
0.170171
0.170432
0.169563
0.167322
0.142535
0.149952
0.156189
0.160929
0.164006
0.165423
0.165358
0.164178
0.162443
0.160827
0.139794
0.146651
0.152491
0.157053
0.160201
0.161938
0.16241
0.161912
0.160787
0.159204
0.138116
0.144886
0.150699
0.155296
0.15854
0.160423
0.161069
0.160733
0.159613
0.15751
0.136547
0.143505
0.149527
0.154325
0.157745
0.159767
0.1605
0.16018
0.158912
0.156254
0.134758
0.142142
0.148579
0.153737
0.157438
0.159659
0.160503
0.1602
0.158814
0.155763
0.132739
0.140817
0.147873
0.153537
0.157618
0.160101
0.161102
0.160861
0.159433
0.156188
0.130696
0.139749
0.147571
0.153828
0.158334
0.161116
0.162315
0.16219
0.160815
0.157577
0.129168
0.139415
0.148027
0.154852
0.159737
0.162786
0.164186
0.164217
0.16298
0.159927
0.128362
0.140387
0.149765
0.156995
0.162069
0.165248
0.166783
0.166964
0.165919
0.163194
0.132302
0.145605
0.154398
0.161076
0.165719
0.168676
0.170166
0.17043
0.169589
0.167286
0.142535
0.149952
0.156189
0.160929
0.164006
0.165423
0.165358
0.164178
0.162443
0.160827
0.139794
0.146651
0.152491
0.157053
0.160201
0.161938
0.16241
0.161912
0.160787
0.159204
0.138116
0.144886
0.150699
0.155296
0.15854
0.160423
0.161069
0.160733
0.159613
0.15751
0.136547
0.143505
0.149527
0.154325
0.157745
0.159767
0.1605
0.16018
0.158912
0.156254
0.134758
0.142142
0.148579
0.153737
0.157438
0.159659
0.160503
0.1602
0.158814
0.155763
0.132739
0.140817
0.147873
0.153537
0.157618
0.160101
0.161102
0.160861
0.159433
0.156188
0.130696
0.139749
0.147571
0.153828
0.158334
0.161116
0.162315
0.16219
0.160815
0.157577
0.129168
0.139415
0.148027
0.154852
0.159737
0.162786
0.164186
0.164217
0.16298
0.159927
0.128362
0.140387
0.149765
0.156995
0.162069
0.165248
0.166783
0.166964
0.165919
0.163194
0.132302
0.145605
0.154398
0.161076
0.165719
0.168676
0.170166
0.17043
0.169589
0.167286
0.142502
0.149907
0.156134
0.16087
0.163947
0.165369
0.165314
0.164148
0.162426
0.160828
0.139831
0.146694
0.152538
0.157102
0.160249
0.161981
0.162447
0.161938
0.160792
0.159226
0.138116
0.144882
0.150693
0.155289
0.158533
0.160418
0.161069
0.160734
0.159596
0.157542
0.13654
0.143493
0.149512
0.15431
0.157731
0.159756
0.160497
0.160179
0.158884
0.156295
0.134751
0.142131
0.148567
0.153726
0.157429
0.159653
0.160504
0.160202
0.158781
0.155809
0.132728
0.140805
0.147861
0.153526
0.157608
0.160095
0.161104
0.160862
0.159397
0.156236
0.130673
0.139733
0.147557
0.153815
0.158325
0.16111
0.162317
0.162192
0.160779
0.157625
0.129028
0.139359
0.148003
0.154836
0.159729
0.162783
0.164189
0.164219
0.162947
0.159973
0.128033
0.14037
0.149788
0.157003
0.162075
0.165252
0.166788
0.166966
0.16589
0.163236
0.132415
0.145979
0.154565
0.161124
0.165738
0.168683
0.170171
0.170432
0.169563
0.167322
0.166659
0.162109
0.164111
0.167703
0.170831
0.173074
0.174299
0.174551
0.173872
0.172078
0.177821
0.172509
0.172552
0.174418
0.176421
0.178029
0.178968
0.179185
0.178679
0.177321
0.183401
0.180265
0.18
0.180969
0.182229
0.183343
0.184034
0.184209
0.183853
0.182881
0.18886
0.187157
0.186879
0.187368
0.188143
0.188891
0.189381
0.189518
0.189283
0.188629
0.194446
0.193558
0.193358
0.193612
0.194087
0.194577
0.194915
0.195021
0.194879
0.194477
0.200135
0.199712
0.199602
0.199742
0.20003
0.200342
0.200566
0.200644
0.200572
0.200361
0.205927
0.205773
0.205731
0.205805
0.205967
0.206147
0.206279
0.206328
0.206304
0.206239
0.21181
0.211832
0.211823
0.211844
0.211902
0.211969
0.212014
0.212025
0.212026
0.212075
0.217813
0.217942
0.217939
0.217894
0.217843
0.217789
0.217735
0.217689
0.217692
0.217823
0.223972
0.224163
0.224129
0.223986
0.223796
0.223593
0.223409
0.223277
0.223251
0.223433
0.230355
0.230556
0.230441
0.23015
0.229771
0.229368
0.229008
0.228745
0.228651
0.22884
0.237053
0.237187
0.236923
0.236414
0.235773
0.235101
0.2345
0.234051
0.233836
0.23397
0.244183
0.244126
0.243615
0.242796
0.241805
0.24078
0.239862
0.239159
0.238752
0.238737
0.25189
0.251433
0.250539
0.249301
0.247858
0.246393
0.245079
0.244045
0.243358
0.243056
0.260352
0.259117
0.257672
0.255896
0.253909
0.251929
0.250153
0.248716
0.247646
0.246857
0.269679
0.267147
0.264898
0.262473
0.259888
0.257373
0.255112
0.253221
0.251646
0.250127
0.27993
0.275192
0.271873
0.268766
0.265636
0.262678
0.260007
0.257672
0.255482
0.252911
0.290782
0.28249
0.277893
0.274253
0.270835
0.267733
0.264906
0.262255
0.259381
0.255382
0.302223
0.288055
0.281787
0.277989
0.274873
0.272275
0.269848
0.267237
0.263719
0.257886
0.313214
0.288308
0.280357
0.277805
0.276493
0.275736
0.274793
0.272959
0.269065
0.261029
0.1675
0.162252
0.164226
0.16777
0.170856
0.173086
0.174303
0.174553
0.173895
0.172052
0.177964
0.172446
0.172598
0.174462
0.176443
0.178042
0.178975
0.179189
0.178697
0.177302
0.183411
0.180194
0.180009
0.18099
0.182243
0.183354
0.184041
0.184214
0.183867
0.182869
0.188883
0.187128
0.186883
0.187379
0.188153
0.188899
0.189387
0.189523
0.189293
0.188622
0.194461
0.193544
0.193358
0.193616
0.194092
0.194583
0.19492
0.195024
0.194886
0.194472
0.20014
0.199705
0.199601
0.199743
0.200033
0.200346
0.200569
0.200646
0.200575
0.20036
0.205928
0.205771
0.20573
0.205806
0.205968
0.20615
0.206282
0.20633
0.206305
0.206239
0.21181
0.211833
0.211823
0.211844
0.211903
0.21197
0.212016
0.212026
0.212025
0.212076
0.217811
0.217945
0.217939
0.217893
0.217843
0.21779
0.217736
0.21769
0.217689
0.217825
0.223969
0.224167
0.224129
0.223985
0.223796
0.223593
0.22341
0.223277
0.223247
0.223436
0.23035
0.230561
0.230441
0.230149
0.229771
0.229368
0.229008
0.228745
0.228647
0.228845
0.237047
0.237191
0.236922
0.236412
0.235773
0.235101
0.2345
0.234052
0.233832
0.233975
0.244178
0.244128
0.243613
0.242794
0.241803
0.240779
0.239862
0.239159
0.23875
0.238742
0.251886
0.251427
0.250535
0.249298
0.247856
0.246391
0.245079
0.244047
0.24336
0.24306
0.260351
0.259098
0.257666
0.255892
0.253906
0.251927
0.250153
0.248719
0.247655
0.246859
0.269691
0.267109
0.26489
0.26247
0.259884
0.257371
0.255112
0.253226
0.251668
0.250122
0.279981
0.275123
0.271866
0.268765
0.265631
0.262676
0.260008
0.25768
0.255521
0.252897
0.290847
0.282316
0.277869
0.274251
0.270827
0.267732
0.264907
0.262268
0.259445
0.255353
0.302338
0.287732
0.281793
0.278032
0.274888
0.272288
0.269857
0.267258
0.263818
0.257837
0.314545
0.288416
0.280652
0.277989
0.276561
0.27577
0.274808
0.272989
0.269208
0.260953
0.1675
0.162252
0.164226
0.16777
0.170856
0.173086
0.174303
0.174553
0.173895
0.172052
0.177964
0.172446
0.172598
0.174462
0.176443
0.178042
0.178975
0.179189
0.178697
0.177302
0.183411
0.180194
0.180009
0.18099
0.182243
0.183354
0.184041
0.184214
0.183867
0.182869
0.188883
0.187128
0.186883
0.187379
0.188153
0.188899
0.189387
0.189523
0.189293
0.188622
0.194461
0.193544
0.193358
0.193616
0.194092
0.194583
0.19492
0.195024
0.194886
0.194472
0.20014
0.199705
0.199601
0.199743
0.200033
0.200346
0.200569
0.200646
0.200575
0.20036
0.205928
0.205771
0.20573
0.205806
0.205968
0.20615
0.206282
0.20633
0.206305
0.206239
0.21181
0.211833
0.211823
0.211844
0.211903
0.21197
0.212016
0.212026
0.212025
0.212076
0.217811
0.217945
0.217939
0.217893
0.217843
0.21779
0.217736
0.21769
0.217689
0.217825
0.223969
0.224167
0.224129
0.223985
0.223796
0.223593
0.22341
0.223277
0.223247
0.223436
0.23035
0.230561
0.230441
0.230149
0.229771
0.229368
0.229008
0.228745
0.228647
0.228845
0.237047
0.237191
0.236922
0.236412
0.235773
0.235101
0.2345
0.234052
0.233832
0.233975
0.244178
0.244128
0.243613
0.242794
0.241803
0.240779
0.239862
0.239159
0.23875
0.238742
0.251886
0.251427
0.250535
0.249298
0.247856
0.246391
0.245079
0.244047
0.24336
0.24306
0.260351
0.259098
0.257666
0.255892
0.253906
0.251927
0.250153
0.248719
0.247655
0.246859
0.269691
0.267109
0.26489
0.26247
0.259884
0.257371
0.255112
0.253226
0.251668
0.250122
0.279981
0.275123
0.271866
0.268765
0.265631
0.262676
0.260008
0.25768
0.255521
0.252897
0.290847
0.282316
0.277869
0.274251
0.270827
0.267732
0.264907
0.262268
0.259445
0.255353
0.302338
0.287732
0.281793
0.278032
0.274888
0.272288
0.269857
0.267258
0.263818
0.257837
0.314545
0.288416
0.280652
0.277989
0.276561
0.27577
0.274808
0.272989
0.269208
0.260953
0.166659
0.162109
0.164111
0.167703
0.170831
0.173074
0.174299
0.174551
0.173872
0.172078
0.177821
0.172509
0.172552
0.174418
0.176421
0.178029
0.178968
0.179185
0.178679
0.177321
0.183401
0.180265
0.18
0.180969
0.182229
0.183343
0.184034
0.184209
0.183853
0.182881
0.18886
0.187157
0.186879
0.187368
0.188143
0.188891
0.189381
0.189518
0.189283
0.188629
0.194446
0.193558
0.193358
0.193612
0.194087
0.194577
0.194915
0.195021
0.194879
0.194477
0.200135
0.199712
0.199602
0.199742
0.20003
0.200342
0.200566
0.200644
0.200572
0.200361
0.205927
0.205773
0.205731
0.205805
0.205967
0.206147
0.206279
0.206328
0.206304
0.206239
0.21181
0.211832
0.211823
0.211844
0.211902
0.211969
0.212014
0.212025
0.212026
0.212075
0.217813
0.217942
0.217939
0.217894
0.217843
0.217789
0.217735
0.217689
0.217692
0.217823
0.223972
0.224163
0.224129
0.223986
0.223796
0.223593
0.223409
0.223277
0.223251
0.223433
0.230355
0.230556
0.230441
0.23015
0.229771
0.229368
0.229008
0.228745
0.228651
0.22884
0.237053
0.237187
0.236923
0.236414
0.235773
0.235101
0.2345
0.234051
0.233836
0.23397
0.244183
0.244126
0.243615
0.242796
0.241805
0.24078
0.239862
0.239159
0.238752
0.238737
0.25189
0.251433
0.250539
0.249301
0.247858
0.246393
0.245079
0.244045
0.243358
0.243056
0.260352
0.259117
0.257672
0.255896
0.253909
0.251929
0.250153
0.248716
0.247646
0.246857
0.269679
0.267147
0.264898
0.262473
0.259888
0.257373
0.255112
0.253221
0.251646
0.250127
0.27993
0.275192
0.271873
0.268766
0.265636
0.262678
0.260007
0.257672
0.255482
0.252911
0.290782
0.28249
0.277893
0.274253
0.270835
0.267733
0.264906
0.262255
0.259381
0.255382
0.302223
0.288055
0.281787
0.277989
0.274873
0.272275
0.269848
0.267237
0.263719
0.257886
0.313214
0.288308
0.280357
0.277805
0.276493
0.275736
0.274793
0.272959
0.269065
0.261029
0.252771
0.26138
0.266609
0.270709
0.27427
0.277517
0.279731
0.279913
0.276272
0.2658
0.223646
0.239454
0.250678
0.260228
0.269313
0.277968
0.285049
0.288887
0.286609
0.273769
0.206169
0.221493
0.234853
0.248357
0.262824
0.277802
0.291455
0.30104
0.30191
0.287395
0.19266
0.206498
0.220697
0.237129
0.256575
0.278407
0.300263
0.318135
0.324871
0.310621
0.182834
0.195494
0.210175
0.228946
0.252955
0.281923
0.313521
0.342747
0.35947
0.34991
0.176941
0.189292
0.204809
0.225906
0.254366
0.290767
0.333709
0.378168
0.411293
0.415368
0.174793
0.187892
0.205002
0.228913
0.262169
0.306637
0.362885
0.427604
0.486838
0.521313
0.175503
0.190083
0.209355
0.236499
0.274972
0.328413
0.400485
0.491268
0.591052
0.694913
0.177443
0.193143
0.213853
0.243046
0.285139
0.346027
0.43402
0.557344
0.726183
1.00604
0.178797
0.194004
0.213527
0.24074
0.280333
0.339659
0.432708
0.587004
0.873366
1.49048
0.253111
0.260917
0.266482
0.270698
0.274268
0.277526
0.279736
0.279946
0.276468
0.265688
0.224066
0.239379
0.250612
0.260194
0.26929
0.277962
0.285041
0.288924
0.286872
0.273617
0.206424
0.22151
0.234821
0.248316
0.262784
0.277774
0.291424
0.301073
0.30225
0.2872
0.19275
0.206483
0.220644
0.23706
0.256501
0.27834
0.300188
0.31815
0.325281
0.310382
0.182861
0.19546
0.210105
0.228848
0.252841
0.2818
0.313382
0.342723
0.359903
0.349655
0.176949
0.189255
0.204729
0.225786
0.254207
0.290568
0.333466
0.37805
0.411647
0.41532
0.174808
0.187869
0.204935
0.228791
0.261972
0.306324
0.362453
0.427269
0.486816
0.521802
0.175547
0.190117
0.209376
0.2365
0.27492
0.328212
0.400107
0.49092
0.589756
0.694595
0.177511
0.193256
0.214038
0.243336
0.28557
0.346587
0.434762
0.557947
0.722952
1.00375
0.178847
0.194042
0.213545
0.240742
0.280346
0.339733
0.433065
0.587438
0.869677
1.49974
0.253111
0.260917
0.266482
0.270698
0.274268
0.277526
0.279736
0.279946
0.276468
0.265688
0.224066
0.239379
0.250612
0.260194
0.26929
0.277962
0.285041
0.288924
0.286872
0.273617
0.206424
0.22151
0.234821
0.248316
0.262784
0.277774
0.291424
0.301073
0.30225
0.2872
0.19275
0.206483
0.220644
0.23706
0.256501
0.27834
0.300188
0.31815
0.325281
0.310382
0.182861
0.19546
0.210105
0.228848
0.252841
0.2818
0.313382
0.342723
0.359903
0.349655
0.176949
0.189255
0.204729
0.225786
0.254207
0.290568
0.333466
0.37805
0.411647
0.41532
0.174808
0.187869
0.204935
0.228791
0.261972
0.306324
0.362453
0.427269
0.486816
0.521802
0.175547
0.190117
0.209376
0.2365
0.27492
0.328212
0.400107
0.49092
0.589756
0.694595
0.177511
0.193256
0.214038
0.243336
0.28557
0.346587
0.434762
0.557947
0.722952
1.00375
0.178847
0.194042
0.213545
0.240742
0.280346
0.339733
0.433065
0.587438
0.869677
1.49974
0.252771
0.26138
0.266609
0.270709
0.27427
0.277517
0.279731
0.279913
0.276272
0.2658
0.223646
0.239454
0.250678
0.260228
0.269313
0.277968
0.285049
0.288887
0.286609
0.273769
0.206169
0.221493
0.234853
0.248357
0.262824
0.277802
0.291455
0.30104
0.30191
0.287395
0.19266
0.206498
0.220697
0.237129
0.256575
0.278407
0.300263
0.318135
0.324871
0.310621
0.182834
0.195494
0.210175
0.228946
0.252955
0.281923
0.313521
0.342747
0.35947
0.34991
0.176941
0.189292
0.204809
0.225906
0.254366
0.290767
0.333709
0.378168
0.411293
0.415368
0.174793
0.187892
0.205002
0.228913
0.262169
0.306637
0.362885
0.427604
0.486838
0.521313
0.175503
0.190083
0.209355
0.236499
0.274972
0.328413
0.400485
0.491268
0.591052
0.694913
0.177443
0.193143
0.213853
0.243046
0.285139
0.346027
0.43402
0.557344
0.726183
1.00604
0.178797
0.194004
0.213527
0.24074
0.280333
0.339659
0.432708
0.587004
0.873366
1.49048
-0.153753
-0.133086
-0.115043
-0.098403
-0.0817865
-0.0649866
-0.047995
-0.0308468
-0.0136025
0.00366674
0.0208846
0.0379791
0.0548841
0.0715509
0.0880063
0.104438
0.12133
0.139721
0.162912
0.200674
-0.139793
-0.12631
-0.111788
-0.0965374
-0.0806067
-0.0642062
-0.0474712
-0.0304986
-0.0133727
0.00383179
0.0210497
0.0382227
0.055311
0.0723181
0.0893158
0.106511
0.1243
0.143305
0.165036
0.192941
-0.136583
-0.12459
-0.11089
-0.096032
-0.0803365
-0.0640676
-0.0473983
-0.0304509
-0.0133192
0.00392195
0.0212119
0.0385015
0.0557577
0.0729737
0.0901884
0.107518
0.125176
0.143456
0.162912
0.184447
-0.137773
-0.125472
-0.111595
-0.0966036
-0.0808048
-0.064439
-0.0476759
-0.0306356
-0.0134061
0.00394595
0.0213674
0.0388132
0.0562429
0.0736212
0.0909207
0.10813
0.125249
0.14228
0.159279
0.176348
-0.140468
-0.127492
-0.113125
-0.097754
-0.0816628
-0.0650674
-0.0481198
-0.0309248
-0.0135555
0.00393449
0.0215015
0.0391018
0.056683
0.0741743
0.0914779
0.108464
0.124959
0.140758
0.15569
0.169717
-0.142896
-0.129303
-0.114469
-0.0987364
-0.0823696
-0.0655644
-0.0484546
-0.0311291
-0.0136471
0.00394853
0.0216198
0.0393209
0.0569851
0.0745089
0.0917372
0.108468
0.124411
0.139285
0.15288
0.165256
-0.143396
-0.129564
-0.114596
-0.098785
-0.0823723
-0.0655389
-0.0484094
-0.0310666
-0.0135658
0.00405144
0.0217448
0.0394614
0.0571204
0.0745964
0.0917046
0.108199
0.123779
0.138165
0.151216
0.163149
-0.141092
-0.127618
-0.113033
-0.0975723
-0.0814534
-0.064853
-0.0479012
-0.0306904
-0.0132871
0.00425626
0.021888
0.0395428
0.0571277
0.0745059
0.0914862
0.107825
0.123252
0.137548
0.150679
0.163003
-0.135995
-0.123655
-0.110047
-0.0953771
-0.0798712
-0.0637298
-0.0471135
-0.0301448
-0.0129167
0.00449709
0.0220296
0.0396
0.0571061
0.07441
0.0913272
0.107634
0.123098
0.137556
0.151043
0.163989
-0.127737
-0.117693
-0.105843
-0.0924756
-0.0779057
-0.0624202
-0.046255
-0.0295923
-0.0125696
0.00470705
0.0221475
0.0396696
0.0571703
0.074514
0.0915266
0.107996
0.123695
0.138448
0.152244
0.165406
-0.154136
-0.132969
-0.115029
-0.0984254
-0.0817992
-0.0649942
-0.0480003
-0.0308501
-0.0136043
0.00366637
0.0208852
0.0379799
0.054884
0.0715479
0.0879965
0.104418
0.121307
0.139672
0.162582
0.200074
-0.139736
-0.126139
-0.111711
-0.0965005
-0.0805802
-0.0641877
-0.0474586
-0.0304901
-0.0133672
0.0038352
0.0210521
0.0382255
0.0553163
0.0723289
0.0893351
0.106543
0.124359
0.143376
0.164935
0.192684
-0.136644
-0.124564
-0.110866
-0.0960138
-0.0803217
-0.0640569
-0.0473909
-0.0304458
-0.0133157
0.00392434
0.0212134
0.0385025
0.0557584
0.072974
0.0901871
0.107514
0.12517
0.143438