/*--------------------------------*- C++ -*----------------------------------*\
| =========                 |                                                 |
| \\      /  F ield         | OpenFOAM: The Open Source CFD Toolbox           |
|  \\    /   O peration     | Version:  2.4.0                                 |
|   \\  /    A nd           | Web:      www.OpenFOAM.org                      |
|    \\/     M anipulation  |                                                 |
\*---------------------------------------------------------------------------*/
FoamFile
{
    version     2.0;
    format      ascii;
    class       surfaceScalarField;
    location    "3.9";
    object      phi;
}
// * * * * * * * * * * * * * * * * * * * * * * * * * * * * * * * * * * * * * //

dimensions      [0 3 -1 0 0 0 0];

internalField   nonuniform List<scalar> 
12720
(
1.54973e-07
-1.54931e-07
1.11359e-10
-5.40665e-07
6.93876e-07
1.76111e-09
-2.06827e-06
1.525e-06
2.60334e-09
-4.18083e-06
2.10923e-06
3.33343e-09
-6.64199e-06
2.45739e-06
3.76948e-09
-9.25694e-06
2.611e-06
3.94903e-09
-1.18653e-05
2.60439e-06
3.95961e-09
-1.43281e-05
2.45897e-06
3.80357e-09
-1.65239e-05
2.19237e-06
3.45424e-09
1.83341e-06
2.88794e-09
-1.83602e-05
-7.25363e-07
5.71851e-07
-1.42073e-09
-3.29575e-06
3.26384e-06
4.23501e-10
-7.50011e-06
5.73085e-06
-1.49126e-09
-1.2914e-05
7.52549e-06
-2.37838e-09
-1.90886e-05
8.63483e-06
-2.82432e-09
-2.56046e-05
9.13011e-06
-3.10497e-09
-3.20819e-05
9.08479e-06
-3.11602e-09
-3.81777e-05
8.55764e-06
-2.8976e-09
-4.35964e-05
7.61367e-06
-2.54165e-09
6.36134e-06
-2.19297e-09
-4.81222e-05
-1.69342e-06
2.26776e-06
-2.48891e-09
-6.13374e-06
7.70188e-06
2.28286e-09
-1.27253e-05
1.23223e-05
1.20279e-10
-2.08719e-05
1.56722e-05
-8.22472e-11
-2.99868e-05
1.77495e-05
1.27361e-10
-3.9511e-05
1.86542e-05
1.17514e-10
-4.89165e-05
1.84902e-05
1.27875e-10
-5.77094e-05
1.73503e-05
1.86093e-10
-6.54544e-05
1.53584e-05
2.53986e-10
1.27383e-05
1.56728e-10
-7.18314e-05
-2.48918e-06
4.76057e-06
-3.63104e-09
-8.51357e-06
1.37231e-05
3.20757e-09
-1.70873e-05
2.0896e-05
-2.72877e-12
-2.74254e-05
2.60107e-05
-2.75268e-10
-3.88266e-05
2.91507e-05
9.16865e-11
-5.0635e-05
3.04624e-05
1.32573e-10
-6.22162e-05
3.00712e-05
1.7245e-10
-7.29542e-05
2.8088e-05
2.7838e-10
-8.22814e-05
2.46852e-05
4.78682e-10
2.02173e-05
4.21743e-10
-8.97608e-05
-3.0523e-06
7.81731e-06
-4.44433e-09
-1.02354e-05
2.09024e-05
3.76914e-09
-2.02595e-05
3.09206e-05
-4.1974e-10
-3.21812e-05
3.79333e-05
-9.21369e-10
-4.52097e-05
4.21797e-05
-5.56754e-10
-5.86213e-05
4.38745e-05
-5.32847e-10
-7.17039e-05
4.31543e-05
-4.76615e-10
-8.37339e-05
4.01183e-05
-2.80024e-10
-9.39972e-05
3.49482e-05
3.01675e-10
2.81054e-05
5.90528e-10
-0.000101886
-3.35832e-06
1.11805e-05
-4.83261e-09
-1.11927e-05
2.87326e-05
4.17361e-09
-2.20395e-05
4.1768e-05
-5.52469e-10
-3.48568e-05
5.07518e-05
-1.17416e-09
-4.88002e-05
5.61239e-05
-8.15182e-10
-6.31093e-05
5.81844e-05
-8.11575e-10
-7.70242e-05
5.70699e-05
-7.94648e-10
-8.97309e-05
5.28256e-05
-6.39895e-10
-0.000100346
4.55631e-05
5.18777e-10
3.57414e-05
1.64128e-09
-0.000107984
-3.39791e-06
1.45836e-05
-5.1926e-09
-1.13348e-05
3.66652e-05
4.28907e-09
-2.23128e-05
5.27466e-05
-5.91831e-10
-3.52622e-05
6.37024e-05
-1.28577e-09
-4.93251e-05
7.01878e-05
-9.81765e-10
-6.37393e-05
7.25996e-05
-1.02056e-09
-7.7737e-05
7.10688e-05
-1.1321e-09
-9.04539e-05
6.55439e-05
-1.35824e-09
-0.000100841
5.59495e-05
6.8007e-10
4.2468e-05
4.16757e-09
-0.000107572
-3.17784e-06
1.77659e-05
-4.46542e-09
-1.06679e-05
4.41511e-05
4.10896e-09
-2.10643e-05
6.31436e-05
-5.41659e-10
-3.33303e-05
7.59696e-05
-1.25151e-09
-4.66239e-05
8.34825e-05
-1.02502e-09
-6.02056e-05
8.61824e-05
-1.04397e-09
-7.3343e-05
8.42073e-05
-1.18405e-09
-8.5194e-05
7.7397e-05
-2.10182e-09
-9.46304e-05
6.53839e-05
2.00543e-09
4.75312e-05
1.45046e-08
-9.97082e-05
-2.7289e-06
2.04985e-05
-3.73315e-09
-9.27682e-06
5.06953e-05
3.72079e-09
-1.84239e-05
7.2291e-05
-3.75207e-10
-2.92005e-05
8.67473e-05
-1.049e-09
-4.07792e-05
9.50621e-05
-9.6334e-10
-5.24265e-05
9.78307e-05
-1.04401e-09
-6.34444e-05
9.52266e-05
-1.40328e-09
-7.30663e-05
8.70239e-05
-4.91465e-09
-8.0305e-05
7.26241e-05
-1.46379e-09
4.98344e-05
3.25589e-08
-8.26407e-05
-2.11553e-06
-2.70901e-09
2.26167e-05
-7.35123e-06
3.21178e-09
5.59278e-05
-1.47249e-05
-6.38335e-11
7.96647e-05
-2.33385e-05
-5.98137e-10
9.53614e-05
-3.23341e-05
-6.3558e-10
0.000104058
-4.08814e-05
-9.32069e-10
0.000106379
-4.81579e-05
-1.97991e-09
0.000102505
-5.32433e-05
-1.2229e-08
9.21215e-05
-5.50257e-05
-2.86063e-08
7.44352e-05
9.82211e-09
-5.23319e-05
4.71307e-05
1.56233e-07
-1.56113e-07
-7.27282e-12
-5.41348e-07
6.99348e-07
-5.74477e-12
-2.06904e-06
1.5303e-06
-2.72698e-12
-4.18098e-06
2.11527e-06
-7.91229e-13
-6.64186e-06
2.46465e-06
2.17968e-13
-9.25679e-06
2.61888e-06
7.07088e-13
-1.18652e-05
2.61241e-06
9.28574e-13
-1.43282e-05
2.46675e-06
1.0195e-12
-1.65243e-05
2.19953e-06
9.5682e-13
1.83941e-06
8.1472e-13
-1.83608e-05
-7.30112e-07
5.72584e-07
-5.78257e-12
-3.30144e-06
3.2711e-06
-4.07419e-12
-7.50514e-06
5.73252e-06
-1.87236e-12
-1.29175e-05
7.5252e-06
-5.43083e-13
-1.90903e-05
8.63464e-06
4.4302e-13
-2.56047e-05
9.13023e-06
9.42733e-13
-3.20808e-05
9.08534e-06
1.13113e-12
-3.81757e-05
8.55876e-06
1.15433e-12
-4.35941e-05
7.6154e-06
1.05247e-12
6.36294e-06
8.9051e-13
-4.81198e-05
-1.69886e-06
2.26896e-06
-2.79304e-12
-6.13453e-06
7.70906e-06
-1.95653e-12
-1.27261e-05
1.23242e-05
-5.35241e-13
-2.0873e-05
1.5672e-05
7.35906e-14
-2.99873e-05
1.77492e-05
7.3243e-13
-3.95111e-05
1.86541e-05
1.13532e-12
-4.89161e-05
1.84905e-05
1.27231e-12
-5.77087e-05
1.73515e-05
1.23917e-12
-6.54539e-05
1.53609e-05
1.10619e-12
1.27405e-05
9.32453e-13
-7.18314e-05
-2.49603e-06
4.76136e-06
-8.93015e-13
-8.51246e-06
1.37287e-05
-7.37281e-13
-1.70861e-05
2.08979e-05
3.61834e-13
-2.74252e-05
2.60108e-05
6.4268e-13
-3.88266e-05
2.91506e-05
1.00992e-12
-5.06349e-05
3.04625e-05
1.29232e-12
-6.2216e-05
3.00718e-05
1.35048e-12
-7.29539e-05
2.80897e-05
1.2651e-12
-8.22818e-05
2.46892e-05
1.10804e-12
2.02212e-05
9.28107e-13
-8.97621e-05
-3.06086e-06
7.81777e-06
4.27775e-13
-1.0234e-05
2.09056e-05
-2.44785e-14
-2.02579e-05
3.09214e-05
9.06465e-13
-3.21809e-05
3.79328e-05
1.05146e-12
-4.52097e-05
4.21789e-05
1.18326e-12
-5.86213e-05
4.38736e-05
1.33523e-12
-7.17038e-05
4.31537e-05
1.33287e-12
-8.37334e-05
4.01191e-05
1.21636e-12
-9.39975e-05
3.49537e-05
1.05003e-12
2.81126e-05
8.74899e-13
-0.000101888
-3.36784e-06
1.11808e-05
1.22947e-12
-1.11912e-05
2.87331e-05
6.03186e-13
-2.20379e-05
4.17675e-05
1.23866e-12
-3.48567e-05
5.07505e-05
1.3276e-12
-4.88007e-05
5.61221e-05
1.29997e-12
-6.31102e-05
5.81823e-05
1.29986e-12
-7.70248e-05
5.70675e-05
1.24441e-12
-8.97304e-05
5.2824e-05
1.12212e-12
-0.000100346
4.55702e-05
9.68268e-13
3.5756e-05
8.06773e-13
-0.000107988
-3.40769e-06
1.45833e-05
1.21102e-12
-1.13334e-05
3.66631e-05
8.60905e-13
-2.23114e-05
5.27449e-05
1.27196e-12
-3.52627e-05
6.37004e-05
1.2829e-12
-4.93266e-05
7.01851e-05
1.22619e-12
-6.37416e-05
7.25962e-05
1.17728e-12
-7.77392e-05
7.10641e-05
1.1195e-12
-9.0454e-05
6.55374e-05
1.03016e-12
-0.00010084
5.59568e-05
9.13633e-13
4.25004e-05
7.63309e-13
-0.00010758
-3.18677e-06
1.77656e-05
7.46411e-13
-1.06666e-05
4.4147e-05
7.07084e-13
-2.10633e-05
6.31411e-05
1.08775e-12
-3.33314e-05
7.59673e-05
1.13356e-12
-4.66266e-05
8.34792e-05
1.08252e-12
-6.02097e-05
8.61782e-05
1.03834e-12
-7.33475e-05
8.42007e-05
1.01561e-12
-8.51941e-05
7.7382e-05
9.87192e-13
-9.46178e-05
6.53824e-05
9.26126e-13
4.76141e-05
7.87686e-13
-9.9717e-05
-2.73634e-06
2.04982e-05
5.45868e-13
-9.27552e-06
5.06899e-05
8.17604e-13
-1.84231e-05
7.22883e-05
1.00801e-12
-2.92024e-05
8.67455e-05
9.90994e-13
-4.0784e-05
9.50599e-05
9.35467e-13
-5.24349e-05
9.78281e-05
9.11633e-13
-6.34588e-05
9.52231e-05
9.29385e-13
-7.30861e-05
8.70044e-05
9.44389e-13
-8.02811e-05
7.2576e-05
9.15627e-13
4.99521e-05
7.94205e-13
-8.25865e-05
-2.12094e-06
6.62663e-13
2.26164e-05
-7.34963e-06
8.65116e-13
5.59218e-05
-1.47235e-05
8.91849e-13
7.96622e-05
-2.33393e-05
8.35467e-13
9.53607e-05
-3.23388e-05
7.88187e-13
0.000104059
-4.08933e-05
7.88758e-13
0.000106382
-4.81867e-05
8.24749e-13
0.000102515
-5.33318e-05
8.1701e-13
9.21372e-05
-5.5167e-05
7.43626e-13
7.43826e-05
6.39838e-13
-5.2103e-05
4.68979e-05
1.5622e-07
-1.56126e-07
-1.02404e-10
-5.41357e-07
6.99338e-07
-1.76457e-09
-2.06905e-06
1.5303e-06
-2.60575e-09
-4.18098e-06
2.11527e-06
-3.33388e-09
-6.64186e-06
2.46465e-06
-3.76881e-09
-9.2568e-06
2.61888e-06
-3.94784e-09
-1.18652e-05
2.61241e-06
-3.95819e-09
-1.43282e-05
2.46675e-06
-3.80206e-09
-1.65243e-05
2.19953e-06
-3.45278e-09
1.83941e-06
-2.88666e-09
-1.83608e-05
-7.30122e-07
5.72575e-07
1.41727e-09
-3.30145e-06
3.27109e-06
-4.26651e-10
-7.50516e-06
5.73251e-06
1.49009e-09
-1.29175e-05
7.5252e-06
2.37839e-09
-1.90903e-05
8.63464e-06
2.82532e-09
-2.56047e-05
9.13023e-06
3.10653e-09
-3.20808e-05
9.08533e-06
3.11782e-09
-3.81757e-05
8.55876e-06
2.8994e-09
-4.35941e-05
7.6154e-06
2.54331e-09
6.36293e-06
2.1944e-09
-4.81198e-05
-1.69886e-06
2.26895e-06
2.48654e-09
-6.13454e-06
7.70905e-06
-2.28403e-09
-1.27261e-05
1.23242e-05
-1.20007e-10
-2.0873e-05
1.5672e-05
8.28267e-11
-2.99874e-05
1.77491e-05
-1.26108e-10
-3.95111e-05
1.86541e-05
-1.15818e-10
-4.89161e-05
1.84905e-05
-1.26006e-10
-5.77087e-05
1.73515e-05
-1.84285e-10
-6.54539e-05
1.53609e-05
-2.52364e-10
1.27405e-05
-1.55354e-10
-7.18314e-05
-2.49604e-06
4.76135e-06
3.63046e-09
-8.51246e-06
1.37287e-05
-3.20774e-09
-1.70861e-05
2.08979e-05
4.03213e-12
-2.74252e-05
2.60108e-05
2.76576e-10
-3.88266e-05
2.91506e-05
-9.00117e-11
-5.06349e-05
3.04625e-05
-1.30676e-10
-6.2216e-05
3.00718e-05
-1.70531e-10
-7.29539e-05
2.80897e-05
-2.7659e-10
-8.22818e-05
2.46892e-05
-4.77111e-10
2.02212e-05
-4.20423e-10
-8.97621e-05
-3.06086e-06
7.81777e-06
4.44489e-09
-1.0234e-05
2.09056e-05
-3.76924e-09
-2.02579e-05
3.09214e-05
4.21122e-10
-3.21809e-05
3.79328e-05
9.22966e-10
-4.52097e-05
4.21789e-05
5.58654e-10
-5.86213e-05
4.38736e-05
5.34842e-10
-7.17038e-05
4.31537e-05
4.78508e-10
-8.37334e-05
4.01191e-05
2.81719e-10
-9.39975e-05
3.49537e-05
-3.0022e-10
2.81126e-05
-5.89309e-10
-0.000101888
-3.36784e-06
1.11808e-05
4.83426e-09
-1.11912e-05
2.87331e-05
-4.17291e-09
-2.20379e-05
4.17675e-05
5.54033e-10
-3.48567e-05
5.07505e-05
1.17589e-09
-4.88007e-05
5.61221e-05
8.17074e-10
-6.31102e-05
5.81823e-05
8.13438e-10
-7.70248e-05
5.70675e-05
7.96365e-10
-8.97304e-05
5.2824e-05
6.41404e-10
-0.000100346
4.55702e-05
-5.17486e-10
3.5756e-05
-1.64017e-09
-0.000107988
-3.40769e-06
1.45833e-05
5.19599e-09
-1.13334e-05
3.66631e-05
-4.28769e-09
-2.23114e-05
5.27449e-05
5.93426e-10
-3.52627e-05
6.37004e-05
1.28735e-09
-4.93266e-05
7.01851e-05
9.83391e-10
-6.37416e-05
7.25962e-05
1.02212e-09
-7.77392e-05
7.10641e-05
1.13353e-09
-9.0454e-05
6.55374e-05
1.3595e-09
-0.00010084
5.59568e-05
-6.78976e-10
4.25004e-05
-4.16656e-09
-0.00010758
-3.18677e-06
1.77656e-05
4.4674e-09
-1.06666e-05
4.4147e-05
-4.10715e-09
-2.10633e-05
6.31411e-05
5.43447e-10
-3.33314e-05
7.59673e-05
1.25306e-09
-4.66266e-05
8.34792e-05
1.02642e-09
-6.02097e-05
8.61782e-05
1.04524e-09
-7.33475e-05
8.42007e-05
1.18522e-09
-8.51941e-05
7.7382e-05
2.10287e-09
-9.46178e-05
6.53824e-05
-2.00451e-09
4.76141e-05
-1.45037e-08
-9.9717e-05
-2.73634e-06
2.04982e-05
3.73479e-09
-9.27552e-06
5.06899e-05
-3.71888e-09
-1.84231e-05
7.22883e-05
3.76927e-10
-2.92024e-05
8.67455e-05
1.0504e-09
-4.0784e-05
9.50599e-05
9.64508e-10
-5.24349e-05
9.78281e-05
1.04506e-09
-6.34588e-05
9.52231e-05
1.40429e-09
-7.30861e-05
8.70044e-05
4.91558e-09
-8.02811e-05
7.2576e-05
1.46453e-09
4.99521e-05
-3.25582e-08
-8.25865e-05
-2.12094e-06
2.71022e-09
2.26164e-05
-7.34963e-06
-3.21032e-09
5.59218e-05
-1.47235e-05
6.51911e-11
7.96622e-05
-2.33393e-05
5.99255e-10
9.53607e-05
-3.23388e-05
6.36505e-10
0.000104059
-4.08933e-05
9.32925e-10
0.000106382
-4.81867e-05
1.98079e-09
0.000102515
-5.33318e-05
1.22298e-08
9.21372e-05
-5.5167e-05
2.86067e-08
7.43826e-05
-9.82164e-09
-5.2103e-05
4.68979e-05
1.54899e-07
-1.55004e-07
-5.40702e-07
6.93838e-07
-2.06829e-06
1.52498e-06
-4.18085e-06
2.10923e-06
-6.642e-06
2.45738e-06
-9.25695e-06
2.611e-06
-1.18653e-05
2.60439e-06
-1.43281e-05
2.45897e-06
-1.65239e-05
2.19237e-06
1.83341e-06
-1.83602e-05
-7.25401e-07
5.71813e-07
-3.29579e-06
3.2638e-06
-7.50014e-06
5.73083e-06
-1.2914e-05
7.52548e-06
-1.90886e-05
8.63482e-06
-2.56046e-05
9.13011e-06
-3.20819e-05
9.08479e-06
-3.81777e-05
8.55764e-06
-4.35964e-05
7.61367e-06
6.36133e-06
-4.81222e-05
-1.69344e-06
2.26774e-06
-6.13377e-06
7.70184e-06
-1.27253e-05
1.23222e-05
-2.0872e-05
1.56722e-05
-2.99868e-05
1.77495e-05
-3.95111e-05
1.86542e-05
-4.89165e-05
1.84901e-05
-5.77094e-05
1.73503e-05
-6.54544e-05
1.53584e-05
1.27383e-05
-7.18314e-05
-2.48919e-06
4.76056e-06
-8.51358e-06
1.3723e-05
-1.70873e-05
2.0896e-05
-2.74255e-05
2.60106e-05
-3.88267e-05
2.91506e-05
-5.0635e-05
3.04624e-05
-6.22162e-05
3.00712e-05
-7.29542e-05
2.8088e-05
-8.22814e-05
2.46852e-05
2.02172e-05
-8.97608e-05
-3.0523e-06
7.8173e-06
-1.02354e-05
2.09023e-05
-2.02596e-05
3.09206e-05
-3.21813e-05
3.79333e-05
-4.52097e-05
4.21797e-05
-5.86213e-05
4.38745e-05
-7.17039e-05
4.31543e-05
-8.37339e-05
4.01183e-05
-9.39972e-05
3.49482e-05
2.81054e-05
-0.000101886
-3.35832e-06
1.11805e-05
-1.11927e-05
2.87325e-05
-2.20395e-05
4.17679e-05
-3.48568e-05
5.07517e-05
-4.88002e-05
5.61239e-05
-6.31094e-05
5.81844e-05
-7.70242e-05
5.70699e-05
-8.97309e-05
5.28256e-05
-0.000100346
4.55631e-05
3.57414e-05
-0.000107984
-3.39791e-06
1.45836e-05
-1.13348e-05
3.66652e-05
-2.23128e-05
5.27465e-05
-3.52622e-05
6.37024e-05
-4.93251e-05
7.01878e-05
-6.37393e-05
7.25996e-05
-7.7737e-05
7.10688e-05
-9.04539e-05
6.55439e-05
-0.000100841
5.59495e-05
4.2468e-05
-0.000107572
-3.17784e-06
1.77659e-05
-1.06679e-05
4.41511e-05
-2.10643e-05
6.31436e-05
-3.33303e-05
7.59696e-05
-4.66239e-05
8.34825e-05
-6.02056e-05
8.61824e-05
-7.3343e-05
8.42073e-05
-8.5194e-05
7.7397e-05
-9.46304e-05
6.53839e-05
4.75312e-05
-9.97082e-05
-2.7289e-06
2.04985e-05
-9.27682e-06
5.06953e-05
-1.84239e-05
7.2291e-05
-2.92005e-05
8.67473e-05
-4.07792e-05
9.50621e-05
-5.24265e-05
9.78307e-05
-6.34444e-05
9.52266e-05
-7.30663e-05
8.70239e-05
-8.0305e-05
7.26241e-05
4.98344e-05
-8.26407e-05
-2.11553e-06
2.26167e-05
-7.35123e-06
5.59278e-05
-1.47249e-05
7.96647e-05
-2.33385e-05
9.53614e-05
-3.23341e-05
0.000104058
-4.08814e-05
0.000106379
-4.8158e-05
0.000102505
-5.32433e-05
9.21215e-05
-5.50257e-05
7.44352e-05
-5.23319e-05
4.71307e-05
-1.97953e-05
1.43294e-06
2.17366e-09
-2.08505e-05
1.05365e-06
1.52237e-09
-2.15885e-05
7.37053e-07
1.00942e-09
-2.20867e-05
4.97557e-07
6.38733e-10
-2.24185e-05
3.31362e-07
3.93356e-10
-2.26451e-05
2.26363e-07
2.45572e-10
-2.28144e-05
1.69174e-07
1.68771e-10
-2.29631e-05
1.48549e-07
1.42785e-10
-2.31194e-05
1.56082e-07
1.53928e-10
-2.33049e-05
1.85368e-07
1.93498e-10
-2.35356e-05
2.30397e-07
2.55388e-10
-2.38195e-05
2.83553e-07
3.33156e-10
-2.41533e-05
3.33418e-07
4.17011e-10
-2.45164e-05
3.6264e-07
4.90719e-10
-2.48634e-05
3.46454e-07
5.27372e-10
-2.51168e-05
2.52897e-07
4.83444e-10
-2.51646e-05
4.74595e-08
3.04393e-10
-2.48618e-05
-3.02718e-07
-4.34211e-11
-2.40557e-05
-8.05436e-07
-6.55646e-10
-1.43516e-06
-1.57774e-09
-2.2619e-05
-5.16662e-05
4.97888e-06
-1.94016e-09
-5.42885e-05
3.67758e-06
-1.62037e-09
-5.61433e-05
2.59316e-06
-1.2826e-09
-5.74152e-05
1.77047e-06
-9.81106e-10
-5.82781e-05
1.19499e-06
-7.35087e-10
-5.88767e-05
8.25525e-07
-5.54181e-10
-5.93239e-05
6.16752e-07
-4.38035e-10
-5.97048e-05
5.29812e-07
-3.79248e-10
-6.00828e-05
5.34479e-07
-3.67419e-10
-6.05036e-05
6.06527e-07
-3.9037e-10
-6.09955e-05
7.22739e-07
-4.33235e-10
-6.15662e-05
8.54784e-07
-4.76344e-10
-6.2195e-05
9.62737e-07
-4.92897e-10
-6.28211e-05
9.89169e-07
-4.47395e-10
-6.333e-05
8.55622e-07
-2.96141e-10
-6.35418e-05
4.64674e-07
6.63391e-12
-6.32072e-05
-2.87629e-07
4.90895e-10
-6.20252e-05
-1.48584e-06
1.14545e-09
-5.96823e-05
-3.1503e-06
1.92965e-09
-5.1865e-06
2.66736e-09
-5.59336e-05
-7.67231e-05
9.87074e-06
-2.37657e-10
-8.02612e-05
7.21618e-06
-4.15883e-10
-8.27119e-05
5.04423e-06
-4.57054e-10
-8.43632e-05
3.42224e-06
-4.35262e-10
-8.54681e-05
2.30024e-06
-3.72568e-10
-8.62254e-05
1.58318e-06
-2.98074e-10
-8.67831e-05
1.1746e-06
-2.30427e-10
-8.72479e-05
9.94859e-07
-1.76788e-10
-8.76964e-05
9.83077e-07
-1.38137e-10
-8.81806e-05
1.09088e-06
-1.11941e-10
-8.87304e-05
1.27257e-06
-9.37154e-11
-8.93492e-05
1.47366e-06
-7.77413e-11
-9.00055e-05
1.61913e-06
-5.72277e-11
-9.06189e-05
1.60259e-06
-2.37767e-11
-9.10428e-05
1.27948e-06
3.38111e-11
-9.1048e-05
4.69798e-07
1.24918e-10
-9.03148e-05
-1.02107e-06
2.44341e-10
-8.84459e-05
-3.35515e-06
3.8422e-10
-8.50155e-05
-6.58127e-06
5.28343e-10
-1.05294e-05
4.49721e-10
-7.9673e-05
-9.52465e-05
1.53568e-05
-3.79318e-10
-9.9007e-05
1.09773e-05
-6.12996e-10
-0.000101474
7.51177e-06
-6.09884e-10
-0.000103054
5.00275e-06
-5.42866e-10
-0.000104064
3.31094e-06
-4.32649e-10
-0.00010473
2.24907e-06
-3.20601e-10
-0.000105203
1.64821e-06
-2.27565e-10
-0.000105586
1.3783e-06
-1.56951e-10
-0.000105948
1.34472e-06
-1.06654e-10
-0.000106332
1.47534e-06
-7.27126e-11
-0.000106764
1.70437e-06
-5.09399e-11
-0.000107245
1.95509e-06
-3.75005e-11
-0.000107749
2.1223e-06
-2.87857e-11
-0.000108202
2.05551e-06
-1.91352e-11
-0.000108468
1.54602e-06
5.64459e-12
-0.000108323
3.24752e-07
6.11838e-11
-0.00010743
-1.91429e-06
1.30304e-10
-0.000105332
-5.4537e-06
2.60604e-10
-0.000101484
-1.04295e-05
5.09956e-10
-1.66431e-05
4.50461e-10
-9.53707e-05
-0.00010719
2.06623e-05
-1.03387e-09
-0.00011044
1.42282e-05
-1.16024e-09
-0.000112325
9.39782e-06
-9.41315e-10
-0.000113388
6.06665e-06
-7.36624e-10
-0.000113987
3.91042e-06
-5.19208e-10
-0.000114337
2.59894e-06
-3.41611e-10
-0.00011456
1.87165e-06
-2.18509e-10
-0.000114727
1.54558e-06
-1.38912e-10
-0.00011488
1.49714e-06
-9.09867e-11
-0.000115042
1.63813e-06
-6.54887e-11
-0.00011523
1.89237e-06
-5.59735e-11
-0.000115448
2.17318e-06
-5.81481e-11
-0.000115687
2.36071e-06
-6.88635e-11
-0.00011591
2.27854e-06
-8.18358e-11
-0.000116035
1.67111e-06
-7.25277e-11
-0.000115897
1.87047e-07
-6.433e-12
-0.000115203
-2.60788e-06
6.2961e-11
-0.000113476
-7.18095e-06
2.56661e-10
-0.000110032
-1.38751e-05
8.97523e-10
-2.26092e-05
1.28813e-09
-0.000104067
-0.000112248
2.49286e-05
-2.20729e-09
-0.000114195
1.61768e-05
-1.8863e-09
-0.000114914
1.01185e-05
-1.18386e-09
-0.000115079
6.23239e-06
-7.93031e-10
-0.000115032
3.86372e-06
-4.66953e-10
-0.000114922
2.48951e-06
-2.46445e-10
-0.000114804
1.75321e-06
-1.22174e-10
-0.000114689
1.43073e-06
-5.62398e-11
-0.000114576
1.38423e-06
-2.40486e-11
-0.000114461
1.52378e-06
-1.17736e-11
-0.000114346
1.77738e-06
-1.25666e-11
-0.000114239
2.06559e-06
-2.39851e-11
-0.000114154
2.27642e-06
-4.62107e-11
-0.000114113
2.23702e-06
-7.83507e-11
-0.000114122
1.67993e-06
-9.74547e-11
-0.000114137
2.02873e-07
-5.87722e-11
-0.000113992
-2.75346e-06
-3.19484e-11
-0.000113269
-7.90414e-06
1.41344e-10
-0.000111155
-1.59899e-05
1.54466e-09
-2.73832e-05
3.27233e-09
-0.000106385
-0.000109742
2.71043e-05
-5.87169e-09
-0.000109531
1.59701e-05
-3.88207e-09
-0.000108596
9.18499e-06
-1.79719e-09
-0.000107641
5.27831e-06
-9.36901e-10
-0.000106873
3.09595e-06
-3.98337e-10
-0.000106297
1.91375e-06
-1.23208e-10
-0.000105856
1.31284e-06
-1.50968e-11
-0.000105488
1.06236e-06
2.03704e-11
-0.00010514
1.03585e-06
2.47255e-11
-0.000104775
1.15958e-06
1.48006e-11
-0.000104378
1.38038e-06
-3.7282e-12
-0.000103955
1.64204e-06
-3.03054e-11
-0.000103541
1.86278e-06
-6.62748e-11
-0.000103212
1.90751e-06
-1.14966e-10
-0.000103079
1.54751e-06
-1.51988e-10
-0.000103273
3.97018e-07
-7.79535e-11
-0.000103857
-2.17001e-06
9.27751e-11
-0.000104643
-7.11804e-06
4.66735e-10
-0.000104832
-1.58043e-05
3.73621e-09
-2.97189e-05
8.99353e-09
-0.000102506
-9.83045e-05
2.57105e-05
-9.97287e-09
-9.51316e-05
1.28013e-05
-4.05819e-09
-9.23677e-05
6.42192e-06
-8.26428e-10
-9.04044e-05
3.31527e-06
-3.13295e-10
-8.9101e-05
1.7926e-06
4.08688e-11
-8.82362e-05
1.0487e-06
1.65542e-10
-8.7624e-05
7.00564e-07
1.56673e-10
-8.71307e-05
5.68881e-07
1.28938e-10
-8.6664e-05
5.69029e-07
1.06914e-10
-8.61631e-05
6.5857e-07
9.14725e-11
-8.55939e-05
8.11182e-07
7.88021e-11
-8.49528e-05
1.00085e-06
6.2878e-11
-8.42778e-05
1.18774e-06
3.42635e-11
-8.36693e-05
1.29902e-06
-3.34045e-11
-8.33169e-05
1.19526e-06
-1.32317e-10
-8.3522e-05
6.02115e-07
-4.31599e-11
-8.46611e-05
-1.03095e-06
1.24166e-10
-8.70496e-05
-4.72911e-06
-4.64049e-10
-9.03543e-05
-1.25029e-05
3.30081e-09
-2.79727e-05
1.43649e-08
-9.21149e-05
-7.5075e-05
1.81573e-05
-1.24581e-08
-6.87569e-05
6.47762e-06
5.52205e-09
-6.48664e-05
2.52529e-06
6.18743e-09
-6.26241e-05
1.0703e-06
2.64665e-09
-6.13316e-05
4.9871e-07
1.37112e-09
-6.05512e-05
2.67504e-07
8.33254e-10
-6.00276e-05
1.76403e-07
5.25051e-10
-5.96099e-05
1.50835e-07
3.98653e-10
-5.92044e-05
1.63141e-07
3.8351e-10
-5.87491e-05
2.02851e-07
4.31626e-10
-5.82039e-05
2.65456e-07
5.17831e-10
-5.7551e-05
3.47321e-07
6.20292e-10
-5.68058e-05
4.41793e-07
7.00778e-10
-5.60406e-05
5.33148e-07
6.61121e-10
-5.54287e-05
5.82988e-07
3.75928e-10
-5.53287e-05
5.02218e-07
-8.902e-11
-5.63244e-05
-3.3579e-08
-1.66453e-09
-5.94593e-05
-1.58653e-06
-7.69001e-09
-6.58268e-05
-6.12496e-06
-1.04466e-08
-1.93943e-05
1.55154e-08
-7.44207e-05
-3.41054e-05
-6.91596e-08
-2.7616e-05
-1.17877e-08
-2.50899e-05
-8.59474e-10
-2.40177e-05
-1.89315e-09
-2.35177e-05
-1.23081e-09
-2.32497e-05
-5.79222e-10
-2.30729e-05
-3.28554e-10
-2.29219e-05
-2.33565e-10
-2.27585e-05
-2.07475e-10
-2.25554e-05
-2.28419e-10
-2.22897e-05
-2.82635e-10
-2.1942e-05
-3.56675e-10
-2.14998e-05
-4.31425e-10
-2.09662e-05
-4.73198e-10
-2.03828e-05
-3.65594e-10
-1.98808e-05
2.07584e-10
-1.99152e-05
7.7093e-10
-2.14991e-05
-2.56241e-09
-2.76292e-05
5.07378e-09
8.75456e-08
-4.7111e-05
-1.97959e-05
1.43726e-06
6.59307e-13
-2.08509e-05
1.05658e-06
5.17963e-13
-2.15889e-05
7.38946e-07
3.95729e-13
-2.2087e-05
4.98719e-07
2.92076e-13
-2.24186e-05
3.32059e-07
2.05082e-13
-2.26452e-05
2.26797e-07
1.34596e-13
-2.28145e-05
1.69489e-07
7.47257e-14
-2.29632e-05
1.48842e-07
3.3118e-14
-2.31195e-05
1.56422e-07
-7.23435e-15
-2.33051e-05
1.85804e-07
-4.52017e-14
-2.35358e-05
2.30965e-07
-6.58482e-14
-2.38197e-05
2.84272e-07
-7.62968e-14
-2.41536e-05
3.34278e-07
-8.38149e-14
-2.45167e-05
3.63599e-07
-8.94226e-14
-2.48636e-05
3.4742e-07
-8.69857e-14
-2.51168e-05
2.53729e-07
-9.13762e-14
-2.51642e-05
4.77102e-08
-9.1438e-14
-2.48613e-05
-3.02932e-07
-9.34827e-14
-2.40553e-05
-8.06748e-07
-9.9128e-14
-1.43818e-06
-1.05413e-13
-2.26187e-05
-5.16636e-05
4.97916e-06
7.25303e-13
-5.42859e-05
3.67725e-06
5.7847e-13
-5.6141e-05
2.59271e-06
4.48164e-13
-5.74133e-05
1.77007e-06
3.30399e-13
-5.82767e-05
1.19469e-06
2.2375e-13
-5.88758e-05
8.2533e-07
1.30287e-13
-5.93233e-05
6.1663e-07
5.08696e-14
-5.97046e-05
5.29726e-07
-1.34128e-14
-6.00829e-05
5.34391e-07
-6.37827e-14
-6.05039e-05
6.064e-07
-1.01144e-13
-6.09959e-05
7.22533e-07
-1.24354e-13
-6.15666e-05
8.54463e-07
-1.36829e-13
-6.21951e-05
9.62275e-07
-1.34753e-13
-6.28205e-05
9.88577e-07
-1.19197e-13
-6.33284e-05
8.5498e-07
-1.08711e-13
-6.35388e-05
4.64158e-07
-9.69122e-14
-6.32028e-05
-2.87779e-07
-8.24805e-14
-6.20195e-05
-1.48507e-06
-7.15071e-14
-5.96761e-05
-3.1483e-06
-6.54539e-14
-5.18394e-06
-6.2245e-14
-5.59276e-05
-7.67223e-05
9.86985e-06
7.61889e-13
-8.02598e-05
7.21432e-06
6.10612e-13
-8.27101e-05
5.04258e-06
4.76469e-13
-8.43615e-05
3.42101e-06
3.51425e-13
-8.54666e-05
2.29945e-06
2.36707e-13
-8.62243e-05
1.58273e-06
1.26739e-13
-8.67823e-05
1.17436e-06
4.16925e-14
-8.72475e-05
9.94734e-07
-2.02053e-14
-8.76962e-05
9.82975e-07
-7.22722e-14
-8.81806e-05
1.09073e-06
-1.13466e-13
-8.87305e-05
1.27228e-06
-1.42089e-13
-8.93493e-05
1.47318e-06
-1.46622e-13
-9.00055e-05
1.6184e-06
-1.32176e-13
-9.06185e-05
1.6016e-06
-1.13534e-13
-9.10418e-05
1.27834e-06
-8.85566e-14
-9.10463e-05
4.68763e-07
-6.19646e-14
-9.03123e-05
-1.02158e-06
-4.46776e-14
-8.84427e-05
-3.35428e-06
-4.05291e-14
-8.50123e-05
-6.57815e-06
-4.84869e-14
-1.05253e-05
-6.36629e-14
-7.96704e-05
-9.52462e-05
1.53535e-05
7.57625e-13
-9.90054e-05
1.09729e-05
6.10092e-13
-0.000101472
7.50844e-06
4.80055e-13
-0.000103052
5.0005e-06
3.50823e-13
-0.000104062
3.3096e-06
2.44657e-13
-0.000104728
2.24837e-06
1.25959e-13
-0.000105202
1.6479e-06
3.72941e-14
-0.000105586
1.37818e-06
-2.51947e-14
-0.000105948
1.34465e-06
-7.30722e-14
-0.000106332
1.47524e-06
-1.14279e-13
-0.000106764
1.70413e-06
-1.37772e-13
-0.000107246
1.95462e-06
-1.36982e-13
-0.000107749
2.12151e-06
-1.18741e-13
-0.000108201
2.05434e-06
-8.40639e-14
-0.000108468
1.54456e-06
-4.41151e-14
-0.000108322
3.23377e-07
-1.78297e-14
-0.000107428
-1.9153e-06
-1.42284e-14
-0.000105329
-5.45297e-06
-3.36543e-14
-0.000101482
-1.0425e-05
-7.09191e-14
-1.66369e-05
-1.12485e-13
-9.537e-05
-0.000107189
2.06536e-05
7.13316e-13
-0.000110437
1.42194e-05
5.79265e-13
-0.000112322
9.39238e-06
4.63483e-13
-0.000113386
6.06345e-06
3.17338e-13
-0.000113985
3.90873e-06
2.10105e-13
-0.000114336
2.59818e-06
9.30956e-14
-0.000114559
1.87137e-06
4.72072e-15
-0.000114727
1.54552e-06
-4.43102e-14
-0.000114879
1.49714e-06
-8.37812e-14
-0.000115042
1.63807e-06
-1.20648e-13
-0.00011523
1.89216e-06
-1.38766e-13
-0.000115448
2.17271e-06
-1.29155e-13
-0.000115687
2.35986e-06
-9.40392e-14
-0.00011591
2.27719e-06
-4.77102e-14
-0.000116035
1.66927e-06
-1.02922e-14
-0.000115897
1.85382e-07
4.22764e-15
-0.000115202
-2.6097e-06
-1.0889e-14
-0.000113474
-7.18076e-06
-5.23143e-14
-0.00011003
-1.38684e-05
-9.45096e-14
-2.25981e-05
-1.37775e-13
-0.000104067
-0.000112245
2.49083e-05
6.50855e-13
-0.000114189
1.61614e-05
5.32053e-13
-0.000114909
1.01115e-05
4.49429e-13
-0.000115076
6.22911e-06
3.1411e-13
-0.00011503
3.86236e-06
1.92732e-13
-0.000114921
2.48911e-06
7.35318e-14
-0.000114803
1.75319e-06
-4.52915e-14
-0.000114688
1.43083e-06
-9.83543e-14
-0.000114575
1.38433e-06
-1.20232e-13
-0.000114461
1.5238e-06
-1.36469e-13
-0.000114346
1.77724e-06
-1.38976e-13
-0.000114239
2.06519e-06
-1.17483e-13
-0.000114155
2.27563e-06
-7.75252e-14
-0.000114113
2.23565e-06
-3.71503e-14
-0.000114122
1.67786e-06
-1.57187e-14
-0.000114137
2.00834e-07
-1.62411e-14
-0.000113991
-2.75648e-06
-4.11128e-14
-0.000113266
-7.90549e-06
-5.59092e-14
-0.000111153
-1.59797e-05
-6.13839e-14
-2.73601e-05
-8.22149e-14
-0.000106387
-0.000109734
2.70564e-05
5.73549e-13
-0.000109521
1.59442e-05
4.42761e-13
-0.000108589
9.17801e-06
3.52411e-13
-0.000107637
5.27638e-06
2.57511e-13
-0.000106871
3.09567e-06
1.02937e-13
-0.000106296
1.91402e-06
2.71494e-14
-0.000105856
1.31316e-06
-7.92771e-14
-0.000105488
1.0626e-06
-1.39273e-13
-0.000105139
1.03599e-06
-1.57579e-13
-0.000104775
1.1596e-06
-1.57684e-13
-0.000104378
1.38025e-06
-1.44464e-13
-0.000103955
1.64166e-06
-1.16836e-13
-0.000103541
1.86203e-06
-8.32469e-14
-0.000103212
1.90614e-06
-6.10829e-14
-0.000103079
1.54529e-06
-5.63393e-14
-0.000103273
3.94348e-07
-6.24475e-14
-0.000103855
-2.17414e-06
-4.65636e-14
-0.000104639
-7.12121e-06
1.00775e-14
-0.000104828
-1.57869e-05
7.09357e-14
-2.9664e-05
8.3795e-14
-0.000102515
-9.829e-05
2.56194e-05
5.14839e-13
-9.51211e-05
1.27712e-05
3.95532e-13
-9.23642e-05
6.42031e-06
3.36399e-13
-9.04041e-05
3.31596e-06
3.11539e-13
-8.91016e-05
1.79323e-06
1.07634e-13
-8.82367e-05
1.04925e-06
-2.34577e-14
-8.76243e-05
7.00911e-07
-1.18516e-13
-8.71306e-05
5.6907e-07
-1.72977e-13
-8.66637e-05
5.6912e-07
-1.86083e-13
-8.61626e-05
6.58585e-07
-1.75382e-13
-8.55933e-05
8.11117e-07
-1.52415e-13
-8.49523e-05
1.00067e-06
-1.24356e-13
-8.42776e-05
1.18736e-06
-1.03774e-13
-8.36697e-05
1.29825e-06
-1.0037e-13
-8.33184e-05
1.19378e-06
-9.69601e-14
-8.35239e-05
5.99896e-07
-7.49193e-14
-8.46648e-05
-1.03313e-06
-5.65692e-15
-8.70523e-05
-4.73416e-06
1.11419e-13
-9.03521e-05
-1.24839e-05
2.27063e-13
-2.7871e-05
2.41922e-13
-9.21307e-05
-7.50564e-05
1.80768e-05
3.80239e-13
-6.87645e-05
6.48483e-06
2.47692e-13
-6.48752e-05
2.53725e-06
1.43994e-13
-6.26305e-05
1.07395e-06
2.59732e-13
-6.13354e-05
4.99426e-07
1.24052e-13
-6.0553e-05
2.67746e-07
-3.1289e-14
-6.00282e-05
1.76604e-07
-1.4147e-13
-5.96098e-05
1.51085e-07
-1.95457e-13
-5.92038e-05
1.63497e-07
-2.04401e-13
-5.87482e-05
2.03367e-07
-1.87174e-13
-5.82027e-05
2.66198e-07
-1.60594e-13
-5.75498e-05
3.48365e-07
-1.35931e-13
-5.6805e-05
4.43233e-07
-1.25337e-13
-5.60412e-05
5.35103e-07
-1.24305e-13
-5.54324e-05
5.85413e-07
-9.51626e-14
-5.53351e-05
5.02457e-07
-3.23404e-14
-5.63396e-05
-3.03184e-08
7.02978e-14
-5.94858e-05
-1.59556e-06
1.92114e-13
-6.58429e-05
-6.13731e-06
3.05876e-13
-1.93302e-05
2.3267e-13
-7.43681e-05
-3.40954e-05
3.97381e-13
-2.76223e-05
3.03515e-13
-2.50859e-05
6.47529e-14
-2.40139e-05
1.31783e-13
-2.35157e-05
9.11916e-14
-2.32485e-05
-2.78214e-14
-2.30722e-05
-1.27214e-13
-2.29214e-05
-1.77316e-13
-2.27581e-05
-1.79737e-13
-2.2555e-05
-1.57817e-13
-2.2289e-05
-1.28718e-13
-2.1941e-05
-1.07376e-13
-2.14982e-05
-9.9818e-14
-2.09636e-05
-8.81966e-14
-2.03786e-05
-3.4256e-14
-1.98759e-05
3.75698e-14
-1.99054e-05
1.15423e-13
-2.15036e-05
2.105e-13
-2.76358e-05
3.11339e-13
1.98627e-13
-4.68784e-05
-1.97959e-05
1.43726e-06
-2.1726e-09
-2.08509e-05
1.05658e-06
-1.52152e-09
-2.15889e-05
7.38946e-07
-1.00875e-09
-2.2087e-05
4.98719e-07
-6.38205e-10
-2.24186e-05
3.32059e-07
-3.92953e-10
-2.26452e-05
2.26797e-07
-2.45274e-10
-2.28145e-05
1.69488e-07
-1.68564e-10
-2.29632e-05
1.48842e-07
-1.42648e-10
-2.31195e-05
1.56422e-07
-1.53853e-10
-2.33051e-05
1.85804e-07
-1.93479e-10
-2.35358e-05
2.30965e-07
-2.55417e-10
-2.38197e-05
2.84272e-07
-3.33224e-10
-2.41536e-05
3.34278e-07
-4.17107e-10
-2.45167e-05
3.63599e-07
-4.90824e-10
-2.48636e-05
3.4742e-07
-5.27456e-10
-2.51168e-05
2.53729e-07
-4.83492e-10
-2.51642e-05
4.77102e-08
-3.04398e-10
-2.48613e-05
-3.02932e-07
4.34609e-11
-2.40553e-05
-8.06748e-07
6.55718e-10
-1.43818e-06
1.57782e-09
-2.26187e-05
-5.16636e-05
4.97916e-06
1.94134e-09
-5.42859e-05
3.67725e-06
1.62133e-09
-5.6141e-05
2.59271e-06
1.28338e-09
-5.74133e-05
1.77007e-06
9.817e-10
-5.82767e-05
1.19469e-06
7.35514e-10
-5.88758e-05
8.2533e-07
5.54463e-10
-5.93233e-05
6.1663e-07