/*--------------------------------*- C++ -*----------------------------------*\
| =========                 |                                                 |
| \\      /  F ield         | OpenFOAM: The Open Source CFD Toolbox           |
|  \\    /   O peration     | Version:  2.4.0                                 |
|   \\  /    A nd           | Web:      www.OpenFOAM.org                      |
|    \\/     M anipulation  |                                                 |
\*---------------------------------------------------------------------------*/
FoamFile
{
    version     2.0;
    format      ascii;
    class       volVectorField;
    location    "3.9";
    object      U;
}
// * * * * * * * * * * * * * * * * * * * * * * * * * * * * * * * * * * * * * //

dimensions      [0 1 -1 0 0 0 0];

internalField   nonuniform List<vector> 
4800
(
(0.000306967 -0.00031018 1.58993e-07)
(1.81281e-05 0.000157188 0.000217868)
(-0.00184482 0.000665285 0.000445959)
(-0.00483985 0.00100875 0.000615085)
(-0.00857021 0.00120369 0.000681251)
(-0.012694 0.00128786 0.000624026)
(-0.0169274 0.00128886 0.000437106)
(-0.0210321 0.00122059 0.000120993)
(-0.0247977 0.00109045 -0.000318288)
(-0.0280469 0.000910521 -0.000867814)
(-0.000182497 -1.89835e-05 -0.000216757)
(-0.00248489 0.00239493 5.6346e-06)
(-0.00807312 0.00474962 0.000174852)
(-0.0159581 0.00644784 0.00027586)
(-0.0253942 0.00748362 0.000290514)
(-0.0357012 0.00794997 0.000202851)
(-0.0462377 0.00793365 6.15231e-06)
(-0.056422 0.00749501 -0.000301979)
(-0.0657349 0.00668981 -0.000720247)
(-0.0737495 0.005608 -0.00124213)
(-0.000779655 0.00197328 -0.000450327)
(-0.0052214 0.00810302 -0.00015652)
(-0.014318 0.0135614 1.36243e-05)
(-0.0263855 0.0175545 9.29606e-05)
(-0.0404193 0.0200406 9.01166e-05)
(-0.0555463 0.0211499 -3.78485e-06)
(-0.0708959 0.0210256 -0.000193058)
(-0.0856426 0.0197911 -0.000481572)
(-0.0990266 0.0175948 -0.000872514)
(-0.110411 0.0146882 -0.00136558)
(-0.00125896 0.00539522 -0.000608892)
(-0.00750635 0.0166265 -0.000228566)
(-0.0195694 0.0259149 -3.43444e-05)
(-0.035053 0.0326177 4.71321e-05)
(-0.052712 0.0367672 4.66243e-05)
(-0.0715383 0.0385508 -3.87174e-05)
(-0.090505 0.0381543 -0.000211503)
(-0.108603 0.0357488 -0.000478219)
(-0.124864 0.0315783 -0.000848352)
(-0.138426 0.0260995 -0.00133034)
(-0.00158782 0.0099144 -0.000617369)
(-0.00914099 0.0273602 -0.000161898)
(-0.0233858 0.0410144 5.79968e-05)
(-0.0413589 0.0506727 0.000152084)
(-0.0616181 0.0565697 0.000167252)
(-0.0830596 0.058986 0.000104188)
(-0.10455 0.0581355 -4.05852e-05)
(-0.124938 0.0542005 -0.000279087)
(-0.143052 0.0474854 -0.000630976)
(-0.157739 0.0386533 -0.00112034)
(-0.00175995 0.015138 -0.000426002)
(-0.0100362 0.0395644 8.54857e-05)
(-0.0255182 0.057963 0.000326701)
(-0.0449051 0.0707415 0.000440748)
(-0.0666321 0.0784322 0.000484157)
(-0.0895424 0.0814421 0.000458433)
(-0.112445 0.0799952 0.000355969)
(-0.134096 0.0742269 0.000155312)
(-0.153137 0.064413 -0.000179016)
(-0.167998 0.0513383 -0.000701779)
(-0.00177542 0.0206404 -1.06926e-05)
(-0.0101559 0.0523807 0.000534655)
(-0.0258406 0.0756931 0.000789606)
(-0.045451 0.0916599 0.000928804)
(-0.0673856 0.101159 0.00101244)
(-0.0904809 0.104745 0.00104075)
(-0.113546 0.102635 0.000999005)
(-0.135316 0.0948407 0.000852422)
(-0.154338 0.0814518 0.000543822)
(-0.168479 0.0631034 -4.30855e-05)
(-0.00164142 0.0259925 0.000629019)
(-0.00951594 0.0649135 0.00118612)
(-0.024355 0.0930612 0.00144593)
(-0.0429438 0.112149 0.00161387)
(-0.0637142 0.123398 0.00174892)
(-0.0855232 0.127526 0.00184949)
(-0.107221 0.12474 0.00189227)
(-0.127623 0.114868 0.00182716)
(-0.14541 0.0976018 0.00157459)
(-0.157851 0.0728162 0.000900627)
(-0.00137805 0.0307929 0.00147083)
(-0.00820555 0.076305 0.00202034)
(-0.0212407 0.108934 0.00227591)
(-0.037617 0.130882 0.00247372)
(-0.0558271 0.143662 0.00266821)
(-0.0747206 0.148165 0.00285725)
(-0.0931555 0.14464 0.00300976)
(-0.110038 0.132772 0.00305966)
(-0.124572 0.111806 0.00291716)
(-0.133867 0.0800144 0.00214195)
(-0.00102502 0.034715 0.00247214)
(-0.00641122 0.0858338 0.0030002)
(-0.0169128 0.122311 0.0032426)
(-0.030119 0.14661 0.00346722)
(-0.044559 0.160414 0.00372269)
(-0.0589605 0.164745 0.00401131)
(-0.0719703 0.159944 0.00430384)
(-0.0821954 0.145691 0.00453026)
(-0.0893456 0.1211 0.00465866)
(-0.0924109 0.083463 0.00406351)
(0.000311877 -0.000314776 7.17543e-08)
(2.5153e-05 0.000151262 1.36798e-06)
(-0.00184113 0.000651274 2.02598e-06)
(-0.00483725 0.000988993 2.59593e-06)
(-0.00856874 0.00118076 2.93634e-06)
(-0.0126934 0.00126338 3.07654e-06)
(-0.0169276 0.00126433 3.08495e-06)
(-0.0210332 0.00119737 2.96349e-06)
(-0.0248 0.00106964 2.69134e-06)
(-0.0280503 0.000892779 2.25013e-06)
(-0.000175154 -2.6414e-05 -1.1105e-06)
(-0.00248192 0.00239287 3.26627e-07)
(-0.00808072 0.00473835 -1.16115e-06)
(-0.0159628 0.00643145 -1.85023e-06)
(-0.0253966 0.0074654 -2.19642e-06)
(-0.035702 0.00793091 -2.41435e-06)
(-0.0462367 0.00791473 -2.4228e-06)
(-0.05642 0.00747726 -2.25288e-06)
(-0.0657328 0.00667411 -1.97609e-06)
(-0.0737483 0.00559443 -1.70501e-06)
(-0.000763641 0.00196764 -1.94065e-06)
(-0.00521016 0.00810956 1.7742e-06)
(-0.014325 0.0135646 9.31223e-08)
(-0.0263878 0.0175578 -6.39607e-08)
(-0.0404194 0.0200457 9.95167e-08)
(-0.0555461 0.0211561 9.21616e-08)
(-0.070895 0.0210322 1.00336e-07)
(-0.0856413 0.019798 1.45604e-07)
(-0.0990264 0.0176018 1.98321e-07)
(-0.110413 0.0146938 1.22559e-07)
(-0.00123595 0.00539034 -2.82906e-06)
(-0.00749 0.0166306 2.49419e-06)
(-0.0195786 0.025914 -1.89268e-09)
(-0.035055 0.032615 -2.13708e-07)
(-0.052711 0.0367649 7.19581e-08)
(-0.0715374 0.0385489 1.03987e-07)
(-0.0905036 0.0381529 1.35062e-07)
(-0.108601 0.0357484 2.17399e-07)
(-0.124864 0.0315801 3.73081e-07)
(-0.138431 0.0261016 3.28674e-07)
(-0.00156023 0.00991137 -3.46164e-06)
(-0.00912242 0.0273626 2.93145e-06)
(-0.0233985 0.0410124 -3.25825e-07)
(-0.041362 0.0506685 -7.15913e-07)
(-0.0616172 0.0565651 -4.32264e-07)
(-0.0830585 0.0589812 -4.13538e-07)
(-0.104547 0.0581309 -3.69783e-07)
(-0.124933 0.0541972 -2.16955e-07)
(-0.14305 0.0474866 2.35362e-07)
(-0.157746 0.0386568 4.59909e-07)
(-0.00172988 0.0151373 -3.76358e-06)
(-0.0100167 0.0395658 3.24642e-06)
(-0.0255333 0.0579619 -4.28837e-07)
(-0.0449093 0.070739 -9.12273e-07)
(-0.0666315 0.078429 -6.33142e-07)
(-0.0895414 0.0814384 -6.30343e-07)
(-0.112442 0.079991 -6.1721e-07)
(-0.134088 0.0742232 -4.9693e-07)
(-0.153131 0.0644175 4.04152e-07)
(-0.168013 0.0513502 1.2771e-06)
(-0.00174517 0.0206416 -3.72812e-06)
(-0.0101368 0.0523809 3.33649e-06)
(-0.0258568 0.0756929 -4.59359e-07)
(-0.0454561 0.091659 -9.99096e-07)
(-0.0673857 0.101157 -7.62744e-07)
(-0.0904807 0.104743 -7.92974e-07)
(-0.113543 0.102631 -8.79767e-07)
(-0.135303 0.0948359 -1.05572e-06)
(-0.15432 0.0814625 5.29561e-07)
(-0.168509 0.0631419 3.24197e-06)
(-0.00161289 0.0259956 -3.4779e-06)
(-0.00949822 0.0649127 3.19621e-06)
(-0.024371 0.093062 -4.20568e-07)
(-0.0429494 0.11215 -9.72609e-07)
(-0.063715 0.123398 -7.96501e-07)
(-0.0855241 0.127525 -8.11285e-07)
(-0.107221 0.124736 -9.20252e-07)
(-0.1276 0.114852 -1.63409e-06)
(-0.145357 0.0975977 1.56041e-06)
(-0.157898 0.0728775 1.12819e-05)
(-0.00135318 0.0307979 -2.90767e-06)
(-0.00819028 0.0763038 2.8944e-06)
(-0.0212552 0.108936 -2.91178e-07)
(-0.0376227 0.130886 -8.15225e-07)
(-0.0558291 0.143666 -7.48638e-07)
(-0.074725 0.148168 -8.11402e-07)
(-0.0931664 0.144637 -1.09082e-06)
(-0.11002 0.132738 -3.82188e-06)
(-0.124466 0.11173 -1.13788e-06)
(-0.133915 0.079984 2.53242e-05)
(-0.00100511 0.034721 -2.10977e-06)
(-0.00639889 0.0858324 2.4986e-06)
(-0.0169242 0.122315 -4.90585e-08)
(-0.0301231 0.146618 -4.64658e-07)
(-0.0445603 0.160427 -4.93816e-07)
(-0.0589672 0.164767 -7.2442e-07)
(-0.0720035 0.159988 -1.53939e-06)
(-0.0822369 0.145757 -9.51093e-06)
(-0.0892556 0.121163 -2.22488e-05)
(-0.0924899 0.0835824 7.63986e-06)
(0.000311862 -0.000314791 -7.56933e-08)
(2.51316e-05 0.000151249 -1.37834e-06)
(-0.00184115 0.000651268 -2.03162e-06)
(-0.00483726 0.00098899 -2.59755e-06)
(-0.00856875 0.00118076 -2.93559e-06)
(-0.0126934 0.00126338 -3.07471e-06)
(-0.0169276 0.00126433 -3.0826e-06)
(-0.0210332 0.00119737 -2.96089e-06)
(-0.0248 0.00106964 -2.68886e-06)
(-0.0280503 0.000892778 -2.24798e-06)
(-0.000175166 -2.64355e-05 1.10014e-06)
(-0.00248194 0.00239285 -3.34602e-07)
(-0.00808074 0.00473834 1.15767e-06)
(-0.0159629 0.00643145 1.84948e-06)
(-0.0253966 0.0074654 2.19774e-06)
(-0.035702 0.00793091 2.41682e-06)
(-0.0462367 0.00791472 2.42575e-06)
(-0.05642 0.00747726 2.25589e-06)
(-0.0657328 0.00667411 1.97887e-06)
(-0.0737483 0.00559443 1.70739e-06)
(-0.000763647 0.00196763 1.93497e-06)
(-0.00521018 0.00810955 -1.77783e-06)
(-0.014325 0.0135645 -9.37672e-08)
(-0.0263878 0.0175578 6.443e-08)
(-0.0404194 0.0200457 -9.76261e-08)
(-0.0555461 0.0211561 -8.93188e-08)
(-0.070895 0.0210322 -9.71269e-08)
(-0.0856413 0.019798 -1.42467e-07)
(-0.0990264 0.0176018 -1.95507e-07)
(-0.110413 0.0146938 -1.20172e-07)
(-0.00123595 0.00539033 2.82727e-06)
(-0.00749001 0.0166306 -2.4955e-06)
(-0.0195786 0.025914 3.3658e-09)
(-0.035055 0.032615 2.15504e-07)
(-0.052711 0.0367649 -6.93627e-08)
(-0.0715374 0.0385489 -1.00762e-07)
(-0.0905036 0.0381529 -1.31701e-07)
(-0.108601 0.0357484 -2.14244e-07)
(-0.124864 0.0315801 -3.70314e-07)
(-0.138431 0.0261016 -3.26344e-07)
(-0.00156024 0.00991136 3.46259e-06)
(-0.00912243 0.0273625 -2.93173e-06)
(-0.0233985 0.0410123 3.28179e-07)
(-0.0413621 0.0506685 7.1857e-07)
(-0.0616172 0.056565 4.35276e-07)
(-0.0830585 0.0589812 4.16886e-07)
(-0.104547 0.0581309 3.7309e-07)
(-0.124933 0.0541972 2.19956e-07)
(-0.14305 0.0474866 -2.32778e-07)
(-0.157746 0.0386568 -4.57742e-07)
(-0.00172988 0.0151373 3.7664e-06)
(-0.0100167 0.0395658 -3.24532e-06)
(-0.0255333 0.0579619 4.31776e-07)
(-0.0449093 0.070739 9.15544e-07)
(-0.0666315 0.078429 6.36389e-07)
(-0.0895414 0.0814384 6.33555e-07)
(-0.112442 0.079991 6.20245e-07)
(-0.134088 0.0742232 4.99635e-07)
(-0.153131 0.0644175 -4.0183e-07)
(-0.168013 0.0513502 -1.27513e-06)
(-0.00174517 0.0206416 3.73116e-06)
(-0.0101368 0.0523809 -3.33433e-06)
(-0.0258568 0.0756929 4.62508e-07)
(-0.0454561 0.091659 1.00222e-06)
(-0.0673857 0.101157 7.65711e-07)
(-0.0904807 0.104743 7.95777e-07)
(-0.113543 0.102631 8.82387e-07)
(-0.135303 0.0948359 1.05808e-06)
(-0.15432 0.0814625 -5.27474e-07)
(-0.168509 0.0631419 -3.24014e-06)
(-0.00161289 0.0259956 3.4803e-06)
(-0.00949822 0.0649127 -3.1941e-06)
(-0.024371 0.093062 4.23403e-07)
(-0.0429494 0.11215 9.75392e-07)
(-0.063715 0.123398 7.99062e-07)
(-0.0855241 0.127525 8.13663e-07)
(-0.107221 0.124736 9.22521e-07)
(-0.1276 0.114852 1.63623e-06)
(-0.145357 0.0975977 -1.55843e-06)
(-0.157898 0.0728775 -1.12801e-05)
(-0.00135318 0.0307979 2.90946e-06)
(-0.00819028 0.0763038 -2.89201e-06)
(-0.0212553 0.108936 2.93816e-07)
(-0.0376227 0.130886 8.17646e-07)
(-0.0558291 0.143666 7.50799e-07)
(-0.074725 0.148168 8.13425e-07)
(-0.0931664 0.144637 1.09284e-06)
(-0.11002 0.132738 3.82386e-06)
(-0.124466 0.11173 1.13971e-06)
(-0.133915 0.079984 -2.53225e-05)
(-0.00100511 0.034721 2.11153e-06)
(-0.00639889 0.0858324 -2.49637e-06)
(-0.0169242 0.122315 5.1294e-08)
(-0.0301231 0.146618 4.66647e-07)
(-0.0445603 0.160427 4.95584e-07)
(-0.0589672 0.164767 7.2613e-07)
(-0.0720035 0.159988 1.54116e-06)
(-0.0822369 0.145757 9.5126e-06)
(-0.0892556 0.121163 2.22502e-05)
(-0.0924899 0.0835824 -7.6386e-06)
(0.000306891 -0.000310256 -1.54852e-07)
(1.80195e-05 0.000157141 -0.000217857)
(-0.00184487 0.000665265 -0.000445953)
(-0.00483987 0.00100875 -0.000615084)
(-0.00857023 0.00120369 -0.000681252)
(-0.012694 0.00128786 -0.000624028)
(-0.0169275 0.00128886 -0.000437109)
(-0.0210322 0.00122059 -0.000120995)
(-0.0247977 0.00109045 0.000318285)
(-0.0280469 0.000910521 0.000867811)
(-0.000182544 -1.90919e-05 0.000216768)
(-0.00248497 0.00239485 -5.62617e-06)
(-0.00807318 0.00474958 -0.000174848)
(-0.0159581 0.00644782 -0.00027586)
(-0.0253942 0.00748361 -0.000290516)
(-0.0357013 0.00794996 -0.000202854)
(-0.0462377 0.00793365 -6.15542e-06)
(-0.056422 0.00749501 0.000301976)
(-0.0657349 0.00668981 0.000720244)
(-0.0737495 0.005608 0.00124212)
(-0.000779675 0.00197323 0.000450333)
(-0.00522145 0.00810296 0.000156524)
(-0.0143181 0.0135614 -1.36236e-05)
(-0.0263856 0.0175545 -9.29611e-05)
(-0.0404194 0.0200406 -9.01186e-05)
(-0.0555463 0.0211499 3.78184e-06)
(-0.0708959 0.0210256 0.000193055)
(-0.0856426 0.0197911 0.000481569)
(-0.0990266 0.0175948 0.000872511)
(-0.110411 0.0146882 0.00136558)
(-0.00125896 0.0053952 0.000608894)
(-0.00750637 0.0166265 0.000228568)
(-0.0195694 0.0259149 3.43429e-05)
(-0.0350531 0.0326177 -4.7134e-05)
(-0.052712 0.0367672 -4.66271e-05)
(-0.0715383 0.0385508 3.8714e-05)
(-0.090505 0.0381543 0.000211499)
(-0.108603 0.0357488 0.000478216)
(-0.124864 0.0315783 0.000848349)
(-0.138426 0.0260995 0.00133034)
(-0.00158782 0.00991438 0.000617368)
(-0.009141 0.0273601 0.000161898)
(-0.0233858 0.0410144 -5.79993e-05)
(-0.0413589 0.0506727 -0.000152087)
(-0.0616181 0.0565696 -0.000167256)
(-0.0830596 0.058986 -0.000104192)
(-0.10455 0.0581355 4.05817e-05)
(-0.124938 0.0542005 0.000279083)
(-0.143052 0.0474854 0.000630974)
(-0.157739 0.0386533 0.00112034)
(-0.00175995 0.015138 0.000425999)
(-0.0100362 0.0395644 -8.54869e-05)
(-0.0255182 0.0579629 -0.000326704)
(-0.0449051 0.0707415 -0.000440751)
(-0.0666321 0.0784322 -0.000484161)
(-0.0895424 0.0814421 -0.000458437)
(-0.112445 0.0799952 -0.000355973)
(-0.134096 0.0742269 -0.000155315)
(-0.153137 0.064413 0.000179013)
(-0.167998 0.0513383 0.000701777)
(-0.00177542 0.0206404 1.06894e-05)
(-0.0101559 0.0523807 -0.000534657)
(-0.0258406 0.0756931 -0.000789609)
(-0.045451 0.0916599 -0.000928808)
(-0.0673856 0.101159 -0.00101244)
(-0.0904809 0.104745 -0.00104076)
(-0.113546 0.102635 -0.000999008)
(-0.135316 0.0948407 -0.000852424)
(-0.154338 0.0814518 -0.000543824)
(-0.168479 0.0631034 4.30836e-05)
(-0.00164142 0.0259925 -0.000629022)
(-0.00951594 0.0649135 -0.00118612)
(-0.024355 0.0930612 -0.00144594)
(-0.0429438 0.112149 -0.00161387)
(-0.0637142 0.123398 -0.00174892)
(-0.0855232 0.127526 -0.0018495)
(-0.107221 0.12474 -0.00189227)
(-0.127623 0.114868 -0.00182716)
(-0.14541 0.0976018 -0.0015746)
(-0.157851 0.0728162 -0.000900629)
(-0.00137805 0.0307929 -0.00147084)
(-0.00820555 0.076305 -0.00202034)
(-0.0212407 0.108934 -0.00227591)
(-0.037617 0.130882 -0.00247372)
(-0.0558271 0.143662 -0.00266821)
(-0.0747206 0.148165 -0.00285725)
(-0.0931555 0.14464 -0.00300976)
(-0.110038 0.132772 -0.00305966)
(-0.124572 0.111806 -0.00291716)
(-0.133867 0.0800144 -0.00214196)
(-0.00102502 0.034715 -0.00247214)
(-0.00641122 0.0858338 -0.0030002)
(-0.0169128 0.122311 -0.0032426)
(-0.030119 0.14661 -0.00346723)
(-0.044559 0.160414 -0.0037227)
(-0.0589605 0.164745 -0.00401132)
(-0.0719703 0.159944 -0.00430384)
(-0.0821954 0.145691 -0.00453026)
(-0.0893456 0.1211 -0.00465866)
(-0.0924109 0.083463 -0.00406351)
(-0.0306667 0.000706312 -0.00150686)
(-0.032643 0.000512052 -0.00220996)
(-0.0340519 0.000350699 -0.00295415)
(-0.0350137 0.000230131 -0.00372218)
(-0.0356535 0.000148136 -0.00450258)
(-0.0360807 9.80223e-05 -0.00528869)
(-0.0363824 7.26171e-05 -0.00607733)
(-0.0366254 6.61907e-05 -0.00686776)
(-0.0368608 7.48257e-05 -0.00766108)
(-0.037128 9.59202e-05 -0.00846003)
(-0.0374573 0.000127246 -0.009269)
(-0.0378689 0.00016575 -0.0100942)
(-0.0383682 0.00020618 -0.0109437)
(-0.0389383 0.000239658 -0.011827)
(-0.0395286 0.000252467 -0.0127547)
(-0.0400425 0.000225704 -0.0137359)
(-0.0403276 0.000137147 -0.014776)
(-0.0401742 -3.29046e-05 -0.0158726)
(-0.0393339 -0.000296364 -0.0170098)
(-0.0375676 -0.000641302 -0.0181553)
(-0.0802069 0.00440192 -0.00185388)
(-0.0850924 0.00325673 -0.00253568)
(-0.0886039 0.00229574 -0.00326903)
(-0.091034 0.00156353 -0.00403858)
(-0.0926803 0.00105083 -0.00483254)
(-0.0938007 0.000723019 -0.00564265)
(-0.0946003 0.000540679 -0.00646373)
(-0.0952352 0.000469859 -0.00729314)
(-0.0958223 0.000484442 -0.00813035)
(-0.0964479 0.00056392 -0.0089767)
(-0.0971716 0.000688789 -0.00983521)
(-0.0980245 0.000834748 -0.0107105)
(-0.0989998 0.000966381 -0.0116087)
(-0.100037 0.00103124 -0.0125368)
(-0.101001 0.000955989 -0.0135019)
(-0.101659 0.000647846 -0.0145099)
(-0.101666 5.9888e-06 -0.0155631)
(-0.100572 -0.00105229 -0.0166569)
(-0.0978604 -0.00255336 -0.0177773)
(-0.0930487 -0.00441381 -0.0188969)
(-0.119415 0.0114848 -0.0019516)
(-0.126068 0.00847865 -0.00261037)
(-0.130742 0.00598007 -0.00332438)
(-0.133915 0.00408733 -0.00407895)
(-0.136032 0.00276329 -0.00486208)
(-0.137456 0.0019112 -0.00566492)
(-0.13846 0.00142581 -0.00648154)
(-0.139244 0.00121709 -0.00730843)
(-0.13995 0.00121473 -0.00814416)
(-0.140681 0.00136199 -0.00898911)
(-0.141502 0.00160452 -0.00984519)
(-0.142443 0.00187666 -0.0107157)
(-0.143484 0.00208728 -0.0116052)
(-0.144543 0.00210684 -0.012519)
(-0.145446 0.00176005 -0.0134627)
(-0.145896 0.000830754 -0.0144415)
(-0.145455 -0.000910627 -0.0154583)
(-0.143537 -0.00364838 -0.0165112)
(-0.139454 -0.00742564 -0.017591)
(-0.132529 -0.0120295 -0.0186768)
(-0.148758 0.0201125 -0.00191887)
(-0.155994 0.0146138 -0.00258403)
(-0.1608 0.0101571 -0.00330526)
(-0.163894 0.00685758 -0.00406675)
(-0.165862 0.0045912 -0.00485573)
(-0.167132 0.00314927 -0.00566313)
(-0.167996 0.00232758 -0.00648298)
(-0.168651 0.00196089 -0.00731169)
(-0.169226 0.00192453 -0.00814756)
(-0.16981 0.00212039 -0.00899034)
(-0.170458 0.00245669 -0.00984105)
(-0.171193 0.0028251 -0.0107018)
(-0.172 0.00307728 -0.0115756)
(-0.172805 0.00300338 -0.0124667)
(-0.17345 0.00231775 -0.01338)
(-0.173657 0.000662586 -0.0143212)
(-0.172984 -0.00235336 -0.015296)
(-0.170791 -0.00706315 -0.0163086)
(-0.166252 -0.0135816 -0.0173585)
(-0.158436 -0.0215872 -0.0184357)
(-0.168197 0.0290417 -0.00174836)
(-0.174762 0.0205001 -0.00245539)
(-0.178616 0.0138578 -0.00321349)
(-0.180802 0.00912778 -0.0040051)
(-0.182027 0.00598392 -0.00481677)
(-0.182725 0.00403257 -0.0056403)
(-0.183149 0.00293566 -0.00647093)
(-0.183442 0.00244151 -0.00730599)
(-0.183685 0.00237188 -0.00814418)
(-0.18393 0.00259405 -0.00898507)
(-0.184207 0.00298929 -0.00982891)
(-0.184533 0.00342058 -0.0106765)
(-0.184907 0.00369992 -0.0115294)
(-0.185298 0.00355624 -0.0123902)
(-0.185624 0.00260864 -0.013263)
(-0.185703 0.000356691 -0.0141545)
(-0.185189 -0.0037879 -0.0150744)
(-0.183485 -0.0103911 -0.0160353)
(-0.179657 -0.019775 -0.0170503)
(-0.1724 -0.0316425 -0.0181301)
(-0.177318 0.0370447 -0.00143294)
(-0.181806 0.0249636 -0.00223199)
(-0.183589 0.0161478 -0.00306193)
(-0.184116 0.0102296 -0.00390725)
(-0.184129 0.00648822 -0.00475649)
(-0.183971 0.00425572 -0.00560508)
(-0.183779 0.00303477 -0.00645168)
(-0.183592 0.00249164 -0.00729594)
(-0.183411 0.00240949 -0.00813779)
(-0.18323 0.00263928 -0.00897705)
(-0.183045 0.00305622 -0.00981328)
(-0.182863 0.00352011 -0.0106459)
(-0.182702 0.00383565 -0.0114746)
(-0.182596 0.00370987 -0.0122998)
(-0.182577 0.0027072 -0.0131238)
(-0.182636 0.000209585 -0.0139535)
(-0.182642 -0.00459249 -0.0148024)
(-0.182189 -0.0126129 -0.0156927)
(-0.180357 -0.024628 -0.0166564)
(-0.175345 -0.0407006 -0.0177435)
(-0.175172 0.0426232 -0.000993003)
(-0.175926 0.026671 -0.00195298)
(-0.174576 0.0161242 -0.00288973)
(-0.172929 0.00963737 -0.00380558)
(-0.17153 0.00582572 -0.00469872)
(-0.170472 0.00367998 -0.00557386)
(-0.169684 0.00255699 -0.00643613)
(-0.169059 0.00207515 -0.00728891)
(-0.168503 0.00201185 -0.00813391)
(-0.167942 0.00222924 -0.00897132)
(-0.167335 0.00262218 -0.00980002)
(-0.166671 0.00307675 -0.0106178)
(-0.16598 0.00342986 -0.011422)
(-0.16535 0.00342136 -0.0122099)
(-0.164934 0.00263148 -0.0129808)
(-0.164946 0.000397434 -0.0137389)
(-0.165581 -0.00427685 -0.0145001)
(-0.166858 -0.0127395 -0.0152948)
(-0.168213 -0.0265725 -0.0161772)
(-0.167392 -0.0469219 -0.0172702)
(-0.159763 0.0436056 -0.000486279)
(-0.154838 0.0240209 -0.00169126)
(-0.149688 0.0130369 -0.00275702)
(-0.145929 0.007135 -0.00374361)
(-0.143403 0.00402283 -0.00467202)
(-0.141746 0.0024154 -0.00556424)
(-0.140623 0.00162926 -0.00643491)
(-0.13978 0.00131494 -0.0072915)
(-0.139039 0.0012943 -0.00813719)
(-0.138282 0.00147101 -0.00897217)
(-0.137433 0.00178072 -0.00979432)
(-0.136458 0.00215759 -0.0105996)
(-0.13538 0.0025032 -0.0113824)
(-0.134299 0.00264585 -0.0121363)
(-0.133441 0.00227512 -0.0128554)
(-0.133199 0.000826081 -0.0135389)
(-0.134128 -0.00271157 -0.0142017)
(-0.136918 -0.0100216 -0.014877)
(-0.142055 -0.0238056 -0.015635)
(-0.147601 -0.0477211 -0.0167112)
(-0.126664 0.0374711 -0.000203819)
(-0.114339 0.0161031 -0.00168083)
(-0.106126 0.00712088 -0.00279461)
(-0.101537 0.00331218 -0.00378878)
(-0.0989186 0.00164986 -0.00470988)
(-0.0973758 0.000914995 -0.0055926)
(-0.0964013 0.000600196 -0.00645646)
(-0.0956905 0.00049552 -0.00730906)
(-0.0950592 0.000514115 -0.00815243)
(-0.0943884 0.000618651 -0.00898541)
(-0.0935979 0.000789958 -0.00980421)
(-0.0926392 0.00101091 -0.0106025)
(-0.0915041 0.00125308 -0.0113715)
(-0.0902507 0.001457 -0.0120998)
(-0.0890597 0.00149165 -0.0127739)
(-0.0883246 0.00106249 -0.0133828)
(-0.0887318 -0.000511531 -0.0139343)
(-0.0915946 -0.00485118 -0.0144338)
(-0.0993977 -0.0155253 -0.0149256)
(-0.11323 -0.0405596 -0.0158054)
(-0.064463 0.0229597 -0.000854773)
(-0.0480952 0.00662069 -0.00232426)
(-0.0413856 0.00201934 -0.00307811)
(-0.0389528 0.000649123 -0.00382654)
(-0.0378963 0.00022376 -0.00459133)
(-0.0373565 9.34099e-05 -0.005369)
(-0.0370347 5.84191e-05 -0.00615729)
(-0.036791 5.77494e-05 -0.00695103)
(-0.0365512 7.44404e-05 -0.0077452)
(-0.0362665 0.000105141 -0.00853476)
(-0.0358977 0.000150625 -0.0093135)
(-0.0354104 0.000212794 -0.0100728)
(-0.0347768 0.000293074 -0.0108004)
(-0.0339836 0.000389118 -0.0114785)
(-0.0330536 0.00048444 -0.0120818)
(-0.0320977 0.000516633 -0.0125746)
(-0.0314596 0.000260974 -0.0129093)
(-0.0321023 -0.00113946 -0.0130494)
(-0.0377186 -0.00641354 -0.0128739)
(-0.0564265 -0.0256989 -0.013015)
(-0.0306704 0.000691771 1.69364e-06)
(-0.0326461 0.000500774 1.18623e-06)
(-0.0340541 0.000342364 7.86582e-07)
(-0.0350152 0.000224177 4.97758e-07)
(-0.0356543 0.000143956 3.06557e-07)
(-0.0360811 9.50522e-05 1.91387e-07)
(-0.0363825 7.03772e-05 1.31524e-07)
(-0.0366253 6.42942e-05 1.11248e-07)
(-0.0368605 7.29704e-05 1.19896e-07)
(-0.0371276 9.38794e-05 1.50688e-07)
(-0.0374568 0.000124869 1.98873e-07)
(-0.0378683 0.000162977 2.59442e-07)
(-0.0383675 0.000203083 3.24758e-07)
(-0.0389376 0.000236487 3.82174e-07)
(-0.0395281 0.00024972 4.10725e-07)
(-0.0400424 0.000224177 3.76515e-07)
(-0.0403284 0.00013791 2.37051e-07)
(-0.0401761 -2.86581e-05 -3.3875e-08)
(-0.0393377 -0.00028737 -5.10769e-07)
(-0.0375732 -0.000626816 -1.22904e-06)
(-0.080206 0.00438988 -1.50849e-06)
(-0.0850908 0.00324687 -1.25986e-06)
(-0.0886019 0.0022882 -9.97247e-07)
(-0.091032 0.00155801 -7.62832e-07)
(-0.0926785 0.00104691 -5.71562e-07)
(-0.0937993 0.000720266 -4.30929e-07)
(-0.0945993 0.000538684 -3.40654e-07)
(-0.0952346 0.000468286 -2.94981e-07)
(-0.095822 0.000483024 -2.85822e-07)
(-0.0964478 0.000562448 -3.037e-07)
(-0.0971715 0.00068711 -3.37057e-07)
(-0.0980242 0.000832768 -3.70592e-07)
(-0.0989991 0.000964093 -3.83467e-07)
(-0.100036 0.00102876 -3.48069e-07)
(-0.100999 0.00095365 -2.30412e-07)
(-0.101656 0.000646215 5.09563e-09)
(-0.101662 5.88248e-06 3.81756e-07)
(-0.100567 -0.00104987 8.9086e-07)
(-0.0978559 -0.00254735 1.5008e-06)
(-0.093046 -0.00440414 2.07457e-06)
(-0.119417 0.0114868 -1.84298e-07)
(-0.126069 0.00847903 -3.2302e-07)
(-0.130741 0.00598002 -3.55134e-07)
(-0.133914 0.00408722 -3.38272e-07)
(-0.13603 0.00276328 -2.89593e-07)
(-0.137454 0.00191136 -2.31738e-07)
(-0.138459 0.00142615 -1.79188e-07)
(-0.139243 0.00121762 -1.37518e-07)
(-0.13995 0.00121544 -1.07496e-07)
(-0.140681 0.00136289 -8.71559e-08)
(-0.141502 0.00160557 -7.29992e-08)
(-0.142442 0.00187779 -6.05792e-08)
(-0.143483 0.00208834 -4.46162e-08)
(-0.144542 0.00210762 -1.85776e-08)
(-0.145444 0.0017603 2.62401e-08)
(-0.145894 0.000830209 9.71234e-08)
(-0.145452 -0.000912228 1.90021e-07)
(-0.143534 -0.00365099 2.98818e-07)
(-0.139453 -0.00742912 4.10906e-07)
(-0.132532 -0.0120354 3.49744e-07)
(-0.148763 0.020109 -2.94486e-07)
(-0.155995 0.0146099 -4.76334e-07)
(-0.160799 0.0101545 -4.74002e-07)
(-0.163892 0.00685616 -4.21969e-07)
(-0.16586 0.00459065 -3.36315e-07)
(-0.167131 0.00314927 -2.49259e-07)
(-0.167995 0.00232787 -1.76965e-07)
(-0.168649 0.00196132 -1.22092e-07)
(-0.169225 0.00192501 -8.30118e-08)
(-0.169809 0.00212088 -5.66457e-08)
(-0.170457 0.00245714 -3.97302e-08)
(-0.171192 0.00282545 -2.92767e-08)
(-0.171999 0.00307744 -2.24774e-08)
(-0.172804 0.00300323 -1.49384e-08)
(-0.173449 0.00231727 4.36625e-09)
(-0.173656 0.000661864 4.7581e-08)
(-0.172981 -0.00235415 1.0134e-07)
(-0.170788 -0.00706312 2.02668e-07)
(-0.166252 -0.0135792 3.96581e-07)
(-0.158442 -0.0215843 3.50277e-07)
(-0.168205 0.0290328 -8.03618e-07)
(-0.174761 0.0204925 -9.01992e-07)
(-0.178612 0.0138541 -7.31795e-07)
(-0.180799 0.00912642 -5.72703e-07)
(-0.182024 0.00598387 -4.03665e-07)
(-0.182723 0.00403313 -2.65623e-07)
(-0.183147 0.00293639 -1.69948e-07)
(-0.18344 0.0024422 -1.08076e-07)
(-0.183684 0.00237247 -7.08292e-08)
(-0.18393 0.00259452 -5.1023e-08)
(-0.184207 0.00298962 -4.36347e-08)
(-0.184532 0.00342075 -4.53166e-08)
(-0.184906 0.00369988 -5.36218e-08)
(-0.185298 0.00355593 -6.36762e-08)
(-0.185623 0.00260809 -5.64125e-08)
(-0.185701 0.000356152 -5.0028e-09)
(-0.185186 -0.00378795 4.89544e-08)
(-0.18348 -0.0103889 1.99583e-07)
(-0.179654 -0.0197663 6.97998e-07)
(-0.17241 -0.0316295 1.00177e-06)
(-0.177333 0.0370267 -1.71633e-06)
(-0.181801 0.0249514 -1.46674e-06)
(-0.183581 0.0161441 -9.20442e-07)
(-0.184111 0.0102294 -6.16575e-07)
(-0.184125 0.00648936 -3.63036e-07)
(-0.183968 0.00425718 -1.91622e-07)
(-0.183778 0.00303608 -9.50607e-08)
(-0.183591 0.00249268 -4.38144e-08)
(-0.183411 0.00241029 -1.87886e-08)
(-0.18323 0.00263989 -9.24986e-09)
(-0.183045 0.00305668 -9.86687e-09)
(-0.182862 0.00352044 -1.8731e-08)
(-0.182702 0.0038358 -3.59879e-08)
(-0.182596 0.00370977 -6.09587e-08)
(-0.182576 0.00270685 -7.58084e-08)
(-0.182634 0.000209299 -4.57309e-08)
(-0.182637 -0.00459191 -2.48817e-08)
(-0.182178 -0.012609 1.09887e-07)
(-0.180347 -0.0246116 1.20134e-06)
(-0.175361 -0.0406728 2.54507e-06)
(-0.175204 0.0425984 -4.56647e-06)
(-0.175911 0.0266629 -3.01907e-06)
(-0.17456 0.0161279 -1.39754e-06)
(-0.172921 0.00964172 -7.28512e-07)
(-0.171525 0.00582927 -3.09728e-07)
(-0.170469 0.00368261 -9.57984e-08)
(-0.169683 0.00255881 -1.1796e-08)
(-0.169059 0.00207643 1.57432e-08)
(-0.168502 0.00201285 1.91208e-08)
(-0.167942 0.00223013 1.14055e-08)
(-0.167335 0.00262305 -2.99415e-09)
(-0.166671 0.00307764 -2.36447e-08)
(-0.16598 0.00343069 -5.15983e-08)
(-0.16535 0.00342192 -8.94584e-08)
(-0.164934 0.00263149 -1.18259e-07)
(-0.164943 0.00039688 -6.06804e-08)
(-0.165574 -0.00427836 7.21212e-08)
(-0.166838 -0.012742 3.63015e-07)
(-0.168187 -0.026561 2.90598e-06)
(-0.167424 -0.0468862 6.99502e-06)
(-0.159823 0.0435643 -7.7563e-06)
(-0.154806 0.0240311 -3.15605e-06)
(-0.149669 0.0130587 -6.42513e-07)
(-0.145924 0.00714733 -2.43425e-07)
(-0.143401 0.00402913 3.18703e-08)
(-0.141745 0.00241882 1.28742e-07)
(-0.140623 0.00163122 1.21771e-07)
(-0.139779 0.0013163 1.0016e-07)
(-0.139039 0.00129554 8.30251e-08)
(-0.138282 0.00147242 7.10271e-08)
(-0.137433 0.00178245 6.11916e-08)
(-0.136458 0.00215969 4.88271e-08)
(-0.13538 0.00250556 2.65838e-08)
(-0.1343 0.00264806 -2.60495e-08)
(-0.133442 0.00227629 -1.0299e-07)
(-0.133199 0.000824666 -3.36287e-08)
(-0.134127 -0.00272007 9.65672e-08)
(-0.136897 -0.0100441 -3.60848e-07)
(-0.142009 -0.0238188 2.56748e-06)
(-0.14766 -0.0476651 1.11729e-05)
(-0.126738 0.037274 -9.6893e-06)
(-0.11427 0.0160435 4.29515e-06)
(-0.106114 0.00710979 4.81257e-06)
(-0.101546 0.00330496 2.05871e-06)
(-0.0989239 0.00164449 1.06652e-06)
(-0.0973784 0.000911642 6.48063e-07)
(-0.0964025 0.00059799 4.08269e-07)
(-0.0956909 0.000493869 3.09921e-07)
(-0.0950589 0.000512676 2.98142e-07)
(-0.0943878 0.000617193 3.35582e-07)
(-0.0935972 0.00078833 4.02654e-07)
(-0.0926387 0.00100906 4.82364e-07)
(-0.0915042 0.0012511 5.4497e-07)
(-0.0902523 0.00145524 5.14122e-07)
(-0.0890632 0.00149089 2.92315e-07)
(-0.0883333 0.0010637 -6.92636e-08)
(-0.0887508 -0.000508228 -1.29458e-06)
(-0.0915909 -0.00484389 -5.98097e-06)
(-0.0993074 -0.0154608 -8.1249e-06)
(-0.113282 -0.0403031 1.20677e-05)
(-0.0645059 0.0228145 -5.38714e-05)
(-0.0479362 0.00655164 -9.18178e-06)
(-0.0413405 0.0019915 -6.69436e-07)
(-0.0389484 0.000633395 -1.47456e-06)
(-0.0378933 0.000214591 -9.58669e-07)
(-0.0373544 8.8241e-05 -4.51206e-07)
(-0.0370338 5.5263e-05 -2.56023e-07)
(-0.0367907 5.54435e-05 -1.82065e-07)
(-0.0365511 7.23412e-05 -1.61742e-07)
(-0.0362666 0.00010286 -1.78037e-07)
(-0.0358979 0.000147922 -2.20246e-07)
(-0.0354108 0.000209574 -2.77903e-07)
(-0.0347772 0.000289467 -3.36126e-07)
(-0.0339836 0.000385713 -3.6866e-07)
(-0.0330525 0.000482588 -2.84812e-07)
(-0.0320967 0.000518573 1.61727e-07)
(-0.031462 0.00027032 6.00606e-07)
(-0.0320604 -0.00111583 -1.99581e-06)
(-0.0375024 -0.00633933 3.95246e-06)
(-0.0564131 -0.0255038 6.81936e-05)
(-0.0306704 0.000691771 -1.69187e-06)
(-0.0326461 0.000500774 -1.1848e-06)
(-0.0340541 0.000342364 -7.85467e-07)
(-0.0350152 0.000224177 -4.96909e-07)
(-0.0356543 0.000143956 -3.05936e-07)
(-0.0360811 9.50521e-05 -1.90956e-07)
(-0.0363825 7.03771e-05 -1.31243e-07)
(-0.0366253 6.42941e-05 -1.11089e-07)
(-0.0368605 7.29703e-05 -1.19849e-07)
(-0.0371276 9.38793e-05 -1.50746e-07)
(-0.0374568 0.000124869 -1.99017e-07)
(-0.0378683 0.000162977 -2.59633e-07)
(-0.0383675 0.000203083 -3.24975e-07)
(-0.0389376 0.000236487 -3.82397e-07)
(-0.0395281 0.00024972 -4.1093e-07)
(-0.0400424 0.000224177 -3.76677e-07)
(-0.0403284 0.00013791 -2.37165e-07)
(-0.0401761 -2.86582e-05 3.38015e-08)
(-0.0393377 -0.00028737 5.10714e-07)
(-0.0375732 -0.000626816 1.22898e-06)
(-0.080206 0.00438988 1.51046e-06)
(-0.0850908 0.00324686 1.26146e-06)
(-0.0886019 0.0022882 9.98515e-07)
(-0.091032 0.00155801 7.63795e-07)
(-0.0926785 0.00104691 5.72239e-07)
(-0.0937993 0.000720266 4.3135e-07)