/*--------------------------------*- C++ -*----------------------------------*\
| =========                 |                                                 |
| \\      /  F ield         | OpenFOAM: The Open Source CFD Toolbox           |
|  \\    /   O peration     | Version:  2.4.0                                 |
|   \\  /    A nd           | Web:      www.OpenFOAM.org                      |
|    \\/     M anipulation  |                                                 |
\*---------------------------------------------------------------------------*/
FoamFile
{
    version     2.0;
    format      ascii;
    class       volScalarField;
    location    "0.0057";
    object      T;
}
// * * * * * * * * * * * * * * * * * * * * * * * * * * * * * * * * * * * * * //

dimensions      [0 0 0 1 0 0 0];

internalField   nonuniform List<scalar> 
4800
(
100.194
100.581
100.968
101.354
101.737
102.117
102.487
102.844
103.182
103.493
100.581
101.742
102.903
104.063
105.217
106.358
107.475
108.552
109.571
110.511
100.968
102.903
104.841
106.778
108.71
110.624
112.503
114.319
116.039
117.625
101.354
104.063
106.778
109.499
112.22
114.926
117.593
120.181
122.64
124.908
101.738
105.217
108.71
112.22
115.744
119.268
122.762
126.174
129.431
132.438
102.117
106.359
110.625
114.927
119.268
123.64
128.011
132.322
136.471
140.314
102.487
107.476
112.504
117.594
122.763
128.012
133.322
138.632
143.816
148.66
102.845
108.553
114.321
120.183
126.176
132.324
138.633
145.067
151.501
157.641
103.182
109.573
116.042
122.643
129.434
136.474
143.819
151.503
159.481
167.459
103.494
110.514
117.63
124.913
132.444
140.319
148.665
157.644
167.461
178.222
100.194
100.581
100.968
101.354
101.737
102.117
102.487
102.844
103.182
103.493
100.581
101.742
102.903
104.063
105.217
106.358
107.475
108.552
109.571
110.511
100.968
102.903
104.841
106.778
108.71
110.624
112.503
114.319
116.039
117.625
101.354
104.063
106.778
109.499
112.22
114.926
117.593
120.181
122.64
124.908
101.738
105.217
108.71
112.22
115.744
119.268
122.762
126.174
129.431
132.438
102.117
106.359
110.625
114.927
119.269
123.64
128.012
132.322
136.471
140.314
102.487
107.476
112.504
117.594
122.763
128.012
133.322
138.632
143.816
148.66
102.845
108.554
114.321
120.184
126.176
132.324
138.633
145.068
151.502
157.641
103.182
109.573
116.042
122.643
129.435
136.474
143.819
151.503
159.482
167.46
103.494
110.514
117.63
124.914
132.444
140.32
148.665
157.645
167.462
178.222
100.194
100.581
100.968
101.354
101.737
102.117
102.487
102.844
103.182
103.493
100.581
101.742
102.903
104.063
105.217
106.358
107.475
108.552
109.571
110.511
100.968
102.903
104.841
106.778
108.71
110.624
112.503
114.319
116.039
117.625
101.354
104.063
106.778
109.499
112.22
114.926
117.593
120.181
122.64
124.908
101.738
105.217
108.71
112.22
115.744
119.268
122.762
126.174
129.431
132.438
102.117
106.359
110.625
114.927
119.269
123.64
128.012
132.322
136.471
140.314
102.487
107.476
112.504
117.594
122.763
128.012
133.322
138.632
143.816
148.66
102.845
108.554
114.321
120.184
126.176
132.324
138.633
145.068
151.502
157.641
103.182
109.573
116.042
122.643
129.435
136.474
143.819
151.503
159.482
167.46
103.494
110.514
117.63
124.914
132.444
140.32
148.665
157.645
167.462
178.222
100.194
100.581
100.968
101.354
101.737
102.117
102.487
102.844
103.182
103.493
100.581
101.742
102.903
104.063
105.217
106.358
107.475
108.552
109.571
110.511
100.968
102.903
104.841
106.778
108.71
110.624
112.503
114.319
116.039
117.625
101.354
104.063
106.778
109.499
112.22
114.926
117.593
120.181
122.64
124.908
101.738
105.217
108.71
112.22
115.744
119.268
122.762
126.174
129.431
132.438
102.117
106.359
110.625
114.927
119.268
123.64
128.011
132.322
136.471
140.314
102.487
107.476
112.504
117.594
122.763
128.012
133.322
138.632
143.816
148.66
102.845
108.553
114.321
120.183
126.176
132.324
138.633
145.067
151.501
157.641
103.182
109.573
116.042
122.643
129.434
136.474
143.819
151.503
159.481
167.459
103.494
110.514
117.63
124.913
132.444
140.319
148.665
157.644
167.461
178.222
103.773
104.016
104.222
104.391
104.526
104.63
104.707
104.762
104.796
104.813
104.813
104.796
104.761
104.707
104.63
104.526
104.391
104.222
104.016
103.773
111.354
112.086
112.704
113.208
113.609
113.916
114.144
114.304
114.405
114.454
114.454
114.405
114.304
114.144
113.916
113.608
113.208
112.703
112.086
111.353
119.045
120.272
121.298
122.13
122.784
123.282
123.65
123.906
124.067
124.145
124.145
124.067
123.905
123.649
123.281
122.782
122.128
121.297
120.271
119.044
126.928
128.658
130.087
131.228
132.113
132.78
133.266
133.602
133.812
133.913
133.913
133.812
133.601
133.265
132.779
132.112
131.227
130.085
128.657
126.926
135.1
137.347
139.164
140.583
141.661
142.459
143.032
143.423
143.667
143.783
143.783
143.666
143.422
143.03
142.457
141.659
140.581
139.161
137.344
135.098
143.687
146.464
148.638
150.28
151.49
152.363
152.978
153.393
153.648
153.77
153.77
153.648
153.392
152.977
152.361
151.488
150.277
148.635
146.462
143.685
152.869
156.185
158.643
160.408
161.654
162.526
163.124
163.522
163.764
163.878
163.878
163.763
163.521
163.123
162.524
161.652
160.405
158.641
156.183
152.867
162.942
166.765
169.342
171.053
172.194
172.96
173.472
173.806
174.007
174.101
174.101
174.007
173.805
173.471
172.959
172.193
171.051
169.34
166.764
162.941
174.494
178.591
180.906
182.268
183.11
183.649
183.999
184.223
184.357
184.419
184.419
184.356
184.223
183.998
183.648
183.109
182.267
180.905
178.59
174.494
188.983
192.199
193.422
194.004
194.328
194.526
194.651
194.73
194.777
194.799
194.799
194.777
194.73
194.651
194.525
194.328
194.003
193.422
192.199
188.983
103.773
104.016
104.222
104.391
104.526
104.63
104.707
104.761
104.796
104.812
104.812
104.795
104.761
104.707
104.629
104.525
104.391
104.222
104.016
103.772
111.354
112.086
112.704
113.208
113.608
113.916
114.144
114.304
114.405
114.454
114.454
114.404
114.303
114.143
113.915
113.607
113.207
112.702
112.085
111.352
119.045
120.272
121.298
122.129
122.783
123.282
123.649
123.905
124.066
124.144
124.144
124.066
123.904
123.648
123.28
122.781
122.127
121.296
120.269
119.042
126.928
128.658
130.087
131.228
132.113
132.78
133.265
133.601
133.812
133.913
133.912
133.811
133.6
133.263
132.778
132.11
131.225
130.084
128.655
126.925
135.1
137.346
139.164
140.583
141.661
142.459
143.031
143.423
143.666
143.782
143.782
143.665
143.421
143.029
142.456
141.658
140.58
139.16
137.343
135.096
143.687
146.464
148.637
150.279
151.489
152.363
152.977
153.392
153.648
153.769
153.769
153.647
153.391
152.975
152.36
151.486
150.276
148.634
146.46
143.683
152.869
156.185
158.643
160.407
161.654
162.525
163.124
163.521
163.763
163.877
163.877
163.762
163.52
163.122
162.523
161.651
160.404
158.64
156.182
152.865
162.942
166.765
169.342
171.053
172.194
172.96
173.472
173.805
174.006
174.101
174.1
174.006
173.804
173.47
172.958
172.192
171.05
169.339
166.762
162.939
174.494
178.591
180.905
182.268
183.109
183.648
183.998
184.222
184.356
184.418
184.418
184.355
184.221
183.997
183.647
183.108
182.266
180.904
178.589
174.492
188.984
192.199
193.422
194.003
194.327
194.525
194.651
194.73
194.777
194.799
194.799
194.777
194.73
194.65
194.525
194.327
194.003
193.421
192.198
188.982
103.773
104.016
104.222
104.391
104.526
104.63
104.707
104.761
104.796
104.812
104.812
104.795
104.761
104.707
104.629
104.525
104.391
104.222
104.016
103.772
111.354
112.086
112.704
113.208
113.608
113.916
114.144
114.304
114.405
114.454
114.454
114.404
114.303
114.143
113.915
113.607
113.207
112.702
112.085
111.352
119.045
120.272
121.298
122.129
122.783
123.282
123.649
123.905
124.066
124.144
124.144
124.066
123.904
123.648
123.28
122.781
122.127
121.296
120.269
119.042
126.928
128.658
130.087
131.228
132.113
132.78
133.265
133.601
133.812
133.913
133.912
133.811
133.6
133.263
132.778
132.11
131.225
130.084
128.655
126.925
135.1
137.346
139.164
140.583
141.661
142.459
143.031
143.423
143.666
143.782
143.782
143.665
143.421
143.029
142.456
141.658
140.58
139.16
137.343
135.096
143.687
146.464
148.637
150.279
151.489
152.363
152.977
153.392
153.648
153.769
153.769
153.647
153.391
152.975
152.36
151.486
150.276
148.634
146.46
143.683
152.869
156.185
158.643
160.407
161.654
162.525
163.124
163.521
163.763
163.877
163.877
163.762
163.52
163.122
162.523
161.651
160.404
158.64
156.182
152.865
162.942
166.765
169.342
171.053
172.194
172.96
173.472
173.805
174.006
174.101
174.1
174.006
173.804
173.47
172.958
172.192
171.05
169.339
166.762
162.939
174.494
178.591
180.905
182.268
183.109
183.648
183.998
184.222
184.356
184.418
184.418
184.355
184.221
183.997
183.647
183.108
182.266
180.904
178.589
174.492
188.984
192.199
193.422
194.003
194.327
194.525
194.651
194.73
194.777
194.799
194.799
194.777
194.73
194.65
194.525
194.327
194.003
193.421
192.198
188.982
103.773
104.016
104.222
104.391
104.526
104.63
104.707
104.762
104.796
104.813
104.813
104.796
104.761
104.707
104.63
104.526
104.391
104.222
104.016
103.773
111.354
112.086
112.704
113.208
113.609
113.916
114.144
114.304
114.405
114.454
114.454
114.405
114.304
114.144
113.916
113.608
113.208
112.703
112.086
111.353
119.045
120.272
121.298
122.13
122.784
123.282
123.65
123.906
124.067
124.145
124.145
124.067
123.905
123.649
123.281
122.782
122.128
121.297
120.271
119.044
126.928
128.658
130.087
131.228
132.113
132.78
133.266
133.602
133.812
133.913
133.913
133.812
133.601
133.265
132.779
132.112
131.227
130.085
128.657
126.926
135.1
137.347
139.164
140.583
141.661
142.459
143.032
143.423
143.667
143.783
143.783
143.666
143.422
143.03
142.457
141.659
140.581
139.161
137.344
135.098
143.687
146.464
148.638
150.28
151.49
152.363
152.978
153.393
153.648
153.77
153.77
153.648
153.392
152.977
152.361
151.488
150.277
148.635
146.462
143.685
152.869
156.185
158.643
160.408
161.654
162.526
163.124
163.522
163.764
163.878
163.878
163.763
163.521
163.123
162.524
161.652
160.405
158.641
156.183
152.867
162.942
166.765
169.342
171.053
172.194
172.96
173.472
173.806
174.007
174.101
174.101
174.007
173.805
173.471
172.959
172.193
171.051
169.34
166.764
162.941
174.494
178.591
180.906
182.268
183.11
183.649
183.999
184.223
184.357
184.419
184.419
184.356
184.223
183.998
183.648
183.109
182.267
180.905
178.59
174.494
188.983
192.199
193.422
194.004
194.328
194.526
194.651
194.73
194.777
194.799
194.799
194.777
194.73
194.651
194.525
194.328
194.003
193.422
192.199
188.983
103.493
103.182
102.844
102.487
102.117
101.738
101.354
100.968
100.581
100.194
110.51
109.571
108.552
107.475
106.359
105.218
104.064
102.904
101.743
100.581
117.625
116.038
114.319
112.503
110.625
108.711
106.779
104.842
102.904
100.968
124.907
122.639
120.181
117.593
114.927
112.221
109.5
106.779
104.064
101.354
132.437
129.43
126.174
122.762
119.269
115.745
112.221
108.711
105.218
101.738
140.313
136.47
132.322
128.012
123.641
119.27
114.928
110.626
106.36
102.117
148.659
143.816
138.632
133.323
128.014
122.764
117.596
112.505
107.477
102.488
157.64
151.502
145.068
138.635
132.326
126.178
120.185
114.322
108.555
102.845
167.46
159.482
151.505
143.821
136.477
129.437
122.646
116.044
109.574
103.183
178.223
167.463
157.647
148.668
140.323
132.447
124.916
117.632
110.515
103.495
103.492
103.181
102.844
102.487
102.116
101.737
101.353
100.967
100.58
100.193
110.509
109.569
108.551
107.474
106.357
105.216
104.062
102.903
101.741
100.58
117.623
116.037
114.317
112.502
110.623
108.709
106.777
104.84
102.903
100.967
124.905
122.637
120.18
117.592
114.925
112.219
109.498
106.778
104.063
101.353
132.435
129.428
126.172
122.76
119.267
115.743
112.219
108.71
105.217
101.737
140.311
136.468
132.32
128.01
123.639
119.268
114.927
110.625
106.358
102.116
148.657
143.814
138.63
133.321
128.012
122.763
117.594
112.504
107.476
102.487
157.639
151.5
145.066
138.633
132.324
126.176
120.184
114.321
108.553
102.844
167.458
159.48
151.503
143.819
136.475
129.435
122.644
116.042
109.573
103.182
178.221
167.461
157.645
148.666
140.321
132.445
124.914
117.631
110.514
103.494
103.492
103.181
102.844
102.487
102.116
101.737
101.353
100.967
100.58
100.193
110.509
109.569
108.551
107.474
106.357
105.216
104.062
102.903
101.741
100.58
117.623
116.037
114.317
112.502
110.623
108.709
106.777
104.84
102.903
100.967
124.905
122.637
120.18
117.592
114.925
112.219
109.498
106.778
104.063
101.353
132.435
129.428
126.172
122.76
119.267
115.743
112.219
108.71
105.217
101.737
140.311
136.468
132.32
128.01
123.639
119.268
114.927
110.625
106.358
102.116
148.657
143.814
138.63
133.321
128.012
122.763
117.594
112.504
107.476
102.487
157.639
151.5
145.066
138.633
132.324
126.176
120.184
114.321
108.553
102.844
167.458
159.48
151.503
143.819
136.475
129.435
122.644
116.042
109.573
103.182
178.221
167.461
157.645
148.666
140.321
132.445
124.914
117.631
110.514
103.494
103.493
103.182
102.844
102.487
102.117
101.738
101.354
100.968
100.581
100.194
110.51
109.571
108.552
107.475
106.359
105.218
104.064
102.904
101.743
100.581
117.625
116.038
114.319
112.503
110.625
108.711
106.779
104.842
102.904
100.968
124.907
122.639
120.181
117.593
114.927
112.221
109.5
106.779
104.064
101.354
132.437
129.43
126.174
122.762
119.269
115.745
112.221
108.711
105.218
101.738
140.313
136.47
132.322
128.012
123.641
119.27
114.928
110.626
106.36
102.117
148.659
143.816
138.632
133.323
128.014
122.764
117.596
112.505
107.477
102.488
157.64
151.502
145.068
138.635
132.326
126.178
120.185
114.322
108.555
102.845
167.46
159.482
151.505
143.821
136.477
129.437
122.646
116.044
109.574
103.183
178.223
167.463
157.647
148.668
140.323
132.447
124.916
117.632
110.515
103.495
188.986
174.5
162.952
152.88
143.7
135.113
126.94
119.054
111.36
103.775
192.203
178.6
166.778
156.202
146.482
137.365
128.675
120.285
112.095
104.019
193.426
180.918
169.36
158.666
148.663
139.189
130.11
121.316
112.716
104.227
194.01
182.284
171.078
160.439
150.314
140.618
131.26
122.154
113.224
104.397
194.336
183.132
172.229
161.697
151.537
141.709
132.156
122.817
113.63
104.534
194.536
183.679
173.007
162.584
152.428
142.524
132.838
123.329
113.946
104.64
194.666
184.04
173.537
163.205
153.067
143.12
133.345
123.713
114.185
104.721
194.75
184.28
173.894
163.632
153.514
143.544
133.71
123.992
114.359
104.781
194.805
184.435
174.128
163.915
153.815
143.832
133.96
124.184
114.481
104.822
194.837
184.526
174.267
164.085
153.998
144.009
134.116
124.305
114.557
104.848
194.851
184.567
174.329
164.163
154.082
144.092
134.189
124.362
114.593
104.86
194.848
184.561
174.321
164.154
154.075
144.088
134.187
124.362
114.593
104.861
194.829
184.506
174.241
164.06
153.978
143.998
134.111
124.305
114.558
104.849
194.789
184.394
174.076
163.867
153.78
143.814
133.957
124.189
114.487
104.825
194.721
184.206
173.804
163.554
153.464
143.524
133.714
124.007
114.375
104.787
194.609
183.904
173.382
163.082
152.999
143.107
133.371
123.753
114.219
104.735
194.42
183.421
172.74
162.395
152.347
142.537
132.91
123.417
114.016
104.666
194.069
182.621
171.763
161.416
151.459
141.787
132.319
122.993
113.761
104.581
193.303
181.234
170.28
160.053
150.292
140.838
131.589
122.478
113.455
104.48
191.211
178.737
168.075
158.229
148.825
139.69
130.728
121.879
113.102
104.363
188.984
174.498
162.949
152.878
143.697
135.111
126.938
119.053
111.358
103.774
192.201
178.597
166.776
156.199
146.48
137.363
128.673
120.283
112.094
104.019
193.425
180.915
169.357
158.663
148.66
139.187
130.108
121.314
112.714
104.226
194.008
182.282
171.075
160.436
150.312
140.615
131.257
122.152
113.223
104.396
194.334
183.129
172.226
161.694
151.534
141.706
132.154
122.815
113.629
104.533
194.535
183.676
173.004
162.581
152.425
142.521
132.836
123.326
113.944
104.639
194.664
184.038
173.534
163.202
153.064
143.117
133.343
123.71
114.183
104.72
194.748
184.277
173.891
163.629
153.511
143.541
133.708
123.989
114.358
104.78
194.803
184.432
174.124
163.912
153.812
143.829
133.958
124.182
114.479
104.821
194.835
184.523
174.264
164.082
153.994
144.006
134.113
124.302
114.554
104.847
194.848
184.563
174.326
164.159
154.078
144.089
134.186
124.359
114.591
104.859
194.846
184.557
174.318
164.151
154.072
144.085
134.184
124.359
114.591
104.859
194.827
184.503
174.237
164.056
153.975
143.994
134.108
124.302
114.556
104.848
194.787
184.391
174.073
163.864
153.777
143.811
133.954
124.186
114.484
104.823
194.719
184.202
173.8
163.55
153.46
143.521
133.711
124.005
114.373
104.786
194.607
183.9
173.378
163.078
152.995
143.104
133.368
123.751
114.217
104.733
194.418
183.417
172.736
162.391
152.343
142.533
132.907
123.415
114.013
104.665
194.066
182.617
171.759
161.412
151.456
141.784
132.316
122.99
113.758
104.58
193.3
181.23
170.276
160.049
150.289
140.835
131.586
122.475
113.452
104.478
191.208
178.733
168.071
158.226
148.822
139.687
130.725
121.876
113.099
104.362
188.984
174.498
162.949
152.878
143.697
135.111
126.938
119.053
111.358
103.774
192.201
178.597
166.776
156.199
146.48
137.363
128.673
120.283
112.094
104.019
193.425
180.915
169.357
158.663
148.66
139.187
130.108
121.314
112.714
104.226
194.008
182.282
171.075
160.436
150.312
140.615
131.257
122.152
113.223
104.396
194.334
183.129
172.226
161.694
151.534
141.706
132.154
122.815
113.629
104.533
194.535
183.676
173.004
162.581
152.425
142.521
132.836
123.326
113.944
104.639
194.664
184.038
173.534
163.202
153.064
143.117
133.343
123.71
114.183
104.72
194.748
184.277
173.891
163.629
153.511
143.541
133.708
123.989
114.358
104.78
194.803
184.432
174.124
163.912
153.812
143.829
133.958
124.182
114.479
104.821
194.835
184.523
174.264
164.082
153.994
144.006
134.113
124.302
114.554
104.847
194.848
184.563
174.326
164.159
154.078
144.089
134.186
124.359
114.591
104.859
194.846
184.557
174.318
164.151
154.072
144.085
134.184
124.359
114.591
104.859
194.827
184.503
174.237
164.056
153.975
143.994
134.108
124.302
114.556
104.848
194.787
184.391
174.073
163.864
153.777
143.811
133.954
124.186
114.484
104.823
194.719
184.202
173.8
163.55
153.46
143.521
133.711
124.005
114.373
104.786
194.607
183.9
173.378
163.078
152.995
143.104
133.368
123.751
114.217
104.733
194.418
183.417
172.736
162.391
152.343
142.533
132.907
123.415
114.013
104.665
194.066
182.617
171.759
161.412
151.456
141.784
132.316
122.99
113.758
104.58
193.3
181.23
170.276
160.049
150.289
140.835
131.586
122.475
113.452
104.478
191.208
178.733
168.071
158.226
148.822
139.687
130.725
121.876
113.099
104.362
188.986
174.5
162.952
152.88
143.7
135.113
126.94
119.054
111.36
103.775
192.203
178.6
166.778
156.202
146.482
137.365
128.675
120.285
112.095
104.019
193.426
180.918
169.36
158.666
148.663
139.189
130.11
121.316
112.716
104.227
194.01
182.284
171.078
160.439
150.314
140.618
131.26
122.154
113.224
104.397
194.336
183.132
172.229
161.697
151.537
141.709
132.156
122.817
113.63
104.534
194.536
183.679
173.007
162.584
152.428
142.524
132.838
123.329
113.946
104.64
194.666
184.04
173.537
163.205
153.067
143.12
133.345
123.713
114.185
104.721
194.75
184.28
173.894
163.632
153.514
143.544
133.71
123.992
114.359
104.781
194.805
184.435
174.128
163.915
153.815
143.832
133.96
124.184
114.481
104.822
194.837
184.526
174.267
164.085
153.998
144.009
134.116
124.305
114.557
104.848
194.851
184.567
174.329
164.163
154.082
144.092
134.189
124.362
114.593
104.86
194.848
184.561
174.321
164.154
154.075
144.088
134.187
124.362
114.593
104.861
194.829
184.506
174.241
164.06
153.978
143.998
134.111
124.305
114.558
104.849
194.789
184.394
174.076
163.867
153.78
143.814
133.957
124.189
114.487
104.825
194.721
184.206
173.804
163.554
153.464
143.524
133.714
124.007
114.375
104.787
194.609
183.904
173.382
163.082
152.999
143.107
133.371
123.753
114.219
104.735
194.42
183.421
172.74
162.395
152.347
142.537
132.91
123.417
114.016
104.666
194.069
182.621
171.763
161.416
151.459
141.787
132.319
122.993
113.761
104.581
193.303
181.234
170.28
160.053
150.292
140.838
131.589
122.478
113.455
104.48
191.211
178.737
168.075
158.229
148.825
139.69
130.728
121.879
113.102
104.363
184.014
174.434
165.063
155.973
147.099
138.377
129.76
121.213
112.712
104.235
177.669
169.934
161.78
153.512
145.232
136.969
128.729
120.508
112.3
104.099
172.534
165.868
158.627
151.077
143.36
135.551
127.689
119.796
111.885
103.963
168.415
162.395
155.802
148.825
141.595
134.199
126.692
119.111
111.485
103.831
165.121
159.517
153.381
146.845
140.014
132.972
125.779
118.482
111.116
103.71
162.517
157.195
151.385
145.18
138.665
131.913
124.985
117.931
110.792
103.603
160.514
155.388
149.809
143.847
137.572
131.047
124.332
117.476
110.523
103.515
159.055
154.062
148.642
142.851
136.748
130.391
123.834
117.127
110.317
103.447
158.101
153.192
147.872
142.19
136.199
129.952
123.5
116.894
110.177
103.401
157.63
152.761
147.49
141.861
135.924
129.732
123.333
116.777
110.109
103.382
184.011
174.43
165.059
155.969
147.095
138.374
129.757
121.21
112.709
104.233
177.665
169.931
161.777
153.508
145.228
136.966
128.726
120.505
112.298
104.098
172.531
165.865
158.624
151.073
143.356
135.547
127.686
119.793
111.882
103.961
168.412
162.392
155.799
148.822
141.592
134.195
126.688
119.108
111.482
103.83
165.118
159.514
153.378
146.842
140.011
132.969
125.776
118.479
111.113
103.708
162.514
157.192
151.382
145.177
138.661
131.91
124.982
117.927
110.788
103.601
160.512
155.385
149.806
143.844
137.568
131.044
124.328
117.471
110.519
103.512
159.052
154.059
148.639
142.848
136.745
130.387
123.83
117.123
110.312
103.443
158.099
153.189
147.869
142.187
136.195
129.948
123.496
116.888
110.171
103.396
157.628
152.758
147.487
141.858
135.921
129.728
123.328
116.771
110.102
103.376
184.011
174.43
165.059
155.969
147.095
138.374
129.757
121.21
112.709
104.233
177.665
169.931
161.777
153.508
145.228
136.966
128.726
120.505
112.298
104.098
172.531
165.865
158.624
151.073
143.356
135.547
127.686
119.793
111.882
103.961
168.412
162.392
155.799
148.822
141.592
134.195
126.688
119.108
111.482
103.83
165.118
159.514
153.378
146.842
140.011
132.969
125.776
118.479
111.113
103.708
162.514
157.192
151.382
145.177
138.661
131.91
124.982
117.927
110.788
103.601
160.511
155.385
149.806
143.844
137.568
131.044
124.328
117.471
110.519
103.512
159.052
154.059
148.639
142.848
136.744
130.387
123.83
117.123
110.312
103.443
158.099
153.189
147.869
142.187
136.195
129.948
123.496
116.888
110.171
103.396
157.628
152.758
147.487
141.858
135.921
129.728
123.328
116.771
110.102
103.376
184.014
174.434
165.063
155.973
147.099
138.377
129.76
121.213
112.712
104.235
177.669
169.934
161.78
153.512
145.232
136.969
128.729
120.508
112.3
104.099
172.534
165.868
158.627
151.077
143.36
135.551
127.689
119.797
111.885
103.963
168.415
162.395
155.802
148.825
141.595
134.199
126.692
119.112
111.485
103.831
165.121
159.517
153.381
146.845
140.014
132.972
125.779
118.482
111.116
103.71
162.517
157.195
151.385
145.18
138.665
131.913
124.985
117.931
110.792
103.603
160.514
155.388
149.809
143.847
137.571
131.047
124.332
117.476
110.523
103.515
159.055
154.061
148.641
142.851
136.748
130.391
123.834
117.127
110.317
103.447
158.101
153.191
147.872
142.19
136.199
129.952
123.5
116.894
110.177
103.401
157.63
152.761
147.489
141.861
135.924
129.732
123.333
116.777
110.109
103.382
192.748
195.532
196.709
197.346
197.749
198.025
198.218
198.35
198.433
198.473
198.474
198.434
198.351
198.22
198.027
197.752
197.349
196.712
195.534
192.75
184.201
188.208
190.671
192.276
193.379
194.161
194.718
195.103
195.346
195.464
195.465
195.348
195.106
194.723
194.167
193.386
192.283
190.678
188.213
184.205
178.191
182.437
185.502
187.719
189.342
190.535
191.402
192.009
192.396
192.584
192.585
192.399
192.015
191.41
190.544
189.352
187.73
185.513
182.447
178.2
173.618
177.864
181.198
183.775
185.752
187.252
188.365
189.155
189.662
189.911
189.912
189.667
189.163
188.376
187.264
185.766
183.791
181.215
177.881
173.634
170.035
174.224
177.673
180.455
182.662
184.379
185.678
186.61
187.213
187.51
187.512
187.219
186.62
185.692
184.397
182.683
180.478
177.698
174.25
170.061
167.228
171.352
174.844
177.739
180.091
181.957
183.388
184.426
185.101
185.436
185.439
185.11
184.439
183.407
181.981
180.119
177.771
174.878
171.388
167.266
165.078
169.142
172.645
175.601
178.042
180.005
181.527
182.64
183.369
183.731
183.735
183.38
182.658
181.551
180.035
178.078
175.642
172.689
169.19
165.128
163.511
167.529
171.029
174.017
176.511
178.536
180.118
181.281
182.046
182.428
182.432
182.059
181.302
180.146
178.572
176.555
174.067
171.084
167.588
163.574
162.487
166.472
169.967
172.97
175.494
177.554
179.172
180.366
181.154
181.547
181.552
181.168
180.389
179.204
177.595
175.543
173.028
170.031
166.542
162.561
161.98
165.949
169.44
172.449
174.986
177.062
178.697
179.906
180.704
181.103
181.108
180.719
179.931
178.732
177.107
175.039
172.511
169.509
166.025
162.06
192.75
195.534
196.71
197.347
197.75
198.026
198.218
198.35
198.433
198.473
198.473
198.434
198.351
198.219
198.026
197.751
197.347
196.71
195.533
192.748
184.204
188.21
190.674
192.278
193.381
194.163
194.719
195.104
195.346
195.464
195.465
195.348
195.106
194.722
194.166
193.384
192.281
190.675
188.211
184.202
178.195
182.44
185.505
187.722
189.344
190.536
191.404
192.01
192.396
192.584
192.585
192.398
192.014
191.408
190.542
189.35
187.728
185.511
182.445
178.198
173.621
177.867
181.201
183.777
185.754
187.253
188.367
189.156
189.662
189.91
189.912
189.666
189.162
188.375
187.263
185.765
183.789
181.213
177.878
173.631
170.038
174.227
177.676
180.457
182.664
184.381
185.679
186.611
187.213
187.51
187.511
187.219
186.619
185.691
184.396
182.681
180.476
177.696
174.247
170.058
167.232
171.354
174.847
177.742
180.093
181.959
183.389
184.426
185.102
185.436
185.438
185.109
184.438
183.405
181.979
180.117
177.769
174.876
171.386
167.263
165.081
169.144
172.647
175.603
178.044
180.007
181.529
182.641
183.37
183.731
183.734
183.379
182.657
181.55
180.034
178.076
175.64
172.687
169.187
165.125
163.514
167.531
171.032
174.02
176.513
178.538
180.119
181.282
182.047
182.428
182.431
182.058
181.301
180.145
178.571
176.553
174.065
171.082
167.586
163.572
162.49
166.475
169.969
172.973
175.496
177.556
179.173
180.367
181.154
181.547
181.551
181.167
180.389
179.203
177.594
175.542
173.026
170.029
166.539
162.558
161.983
165.951
169.442
172.451
174.987
177.064
178.698
179.906
180.704
181.103
181.108
180.719
179.93
178.731
177.106
175.038
172.51
169.507
166.023
162.058
192.75
195.534
196.71
197.347
197.75
198.026
198.218
198.35
198.433
198.473
198.473
198.434
198.351
198.219
198.026
197.751
197.347
196.71
195.533
192.748
184.204
188.21
190.674
192.278
193.381
194.163
194.719
195.104
195.346
195.464
195.465
195.348
195.105
194.722
194.166
193.384
192.281
190.675
188.211
184.202
178.195
182.44
185.505
187.722
189.344
190.536
191.403
192.01
192.396
192.584
192.585
192.398
192.014
191.408
190.542
189.35
187.728
185.511
182.445
178.198
173.621
177.867
181.201
183.777
185.754
187.253
188.367
189.156
189.662
189.911
189.912
189.666
189.162
188.375
187.263
185.765
183.789
181.213
177.878
173.631
170.038
174.227
177.676
180.457
182.664
184.381
185.679
186.611
187.213
187.51
187.511
187.219
186.619
185.691
184.396
182.681
180.476
177.696
174.247
170.058
167.232
171.354
174.847
177.742
180.093
181.959
183.389
184.426
185.102
185.436
185.438
185.109
184.438
183.405
181.979
180.117
177.769
174.876
171.386
167.263
165.081
169.144
172.647
175.603
178.044
180.007
181.529
182.641
183.37
183.731
183.734
183.379
182.657
181.55
180.034
178.076
175.64
172.687
169.187
165.125
163.514
167.531
171.032
174.02
176.513
178.538
180.119
181.282
182.047
182.428
182.431
182.058
181.301
180.145
178.571
176.553
174.065
171.082
167.586
163.572
162.49
166.475
169.969
172.973
175.496
177.556
179.173
180.367
181.154
181.547
181.551
181.167
180.389
179.203
177.594
175.542
173.026
170.029
166.539
162.558
161.983
165.951
169.442
172.452
174.988
177.064
178.698
179.906
180.705
181.103
181.108
180.719
179.93
178.731
177.106
175.038
172.51
169.507
166.023
162.058
192.748
195.532
196.709
197.346
197.749
198.025
198.218
198.35
198.433
198.473
198.474
198.434
198.351
198.22
198.027
197.752
197.349
196.712
195.534
192.75
184.201
188.208
190.671
192.276
193.379
194.161
194.718
195.103
195.346
195.464
195.465
195.348
195.106
194.723
194.167
193.386
192.283
190.678
188.213
184.205
178.191
182.437
185.502
187.719
189.342
190.535
191.402
192.009
192.396
192.584
192.585
192.399
192.015
191.41
190.544
189.352
187.73
185.513
182.448
178.201
173.618
177.864
181.198
183.775
185.752
187.252
188.365
189.155
189.662
189.911
189.912
189.667
189.163
188.376
187.264
185.766
183.791
181.215
177.881
173.634
170.035
174.224
177.673
180.455
182.662
184.379
185.678
186.61
187.213
187.51
187.512
187.219
186.62
185.692
184.397
182.683
180.478
177.698
174.25
170.061
167.228
171.352
174.844
177.739
180.091
181.957
183.388
184.426
185.101
185.436
185.439
185.11
184.439
183.407
181.98
180.119
177.771
174.878
171.388
167.266
165.078
169.142
172.644
175.601
178.042
180.005
181.527
182.64
183.369
183.731
183.735
183.38
182.657
181.551
180.035
178.078
175.642
172.689
169.189
165.128
163.511
167.528
171.029
174.017
176.511
178.536
180.118
181.281
182.046
182.428
182.432
182.059
181.302
180.146
178.572
176.555
174.067
171.084
167.588
163.574
162.487
166.472
169.967
172.97
175.494
177.554
179.172
180.366
181.154
181.547
181.552
181.168
180.389
179.204
177.596
175.543
173.028
170.031
166.542
162.561
161.98
165.949
169.44
172.449
174.986
177.062
178.697
179.906
180.704
181.103
181.108
180.72
179.931
178.732
177.107
175.039
172.512
169.509
166.025
162.06
104.235
112.713
121.217
129.766
138.384
147.107
155.98
165.068
174.437
184.014
104.099
112.301
120.511
128.734
136.975
145.237
153.517
161.783
169.935
177.666
103.962
111.885
119.798
127.692
135.553
143.362
151.077
158.626
165.864
172.527
103.83
111.483
119.11
126.69
134.196
141.59
148.818
155.793
162.383
168.401
103.708
111.111
118.476
125.772
132.962
140.001
146.828
153.361
159.494
165.096
103.6
110.784
117.92
124.97
131.893
138.64
145.15
151.352
157.159
162.48
103.509
110.511
117.457
124.307
131.015
137.533
143.803
149.761
155.338
160.463
103.44
110.301
117.101
123.798
130.346
136.695
142.792
148.579
153.997
158.99
103.392
110.158
116.858
123.452
129.893
136.132
142.118
147.796
153.114