/*--------------------------------*- C++ -*----------------------------------*\
| =========                 |                                                 |
| \\      /  F ield         | OpenFOAM: The Open Source CFD Toolbox           |
|  \\    /   O peration     | Version:  2.4.0                                 |
|   \\  /    A nd           | Web:      www.OpenFOAM.org                      |
|    \\/     M anipulation  |                                                 |
\*---------------------------------------------------------------------------*/
FoamFile
{
    version     2.0;
    format      ascii;
    class       surfaceScalarField;
    location    "1.495";
    object      phi;
}
// * * * * * * * * * * * * * * * * * * * * * * * * * * * * * * * * * * * * * //

dimensions      [0 3 -1 0 0 0 0];

internalField   nonuniform List<scalar> 
3120
(
2.92648e-07
-2.98042e-07
3.0459e-07
-1.74431e-08
-1.05832e-07
4.58236e-07
-9.24306e-07
8.94715e-07
-2.05969e-06
1.2373e-06
-3.42309e-06
1.48515e-06
-4.95325e-06
1.6652e-06
-6.61415e-06
1.80694e-06
-8.38916e-06
1.93122e-06
-1.02709e-05
2.0476e-06
-1.22509e-05
2.15489e-06
-1.43118e-05
2.24319e-06
-1.64214e-05
2.2964e-06
-1.85289e-05
2.29464e-06
-2.05642e-05
2.21667e-06
-2.24384e-05
2.04233e-06
-2.40471e-05
1.75502e-06
-2.52769e-05
1.34463e-06
-2.60143e-05
8.10335e-07
-2.61541e-05
1.62393e-07
-2.56111e-05
-5.78664e-07
-2.43357e-05
-1.37318e-06
-2.23248e-05
-2.17145e-06
-1.96294e-05
-2.91516e-06
-1.63572e-05
-3.54214e-06
-1.26705e-05
-3.99345e-06
-8.77522e-06
-4.22115e-06
-4.9036e-06
-4.19569e-06
-1.29318e-06
-3.91173e-06
1.83566e-06
-3.3912e-06
4.30444e-06
-2.6773e-06
5.99437e-06
-1.83218e-06
6.85375e-06
-9.30582e-07
6.8996e-06
-4.82853e-08
6.21639e-06
7.4168e-07
4.95591e-06
1.36923e-06
3.33832e-06
1.75686e-06
1.66738e-06
1.80552e-06
4.66642e-07
1.38848e-06
4.6566e-07
2.25066e-08
-3.12578e-07
-7.04907e-07
7.18083e-07
-2.41372e-06
2.1225e-06
-5.01708e-06
3.41629e-06
-8.36054e-06
4.46153e-06
-1.228e-05
5.25554e-06
-1.66442e-05
5.85822e-06
-2.13641e-05
6.3389e-06
-2.63822e-05
6.74819e-06
-3.16554e-05
7.10823e-06
-3.71348e-05
7.4123e-06
-4.27497e-05
7.62949e-06
-4.83958e-05
7.71143e-06
-5.39277e-05
7.59985e-06
-5.91595e-05
7.23416e-06
-6.38676e-05
6.55934e-06
-6.78018e-05
5.53357e-06
-7.07008e-05
4.13619e-06
-7.23158e-05
2.37437e-06
-7.24284e-05
2.88781e-07
-7.08706e-05
-2.04222e-06
-6.75595e-05
-4.50425e-06
-6.2518e-05
-6.95159e-06
-5.58818e-05
-9.21716e-06
-4.79036e-05
-1.11267e-05
-3.89464e-05
-1.25167e-05
-2.94617e-05
-1.32539e-05
-1.99578e-05
-1.32542e-05
-1.09579e-05
-1.24971e-05
-2.95487e-06
-1.10335e-05
3.63395e-06
-8.98043e-06
8.5089e-06
-6.50935e-06
1.15139e-05
-3.82993e-06
1.26485e-05
-1.16716e-06
1.20714e-05
1.2552e-06
1.0098e-05
3.21777e-06
7.18721e-06
4.49586e-06
3.959e-06
4.83796e-06
1.39361e-06
3.9602e-06
1.67316e-06
-5.45328e-07
1.79496e-07
-2.3813e-06
2.62588e-06
-5.7238e-06
5.46836e-06
-1.03162e-05
8.03485e-06
-1.59416e-05
1.01236e-05
-2.23912e-05
1.17448e-05
-2.94935e-05
1.3003e-05
-3.71248e-05
1.40159e-05
-4.51959e-05
1.48683e-05
-5.36285e-05
1.5593e-05
-6.23306e-05
1.61701e-05
-7.11765e-05
1.65343e-05
-7.9992e-05
1.65888e-05
-8.85479e-05
1.62196e-05
-9.6561e-05
1.53119e-05
-0.000103703
1.37649e-05
-0.000109616
1.15078e-05
-0.000113939
8.51335e-06
-0.000116334
4.80989e-06
-0.000116511
4.91199e-07
-0.000114259
-4.27769e-06
-0.000109483
-9.2766e-06
-0.000102225
-1.42237e-05
-9.26734e-05
-1.88018e-05
-8.11677e-05
-2.26833e-05
-6.81901e-05
-2.55603e-05
-5.43415e-05
-2.71787e-05
-4.03048e-05
-2.73713e-05
-2.6795e-05
-2.60842e-05
-1.45018e-05
-2.33935e-05
-4.03009e-06
-1.95043e-05
4.15723e-06
-1.47327e-05
9.78427e-06
-9.47529e-06
1.2789e-05
-4.17205e-06
1.33334e-05
7.27905e-07
1.18009e-05
4.78004e-06
8.77374e-06
7.54454e-06
5.04788e-06
8.56077e-06
1.88233e-06
7.33704e-06
3.41585e-06
-1.21336e-06
1.29483e-06
-4.34559e-06
5.89673e-06
-9.5364e-06
1.06383e-05
-1.6281e-05
1.47833e-05
-2.42788e-05
1.81378e-05
-3.32811e-05
2.07629e-05
-4.30899e-05
2.28274e-05
-5.35623e-05
2.45051e-05
-6.45894e-05
2.59135e-05
-7.60666e-05
2.70902e-05
-8.78658e-05
2.79912e-05
-9.98125e-05
2.85053e-05
-0.000111671
2.84746e-05
-0.000123141
2.7719e-05
-0.000133858
2.60613e-05
-0.000143409
2.33516e-05
-0.000151354
1.94909e-05
-0.000157253
1.44508e-05
-0.000160698
8.29072e-06
-0.000161343
1.16962e-06
-0.000158938
-6.65051e-06
-0.000153359
-1.48265e-05
-0.000144639
-2.29225e-05
-0.000132976
-3.04527e-05
-0.000118745
-3.69135e-05
-0.000102488
-4.18266e-05
-8.48976e-05
-4.47868e-05
-6.67806e-05
-4.55115e-05
-4.90056e-05
-4.38838e-05
-3.24384e-05
-3.99821e-05
-1.78682e-05
-3.40894e-05
-5.93418e-06
-2.66738e-05
2.93786e-06
-1.83472e-05
8.58019e-06
-9.80878e-06
1.11059e-05
-1.78735e-06
1.09078e-05
4.99265e-06
8.62898e-06
9.82204e-06
5.17716e-06
1.19836e-05
1.99506e-06
1.07259e-05
5.25543e-06
-1.92424e-06
3.06696e-06
-6.44465e-06
1.06322e-05
-1.36015e-05
1.77565e-05
-2.25997e-05
2.37706e-05
-3.30369e-05
2.85793e-05
-4.46219e-05
3.23492e-05
-5.71379e-05
3.53432e-05
-7.0435e-05
3.78024e-05
-8.43974e-05
3.98768e-05
-9.8906e-05
4.16007e-05
-0.000113807
4.28959e-05
-0.000128888
4.35921e-05
-0.000143864
4.3459e-05
-0.000158374
4.22407e-05
-0.000171986
3.9691e-05
-0.000184219
3.56073e-05
-0.000194559
2.98609e-05
-0.000202496
2.24237e-05
-0.00020755
1.33878e-05
-0.000209313
2.97904e-06
-0.000207473
-8.44175e-06
-0.000201845
-2.04029e-05
-0.000192408
-3.23057e-05
-0.000179325
-4.3484e-05
-0.000162955
-5.32385e-05
-0.000143853
-6.08904e-05
-0.000122764
-6.58449e-05
-0.000100593
-6.76581e-05
-7.83556e-05
-6.61026e-05
-5.7104e-05
-6.12179e-05
-3.78421e-05
-5.33364e-05
-2.14281e-05
-4.30728e-05
-8.48579e-06
-3.12742e-05
6.61037e-07
-1.89425e-05
6.02781e-06
-7.14586e-06
7.97603e-06
3.05019e-06
7.17814e-06
1.06071e-05
4.62224e-06
1.45e-05
1.86418e-06
1.36742e-05
6.97655e-06
-2.64699e-06
5.50451e-06
-8.59344e-06
1.68726e-05
-1.77692e-05
2.68796e-05
-2.90689e-05
3.50534e-05
-4.19799e-05
4.14944e-05
-5.6169e-05
4.65396e-05
-7.14076e-05
5.05822e-05
-8.75499e-05
5.39459e-05
-0.000104485
5.68148e-05
-0.000122094
5.92129e-05
-0.000140207
6.10155e-05
-0.000158588
6.19812e-05
-0.000176912
6.17951e-05
-0.00019477
6.0115e-05
-0.000211674
5.66173e-05
-0.000227079
5.104e-05
-0.000240401
4.32191e-05
-0.000251054
3.31203e-05
-0.000258474
2.08619e-05
-0.000262166
6.72979e-06
-0.00026173
-8.82225e-06
-0.000256875
-2.51968e-05
-0.000247483
-4.16306e-05
-0.000233633
-5.72674e-05
-0.000215617
-7.11921e-05
-0.00019396
-8.24914e-05
-0.000169425
-9.03319e-05
-0.000142995
-9.40476e-05
-0.000115831
-9.32323e-05
-8.91991e-05
-8.78209e-05
-6.43641e-05
-7.81455e-05
-4.2469e-05
-6.4944e-05
-2.44099e-05
-4.93107e-05
-1.07352e-05
-3.25976e-05
-1.58184e-06
-1.6284e-05
3.33907e-06
-1.86038e-06
4.70765e-06
9.23108e-06
3.58008e-06
1.55964e-05
1.58326e-06
1.58389e-05
8.4426e-06
-3.36816e-06
8.6084e-06
-1.07424e-05
2.462e-05
-2.19398e-05
3.80099e-05
-3.5542e-05
4.86318e-05
-5.09267e-05
5.68821e-05
-6.77238e-05
6.33369e-05
-8.57012e-05
6.85594e-05
-0.000104728
7.29734e-05
-0.00012471
7.68e-05
-0.000145538
8.00457e-05
-0.000167044
8.25276e-05
-0.000188974
8.39197e-05
-0.000210975
8.38093e-05
-0.000232599
8.17555e-05
-0.000253306
7.73464e-05
-0.000272485
7.02493e-05
-0.000289482
6.02531e-05
-0.000303622
4.73056e-05
-0.00031424
3.15371e-05
-0.000320734
1.32775e-05
-0.000322579
-6.93739e-06
-0.000319347
-2.83694e-05
-0.000310785
-5.01197e-05
-0.000296842
-7.11335e-05
-0.000277699
-9.02605e-05
-0.000253799
-0.00010632
-0.000225879
-0.000118186
-0.000194966
-0.000124901
-0.000162356
-0.00012579
-0.00012954
-0.000120591
-9.80945e-05
-0.00010955
-6.9526e-05
-9.34758e-05
-4.51011e-05
-7.37027e-05
-2.56918e-05
-5.19786e-05
-1.16697e-05
-3.02832e-05
-2.87103e-06
-1.06428e-05
1.36788e-06
4.99254e-06
2.16621e-06
1.47791e-05
1.20792e-06
1.69289e-05
9.5647e-06
-4.07693e-06
1.23675e-05
-1.2851e-05
3.3845e-05
-2.603e-05
5.11066e-05
-4.18923e-05
6.44624e-05
-5.97141e-05
7.47046e-05
-7.90966e-05
8.27174e-05
-9.98144e-05
8.92746e-05
-0.000121761
9.4919e-05
-0.000144871
9.99108e-05
-0.000169054
0.000104232
-0.000194151
0.000107628
-0.0002199
0.000109674
-0.000245926
0.000109845
-0.000271745
0.000107586
-0.000296765
0.000102382
-0.000320308
9.38141e-05
-0.000341636
8.16106e-05
-0.000359979
6.56851e-05
-0.000374559
4.61652e-05
-0.00038465
2.34096e-05
-0.00038959
-1.9751e-06
-0.000388796
-2.91151e-05
-0.000381856
-5.69925e-05
-0.000368564
-8.43554e-05
-0.000348939
-0.000109812
-0.000323293
-0.000131893
-0.000292266
-0.00014914
-0.000256869
-0.000160227
-0.000218481
-0.000164113
-0.000178799
-0.000160211
-0.000139737
-0.000148556
-0.000103242
-0.000129921
-7.10673e-05
-0.000105832
-4.45454e-05
-7.84616e-05
-2.44059e-05
-5.03913e-05
-1.0697e-05
-2.43291e-05
-2.81254e-06
-2.88296e-06
4.25743e-07
1.1536e-05
7.65114e-07
1.6676e-05
1.02809e-05
-4.75923e-06
1.67573e-05
-1.48749e-05
4.44859e-05
-2.99532e-05
6.60877e-05
-4.79889e-05
8.24583e-05
-6.81696e-05
9.48834e-05
-9.00786e-05
0.000104622
-0.000113506
0.000112697
-0.000138379
0.000119788
-0.000164667
0.000126197
-0.000192307
0.00013187
-0.00022115
0.00013647
-0.000250931
0.000139454
-0.000281255
0.000140168
-0.000311595
0.000137925
-0.000341304
0.000132092
-0.000369631
0.000122146
-0.000395752
0.000107739
-0.000418799
8.87396e-05
-0.000437884
6.5265e-05
-0.00045214
3.76991e-05
-0.000460781
6.70829e-06
-0.00046312
-2.67519e-05
-0.000458581
-6.15065e-05
-0.000446769
-9.61366e-05
-0.000427514
-0.000129029
-0.000400931
-0.00015843
-0.000367487
-0.000182532
-0.00032807
-0.000199588
-0.000284034
-0.000208089
-0.000237206
-0.000206977
-0.000189807
-0.000195894
-0.000144268
-0.000175401
-0.000102953
-0.000147092
-6.78248e-05
-0.00011354
-4.01527e-05
-7.80223e-05
-2.03391e-05
-4.41124e-05
-7.9154e-06
-1.52887e-05
-1.65919e-06
5.29009e-06
2.58472e-07
1.47961e-05
1.05335e-05
-5.39643e-06
2.17366e-05
-1.67607e-05
5.64446e-05
-3.36098e-05
8.28255e-05
-5.36833e-05
0.000102484
-7.60955e-05
0.000117291
-0.000100422
0.00012894
-0.000126476
0.000138743
-0.000154222
0.000147528
-0.000183667
0.000155635
-0.000214775
0.000162971
-0.000247409
0.000169094
-0.000281294
0.000173327
-0.000316004
0.000174864
-0.000350966
0.00017287
-0.00038547
0.000166572
-0.000418686
0.000155335
-0.000449702
0.000138725
-0.00047756
0.000116562
-0.000501286
8.89571e-05
-0.000519927
5.63249e-05
-0.000532611
1.93876e-05
-0.00053856
-2.08384e-05
-0.000537081
-6.30291e-05
-0.000527617
-0.000105642
-0.000509794
-0.000146887
-0.000483474
-0.000184775
-0.000448846
-0.00021717
-0.000406536
-0.000241895
-0.000357713
-0.000256894
-0.000304168
-0.000260489
-0.000248313
-0.000251706
-0.000193036
-0.000230629
-0.000141394
-0.000198681
-9.61746e-05
-0.000158705
-5.9431e-05
-0.000114717
-3.21437e-05
-7.13603e-05
-1.41253e-05
-3.32765e-05
-4.1589e-06
-4.64422e-06
-3.27139e-07
1.09457e-05
1.02494e-05
-5.96542e-06
2.72426e-05
-1.84456e-05
6.95808e-05
-3.68855e-05
0.000101141
-5.88055e-05
0.000124348
-8.32621e-05
0.000141739
-0.000109831
0.000155499
-0.000138352
0.000167252
-0.000168826
0.00017799
-0.000201294
0.000188091
-0.000235739
0.000197401
-0.000272025
0.00020536
-0.000309858
0.000211132
-0.00034877
0.00021374
-0.000388128
0.000212182
-0.000427143
0.000205532
-0.000464908
0.000193035
-0.000500436
0.000174177
-0.00053271
0.000148745
-0.000560716
0.000116861
-0.000583484
7.899e-05
-0.00060012
3.59226e-05
-0.000609823
-1.125e-05
-0.00061186
-6.11286e-05
-0.000605565
-0.000112082
-0.000590365
-0.000162229
-0.000565841
-0.000209431
-0.000531816
-0.000251311
-0.000488499
-0.000285305
-0.000436661
-0.000308796
-0.000377819
-0.000319369
-0.000314341
-0.000315198
-0.000249415
-0.000295545
-0.000186781
-0.000261284
-0.000130216
-0.000215227
-8.28515e-05
-0.00016203
-4.65733e-05
-0.000107591
-2.17205e-05
-5.80804e-05
-7.19931e-06
-1.91023e-05
-1.02791e-06
4.68728e-06
9.32414e-06
-6.43971e-06
3.31882e-05
-1.98586e-05
8.37067e-05
-3.96517e-05
0.000120798
-6.31646e-05
0.000147798
-8.94101e-05
0.000167973
-0.000117967
0.000184042
-0.000148698
0.000197968
-0.000181634
0.000210911
-0.000216838
0.000223277
-0.0002543
0.000234838
-0.000293866
0.000244892
-0.000335204
0.000252424
-0.000377789
0.000256265
-0.000420909
0.000255227
-0.000463697
0.000248229
-0.000505175
0.000234403
-0.000544302
0.000213178
-0.000580044
0.000184343
-0.000611415
0.000148071
-0.000637512
0.000104911
-0.000657515
5.57485e-05
-0.000670691
1.74864e-06
-0.000676364
-5.56704e-05
-0.000673839
-0.000114843
-0.000662401
-0.00017391
-0.000641359
-0.000230715
-0.000610119
-0.000282783
-0.000568347
-0.000327287
-0.000516205
-0.000361124
-0.000454625
-0.000381099
-0.000385589
-0.000384346
-0.000312269
-0.000368939
-0.000238908
-0.00033468
-0.000170313
-0.000283818
-0.000110987
-0.000221322
-6.4148e-05
-0.000154379
-3.10503e-05
-9.11063e-05
-1.0952e-05
-3.90949e-05
-1.89547e-06
-4.53663e-06
7.6059e-06
-6.79107e-06
3.94603e-05
-2.09246e-05
9.85856e-05
-4.17729e-05
0.000141502
-6.65579e-05
0.000172514
-9.42603e-05
0.000195661
-0.00012446
0.000214225
-0.000157034
0.000230523
-0.000192026
0.000245883
-0.000229504
0.00026073
-0.000269444
0.000274744
-0.000311655
0.000287056
-0.000355745
0.000296451
-0.000401111
0.000301549
-0.000446958
0.000300971
-0.000492336
0.000293486
-0.000536211
0.000278139
-0.000577531
0.000254342
-0.000615299
0.000221939
-0.000648626
0.000181214
-0.00067676
0.000132851
-0.000699065
7.7854e-05
-0.000714981
1.74637e-05
-0.000723968
-4.69041e-05
-0.000725418
-0.000113643
-0.000718576
-0.000181026
-0.000702544
-0.000247039
-0.000676335
-0.000309293
-0.000639015
-0.000364909
-0.000589963
-0.000410466
-0.000529241
-0.000442089
-0.000458033
-0.000455794
-0.000379019
-0.000448151
-0.000296535
-0.000417312
-0.000216239
-0.000364199
-0.000144167
-0.000293411
-8.53419e-05
-0.000213166
-4.24894e-05
-0.000133862
-1.56168e-05
-6.58031e-05
-2.9943e-06
-1.74215e-05
4.88284e-06
-6.9919e-06
4.59197e-05
-2.15698e-05
0.000113932
-4.31149e-05
0.000162897
-6.87829e-05
0.000198108
-9.75316e-05
0.000224394
-0.000128934
0.00024561
-0.000162864
0.000264434
-0.00019936
0.000282358
-0.000238471
0.000299811
-0.000280135
0.000316365
-0.000324102
0.000330965
-0.000369902
0.000342172
-0.000416842
0.00034839
-0.00046404
0.000348049
-0.000510479
0.000339789
-0.000555095
0.000322606
-0.000596865
0.000295956
-0.000634889
0.000259806
-0.000668446
0.000214614
-0.000697006
0.000161254
-0.000720194
0.000100885
-0.000737702
3.4831e-05
-0.00074923
-3.55115e-05
-0.000754365
-0.000108679
-0.00075243
-0.00018317
-0.00074244
-0.000257265
-0.00072312
-0.000328879
-0.000692987
-0.000395334
-0.000650596
-0.000453173
-0.000594937
-0.000498079
-0.000526005
-0.000525063
-0.00044544
-0.000529044
-0.000357038
-0.00050601
-0.000266806
-0.000454658
-0.000182201
-0.000378142
-0.000110428
-0.000284953
-5.63674e-05
-0.000187808
-2.1397e-05
-0.000100531
-4.39617e-06
-3.47975e-05
8.8074e-07
-7.01805e-06
5.24059e-05
-2.17288e-05
0.000129416
-4.35571e-05
0.000184574
-6.96554e-05
0.000224132
-9.89656e-05
0.000253688
-0.000131041
0.000277667
-0.000165732
0.000299105
-0.000203046
0.000319649
-0.000242988
0.000339721
-0.000285438
0.000358766
-0.000330068
0.000375528
-0.00037632
0.000388336
-0.000423414
0.000395374
-0.000470388
0.000394896
-0.000516185
0.000385453
-0.000559751
0.000366039
-0.000600138
0.00033622
-0.000636593
0.000296155
-0.000668606
0.000246542
-0.000695916
0.000188494
-0.000718449
0.00012336
-0.0007362
5.2563e-05
-0.000749168
-2.25325e-05
-0.000757214
-0.000100662
-0.000759855
-0.000180591
-0.000756181
-0.00026103
-0.000744804
-0.000340381
-0.00072386
-0.000416442
-0.000691184
-0.000486064
-0.000644669
-0.000544866
-0.000582888
-0.000587178
-0.000505931
-0.000606391
-0.000416318
-0.000596049
-0.000319599
-0.00055178
-0.000224106
-0.000473938
-0.000139293
-0.000369898
-7.28804e-05
-0.000254116
-2.84675e-05
-0.000144607
-6.17159e-06
-5.75986e-05
-4.73527e-06
-6.85185e-06
5.87414e-05
-2.13516e-05
0.000144674
-4.30048e-05
0.00020608
-6.90275e-05
0.00025008
-9.83515e-05
0.000282996
-0.000130495
0.000309794
-0.000165261
0.000333853
-0.000202601
0.000356966
-0.000242457
0.000379544
-0.000284629
0.000400888
-0.000328709
0.000419536
-0.000374055
0.00043359
-0.000419811
0.000441019
-0.000464969
0.000439935
-0.000508468
0.000428838
-0.000549309
0.000406783
-0.000586661
0.000373505
-0.000619953
0.000329418
-0.000648909
0.000275506
-0.000673538
0.000213161
-0.000694056
0.000143941
-0.000710768
6.93836e-05
-0.000723979
-9.17262e-06
-0.000733848
-9.0679e-05
-0.00074017
-0.000174169
-0.000742263
-0.00025885
-0.000738835
-0.000343743
-0.000727904
-0.000427341
-0.000706836
-0.000507149
-0.00067261
-0.000579185
-0.000622376
-0.000637606
-0.000554386
-0.000674709
-0.000469214
-0.000681682
-0.000370981
-0.000650561
-0.000267914
-0.000577529
-0.000171256
-0.000466891
-9.19872e-05
-0.000333349
-3.69298e-05
-0.000199222
-8.37364e-06
-8.68063e-05
-1.23537e-05
-6.48496e-06
6.47411e-05
-2.04112e-05
0.000159325
-4.14017e-05
0.000226932
-6.68066e-05
0.000275416
-9.55529e-05
0.00031173
-0.000127108
0.000341337
-0.000161205
0.000367936
-0.00019772
0.000393461
-0.000236511
0.000418302
-0.000277299
0.000441625
-0.000319599
0.000461765
-0.000362702
0.000476602
-0.000405712
0.000483926
-0.00044762
0.000481741
-0.000487409
0.000468541
-0.000524179
0.000443503
-0.000557254
0.000406576
-0.00058626
0.000358471
-0.000611145
0.000300489
-0.00063215
0.000234303
-0.000649739
0.000161689
-0.00066448
8.4295e-05
-0.00067693
3.45556e-06
-0.000687487
-7.99194e-05
-0.000696267
-0.000165168
-0.00070293
-0.000251964
-0.000706469
-0.000339979
-0.000705061
-0.000428531
-0.000695967
-0.00051605
-0.000675607
-0.000599404
-0.000639974
-0.000673196
-0.000585495
-0.000729308
-0.000510415
-0.000757109
-0.000416536
-0.000745026
-0.000310727
-0.000684063
-0.000204954
-0.000573281
-0.00011332
-0.000425114
-4.67843e-05
-0.000265225
-1.10416e-05
-0.000123363
-2.23919e-05
-5.92054e-06
7.02229e-05
-1.89093e-05
0.000172984
-3.87408e-05
0.000246639
-6.297e-05
0.000299584
-9.05278e-05
0.00033928
-0.000120818
0.000371621
-0.000153486
0.000400597
-0.000188313
0.000428275
-0.00022507
0.000455031
-0.000263402
0.00047991
-0.000302768
0.000501063
-0.000342429
0.000516179
-0.000381498
0.000522903
-0.000419011
0.000519174
-0.000454054
0.000503531
-0.000485869
0.00047531
-0.000513956
0.000434715
-0.000538136
0.000382759
-0.000558548
0.000321057
-0.000575603
0.000251557
-0.000589923
0.000176226
-0.000602256
9.68126e-05
-0.000613316
1.46632e-05
-0.000623661
-6.93538e-05
-0.000633688
-0.000154878
-0.000643426
-0.000241951
-0.000652284
-0.000330829
-0.000658841
-0.000421661
-0.000660611
-0.000513949
-0.00065392
-0.00060576
-0.000634073
-0.000692751
-0.000596009
-0.000767208
-0.00053564
-0.00081757
-0.000451891
-0.000829233
-0.000349081
-0.00078769
-0.000238386
-0.000684901
-0.000136126
-0.00052779
-5.78914e-05
-0.000342892
-1.41838e-05
-0.000168065
-3.52671e-05
-5.17447e-06
7.50191e-05
-1.68797e-05
0.000185287
-3.50711e-05
0.000264724
-5.75766e-05
0.000322038
-8.33432e-05
0.000365044
-0.000111703
0.000399981
-0.000142204
0.000431097
-0.000174523
0.000460588
-0.000208344
0.00048883
-0.000243255
0.000514777
-0.000278689
0.000536431
-0.000313925
0.000551336
-0.000348134
0.000557031
-0.000380462
0.00055144
-0.000410142
0.000533185
-0.000436592
0.000501786
-0.000459502
0.00045771
-0.000478864
0.000402259
-0.000494956
0.000337332
-0.000508297
0.000265111
-0.000519572
0.000187722
-0.000529561
0.000106997
-0.000539029
2.43004e-05
-0.000548654
-5.95308e-05
-0.000559011
-0.0001443
-0.000570427
-0.0002303
-0.000582762
-0.000318234
-0.000595149
-0.000408977
-0.000605646
-0.000503098
-0.000610934
-0.000600055
-0.000606189
-0.000697038
-0.000585429
-0.000787544
-0.000542606
-0.00086016
-0.000473682
-0.000898326
-0.000379596
-0.000882511
-0.00026915
-0.000796505
-0.000159286
-0.00063845
-6.99546e-05
-0.00043173
-1.7773e-05
-0.000221456
-5.1368e-05
-4.27544e-06
7.89888e-05
-1.439e-05
0.000195911
-3.05003e-05
0.00028075
-5.07705e-05
0.000342268
-7.41805e-05
0.000388458
-9.99919e-05
0.000425801
-0.000127647
0.000458759
-0.000156721
0.000489661
-0.000186821
0.000518913
-0.000217498
0.000545416
-0.000248201
0.000567073
-0.000278274
0.000581336
-0.000307004
0.000585689
-0.000333695
0.000578081
-0.000357766
0.000557249
-0.000378836
0.000522901
-0.000396773
0.000475746
-0.000411709
0.000417344
-0.000424018
0.000349821
-0.000434246
0.000275533
-0.000443055
0.000196722
-0.000451161
0.000115277
-0.000459281
3.25805e-05
-0.000468105
-5.05614e-05
-0.000478283
-0.00013398
-0.000490345
-0.000218087
-0.000504549
-0.000303861
-0.000520608
-0.000392711
-0.000537296
-0.000486133
-0.000551985
-0.000584988
-0.00056025
-0.000688274
-0.000555844
-0.000791369
-0.000531398
-0.00088408
-0.000480261
-0.000949265
-0.000399695
-0.000963548
-0.000294879
-0.000902546
-0.000181437
-0.00075308
-8.25293e-05
-0.000530357
-2.17454e-05
-0.000283733
-7.10199e-05
-3.26367e-06
8.20275e-05
-1.15391e-05
0.000204593
-2.51933e-05
0.000294345
-4.27789e-05
0.000359826
-6.33304e-05
0.000409019
-8.60466e-05
0.000448532
-0.00011027
0.000482996
-0.000135478
0.000514874
-0.000161215
0.000544639
-0.000187026
0.000571191
-0.00021241
0.000592399
-0.000236822
0.000605677
-0.000259711
0.000608511
-0.000280581
0.000598909
-0.000299065
0.000575734
-0.000314984
0.000538871
-0.00032837
0.000489235
-0.000339466
0.000428581
-0.000348683
0.0003592
-0.000356536
0.000283549
-0.000363603
0.000203937
-0.000370475
0.000122277
-0.000377748
3.9959e-05
-0.000386023
-4.22027e-05
-0.00039593
-0.000124003
-0.000408103
-0.000205853
-0.000423076
-0.00028882
-0.000441071
-0.000374621
-0.000461599
-0.00046545
-0.000482908
-0.000563416
-0.000501373
-0.000669384
-0.000511094
-0.000781039
-0.000504123
-0.000890337
-0.000471858
-0.00098098
-0.0004081
-0.00102739
-0.000313715
-0.000998018
-0.000201198
-0.000867073
-9.50664e-05
-0.000636555
-2.60052e-05
-0.000354694
-9.44575e-05
-2.18856e-06
8.40766e-05
-8.45359e-06
0.000211156
-1.93663e-05
0.000305224
-3.39049e-05
0.000374353
-5.11831e-05
0.000426311
-7.03531e-05
0.000467722
-9.06686e-05
0.000503332
-0.000111522
0.000535738
-0.000132414
0.000565522
-0.000152903
0.000591647
-0.000172574
0.000612014
-0.00019103
0.000624064
-0.000207915
0.000625331
-0.000222957
0.000613912
-0.000236016
0.000588795
-0.000247108
0.000550016
-0.000256413
0.000498639
-0.000264246
0.000436546
-0.000271018
0.000366114
-0.000277175
0.000289844
-0.000283173
0.000210051
-0.000289449
0.000128643
-0.000296436
4.70111e-05
-0.0003046
-3.40005e-05
-0.000314474
-0.000114112
-0.000326684
-0.00019364
-0.000341916
-0.000273591
-0.000360756
-0.000355779
-0.000383351
-0.000442815
-0.00040885
-0.000537791
-0.000434651
-0.000643296
-0.00045568
-0.000759483
-0.000464119
-0.00088113
-0.000450218
-0.000994069
-0.000404914
-0.00107236
-0.000324647
-0.00107905
-0.000217436
-0.000975835
-0.000107001
-0.000747449
-3.04381e-05
-0.000433763
-0.000121814
-1.10588e-06
8.51286e-05
-5.28108e-06
0.000215516
-1.32779e-05
0.000313214
-2.45154e-05
0.00038559
-3.82119e-05
0.000440027
-5.34951e-05
0.00048303
-6.95491e-05
0.00051941
-8.56979e-05
0.000551901
-0.000101413
0.000581232
-0.000116291
0.000606494
-0.000130021
0.000625689
-0.000142378
0.000636352
-0.00015322
0.000636111
-0.000162513
0.000623169
-0.000170339
0.000596625
-0.000176902
0.00055663
-0.000182504
0.000504334
-0.00018751
0.000441673
-0.000192303
0.000371036
-0.000197246
0.000294908
-0.00020266
0.000215566
-0.000208828
0.000134885
-0.00021602
5.42505e-05
-0.000224541
-2.54569e-05
-0.00023479
-0.000103863
-0.000247312
-0.00018114
-0.000262811
-0.000258131
-0.00028207
-0.00033657
-0.000305699
-0.000419228
-0.00033363
-0.000509849
-0.000364331
-0.000612454
-0.000393852
-0.000729579
-0.000415092
-0.000859179
-0.000417961
-0.000990253
-0.000391336
-0.00109828
-0.000327579
-0.00114315
-0.000229469
-0.00107533
-0.000117869
-0.000859807
-3.49359e-05
-0.000520069
-0.000153136
-7.5185e-08
8.52285e-05
-2.18363e-06
0.000217697
-7.21811e-06
0.000318267
-1.50278e-05
0.000393414
-2.49551e-05
0.000449981
-3.61301e-05
0.00049423
-4.76924e-05
0.000530999
-5.8918e-05
0.000563144
-6.92663e-05
0.000591577
-7.83818e-05
0.000615579
-8.60743e-05
0.000633326
-9.22958e-05
0.000642507
-9.71261e-05
0.000640881
-0.000100763
0.000626771
-0.000103506
0.000599371
-0.000105728
0.000558899
-0.000107838
0.00050653
-0.000110236
0.000444181
-0.000113273
0.000374194
-0.000117225
0.000298975
-0.000122295
0.000220734
-0.000128628
0.000141294
-0.000136351
6.20231e-05
-0.000145621
-1.61608e-05
-0.000156691
-9.27871e-05
-0.000169977
-0.000167872
-0.000186107
-0.000242043
-0.000205904
-0.000316839
-0.000230231
-0.000394981
-0.000259601
-0.000480541
-0.000293446
-0.000578586
-0.000329051
-0.000693748
-0.000360449
-0.000827199
-0.000377929
-0.000971813
-0.000369184
-0.00110608
-0.000323154
-0.00118908
-0.000237144
-0.00116235
-0.000127419
-0.000970375
-3.94385e-05
-0.000612554
-0.00018844
8.44204e-07
8.4477e-05
6.70682e-07
0.000217846
-1.49791e-06
0.000320474
-5.89615e-06
0.000397833
-1.19995e-05
0.000456104
-1.89663e-05
0.000501229
-2.59252e-05
0.00053799
-3.21298e-05
0.000569366
-3.70396e-05
0.000596485
-4.03569e-05
0.000618869
-4.20121e-05
0.00063493
-4.21333e-05
0.000642565
-4.10108e-05
0.000639701
-3.90628e-05
0.00062479
-3.67901e-05
0.000597101
-3.47231e-05
0.000556875
-3.33671e-05
0.000505251
-3.31535e-05
0.000444071
-3.44078e-05
0.000375562
-3.73401e-05
0.000302023
-4.20589e-05
0.000225558
-4.86028e-05
0.000147926
-5.69884e-05
7.04724e-05
-6.72555e-05
-5.85643e-06
-7.952e-05
-8.04996e-05
-9.40526e-05
-0.00015333
-0.000111348
-0.000224767
-0.000132143
-0.000296097
-0.000157362
-0.000369848
-0.000187859
-0.00045014
-0.000223817
-0.000542685
-0.0002637
-0.00065377
-0.000302909
-0.000787566
-0.000332693
-0.000941145
-0.000340415
-0.00109726
-0.000312426
-0.0012166
-0.000240738
-0.0012346
-0.000135677
-0.00107612
-4.39928e-05
-0.000710056
-0.000227798
1.59512e-06
8.30303e-05
3.11259e-06
0.000216234
3.56436e-06
0.000320079
2.40143e-06
0.000399008
3.111e-08
0.000458471
-2.74473e-06
0.000504052
-5.09484e-06
0.000540381
-6.28419e-06
0.000570571
-5.78179e-06
0.000595981
-3.35147e-06
0.000616416
9.60565e-07
0.000630575
6.86046e-06
0.000636605
1.38655e-05
0.000632639
2.13584e-05
0.00061726
2.86549e-05
0.000589801
3.50816e-05
0.000550484
4.0041e-05
0.000500364
4.30611e-05
0.000441153
4.38214e-05
0.00037492
4.215e-05
0.000303815
3.79978e-05
0.000229826
3.13958e-05
0.000154632
2.24038e-05
7.95492e-05
1.10642e-05
5.54062e-06
-2.63055e-06
-6.67631e-05
-1.88074e-05
-0.000137112
-3.7803e-05
-0.000205761
-6.01929e-05
-0.00027374
-8.68021e-05
-0.000343308
-0.000118599
-0.000418443
-0.000156257
-0.000505124
-0.000199239
-0.000610791
-0.00024437
-0.000742162
-0.000284284
-0.000900479
-0.000306789
-0.00107364
-0.000296548
-0.00122608
-0.000240763
-0.00129047
-0.000142907
-0.00117432
-4.87918e-05
-0.00081138
-0.000271483
2.11903e-06
8.10941e-05
4.95384e-06
0.000213254
7.61313e-06
0.000317495
9.37461e-06
0.000397274
1.05303e-05
0.000457326
1.17865e-05
0.000502825
1.39369e-05
0.000538257
1.7685e-05
0.000566838
2.35075e-05
0.000590157
3.15701e-05
0.000608329
4.17216e-05
0.000620378
5.35281e-05
0.000624735
6.63378e-05
0.000619766
7.93575e-05
0.000604195
9.17424e-05
0.000577405
0.000102686
0.000539568
0.000111496
0.000491624
0.000117645
0.000435105
0.000120791
0.000371896
0.000120769
0.000303968
0.00011755
0.000233173
0.000111197
0.000161103
0.000101815
8.90371e-05
8.95035e-05
1.79426e-05
7.43241e-05
-5.15106e-05
5.62601e-05
-0.000118992
3.51479e-05
-0.000184621
1.06188e-05
-0.00024922
-1.79589e-05
-0.000314778
-5.14794e-05
-0.000385011
-9.08456e-05
-0.000465868
-0.000136269
-0.000565435
-0.000185913
-0.000692372
-0.000234052
-0.000851738
-0.000269606
-0.00103703
-0.000276479
-0.00121827
-0.000237751
-0.00132882
-0.000149522
-0.00126244
-5.41966e-05
-0.000915283
-0.000320123
2.35727e-06
7.89278e-05
6.01314e-06
0.000209428
1.03049e-05
0.000313299
1.44997e-05
0.000393126
1.8816e-05
0.000453031
2.38602e-05
0.000497791
3.03402e-05
0.000531789
3.88817e-05
0.000558303
4.98822e-05
0.000579149
6.3425e-05
0.000594756
7.92597e-05
0.00060449
9.68326e-05
0.000607094
0.000115352
0.000601179
0.000133879
0.000585616
0.00015143
0.000559834
0.000167076
0.000523941
0.000180026
0.000478735
0.000189683
0.000425545
0.000195656
0.000366044
0.000197751
0.000302005
0.000195926
0.000235131
0.000190244
0.000166912
0.00018082
9.85795e-05
0.000167778
3.10894e-05
0.00015123
-3.48733e-05
0.000131253
-9.89495e-05
0.000107833
-0.000161159
8.08089e-05
-0.000222189
4.9794e-05
-0.000283798
1.41028e-05
-0.000349399
-2.71739e-05
-0.0004247
-7.47242e-05
-0.000517983
-0.000127869
-0.000639184
-0.000182621
-0.000796531
-0.000229564
-0.000989129
-0.000252761
-0.00119405
-0.00023202
-0.00134879
-0.000155939
-0.001338
-6.0713e-05
-0.00102033
-0.000374841
2.23803e-06
7.68555e-05
6.07983e-06
0.000205437
1.12491e-05
0.000308242
1.72216e-05
0.000387215
2.42067e-05
0.000446065
3.27059e-05
0.000489296
4.32908e-05
0.000521205
5.64536e-05
0.000545136
7.24745e-05
0.000563114
9.13336e-05
0.000575865
0.000112682
0.000583088
0.000135862
0.000583845
0.000159972
0.000576998
0.000183959
0.000561572
0.000206724
0.000537039
0.000227231
0.000503443
0.000244592
0.000461421
0.000258124
0.000412098
0.000267365
0.000356911
0.000272064
0.000297431
0.000272134
0.000235189
0.000267608
0.000171564
0.000258588
0.000107719
0.000245196
4.45756e-05
0.000227574
-1.71982e-05
0.00020588
-7.72014e-05
0.000180228
-0.000135461
0.000150643
-0.000192591
0.000116994
-0.000250179
7.88681e-05
-0.00031135
3.55079e-05
-0.00038145
-1.39971e-05
-0.000468588
-6.98846e-05
-0.000583319
-0.000129888
-0.000736216
-0.000186661
-0.000931526
-0.000225324
-0.00115431
-0.00022343
-0.00134953
-0.000162353
-0.00139835
-6.88934e-05
-0.0011246
-0.000437313
1.6587e-06
7.52935e-05
4.88025e-06
0.00020215
9.97821e-06
0.00030327
1.69193e-05
0.000380349
2.59808e-05
0.000437024
3.75444e-05
0.000477728
5.19888e-05
0.00050675
6.96068e-05
0.000527505
9.0507e-05
0.000542195
0.000114534
0.000551805
0.00014123
0.000556339
0.000169849
0.00055516
0.000199403
0.000547371
0.000228756
0.000532157
0.000256723
0.000509033
0.000282179
0.00047798
0.000304145
0.000439485
0.000321849
0.000394459
0.000334743
0.000344107
0.000342494
0.000289786
0.000344951
0.000232846
0.000342094