/*--------------------------------*- C++ -*----------------------------------*\
| =========                 |                                                 |
| \\      /  F ield         | OpenFOAM: The Open Source CFD Toolbox           |
|  \\    /   O peration     | Version:  2.4.0                                 |
|   \\  /    A nd           | Web:      www.OpenFOAM.org                      |
|    \\/     M anipulation  |                                                 |
\*---------------------------------------------------------------------------*/
FoamFile
{
    version     2.0;
    format      ascii;
    class       volScalarField;
    location    "0.64";
    object      T;
}
// * * * * * * * * * * * * * * * * * * * * * * * * * * * * * * * * * * * * * //

dimensions      [0 0 0 1 0 0 0];

internalField   nonuniform List<scalar> 
1600
(
101.399
104.197
106.992
109.783
112.568
115.347
118.116
120.875
123.621
126.354
129.072
131.773
134.456
137.12
139.764
142.386
144.985
147.561
150.114
152.641
155.145
157.623
160.077
162.506
164.911
167.293
169.652
171.99
174.308
176.607
178.888
181.154
183.405
185.643
187.87
190.089
192.299
194.503
196.704
198.902
101.4
104.199
106.996
109.789
112.576
115.356
118.128
120.888
123.636
126.371
129.09
131.793
134.477
137.142
139.787
142.41
145.01
147.587
150.14
152.668
155.171
157.649
160.102
162.531
164.935
167.316
169.675
172.012
174.328
176.625
178.905
181.169
183.419
185.655
187.881
190.097
192.306
194.509
196.707
198.903
101.402
104.205
107.005
109.802
112.592
115.376
118.15
120.914
123.666
126.403
129.126
131.831
134.518
137.186
139.832
142.457
145.059
147.637
150.191
152.72
155.223
157.701
160.154
162.582
164.985
167.365
169.721
172.055
174.369
176.664
178.941
181.201
183.447
185.68
187.902
190.115
192.319
194.518
196.712
198.905
101.404
104.213
107.018
109.82
112.616
115.405
118.184
120.953
123.709
126.452
129.178
131.888
134.579
137.25
139.9
142.527
145.131
147.711
150.267
152.796
155.3
157.778
160.231
162.657
165.059
167.436
169.79
172.121
174.431
176.721
178.993
181.249
183.49
185.718
187.934
190.141
192.34
194.533
196.721
198.907
101.408
104.223
107.036
109.845
112.648
115.443
118.229
121.005
123.767
126.515
129.248
131.962
134.658
137.334
139.988
142.619
145.226
147.809
150.366
152.897
155.402
157.88
160.331
162.757
165.156
167.53
169.88
172.207
174.513
176.798
179.064
181.313
183.547
185.767
187.976
190.176
192.367
194.552
196.733
198.911
101.412
104.236
107.058
109.875
112.687
115.491
118.285
121.068
123.838
126.594
129.333
132.055
134.757
137.438
140.097
142.732
145.343
147.929
150.489
153.021
155.527
158.005
160.456
162.879
165.276
167.647
169.993
172.315
174.614
176.893
179.152
181.393
183.618
185.83
188.03
190.22
192.401
194.577
196.748
198.916
101.418
104.252
107.084
109.912
112.733
115.547
118.351
121.144
123.923
126.687
129.435
132.164
134.873
137.561
140.226
142.867
145.482
148.072
150.634
153.169
155.676
158.154
160.604
163.026
165.42
167.787
170.128
172.444
174.736
177.007
179.257
181.489
183.704
185.905
188.094
190.273
192.443
194.606
196.766
198.922
101.424
104.27
107.114
109.954
112.787
115.613
118.428
121.232
124.021
126.796
129.553
132.291
135.008
137.703
140.375
143.022
145.642
148.236
150.802
153.339
155.847
158.325
160.775
163.194
165.585
167.948
170.284
172.593
174.878
177.139
179.38
181.601
183.805
185.993
188.169
190.334
192.491
194.641
196.786
198.929
101.431
104.291
107.149
110.002
112.849
115.688
118.516
121.331
124.133
126.919
129.686
132.434
135.161
137.864
140.544
143.197
145.823
148.422
150.991
153.531
156.04
158.519
160.968
163.385
165.773
168.131
170.46
172.763
175.039
177.29
179.52
181.729
183.919
186.094
188.255
190.405
192.547
194.681
196.81
198.937
101.438
104.314
107.188
110.056
112.918
115.771
118.614
121.443
124.258
127.056
129.836
132.594
135.331
138.044
140.732
143.392
146.025
148.629
151.202
153.744
156.255
158.735
161.182
163.597
165.981
168.335
170.658
172.952
175.219
177.46
179.677
181.872
184.048
186.208
188.353
190.486
192.609
194.726
196.837
198.946
101.447
104.34
107.231
110.117
112.995
115.865
118.723
121.568
124.397
127.209
130.001
132.772
135.52
138.243
140.939
143.608
146.247
148.856
151.434
153.979
156.492
158.971
161.417
163.83
166.211
168.558
170.875
173.16
175.417
177.647
179.851
182.032
184.192
186.334
188.461
190.575
192.679
194.776
196.868
198.956
101.457
104.369
107.279
110.183
113.08
115.968
118.843
121.705
124.55
127.376
130.183
132.967
135.726
138.46
141.166
143.843
146.489
149.104
151.686
154.234
156.748
159.228
161.673
164.083
166.459
168.802
171.111
173.388
175.634
177.851
180.041
182.207
184.35
186.473
188.58
190.674
192.757
194.832
196.901
198.967
101.467
104.401
107.331
110.257
113.174
116.081
118.975
121.855
124.717
127.56
130.381
133.179
135.952
138.697
141.413
144.098
146.752
149.372
151.959
154.51
157.026
159.505
161.949
164.356
166.728
169.064
171.365
173.633
175.868
178.073
180.248
182.397
184.522
186.626
188.711
190.782
192.842
194.893
196.938
198.98
101.479
104.435
107.389
110.337
113.276
116.205
119.12
122.019
124.9
127.76
130.598
133.41
136.196
138.953
141.68
144.375
147.036
149.662
152.253
154.807
157.324
159.803
162.245
164.649
167.016
169.345
171.639
173.896
176.12
178.311
180.471
182.603
184.709
186.791
188.854
190.901
192.935
194.959
196.978
198.993
101.492
104.474
107.452
110.425
113.388
116.34
119.277
122.198
125.099
127.978
130.833
133.661
136.461
139.231
141.969
144.673
147.342
149.974
152.569
155.126
157.645
160.124
162.563
164.964
167.325
169.647
171.931
174.179
176.39
178.567
180.711
182.824
184.91
186.97
189.009
191.029
193.036
195.032
197.022
199.007
101.506
104.515
107.521
110.521
113.51
116.487
119.449
122.392
125.315
128.214
131.088
133.933
136.749
139.532
142.281
144.995
147.672
150.311
152.91
155.47
157.989
160.468
162.905
165.301
167.656
169.971
172.245
174.481
176.679
178.84
180.967
183.061
185.126
187.162
189.175
191.168
193.145
195.111
197.07
199.023
101.521
104.561
107.597
110.626
113.644
116.648
119.636
122.604
125.55
128.471
131.365
134.228
137.06
139.857
142.619
145.343
148.029
150.674
153.278
155.841
158.361
160.838
163.273
165.664
168.012
170.318
172.582
174.806
176.989
179.134
181.242
183.316
185.357
187.369
189.355
191.318
193.264
195.196
197.122
199.04
101.538
104.611
107.68
110.74
113.79
116.824
119.84
122.836
125.807
128.751
131.666
134.549
137.398
140.21
142.985
145.72
148.415
151.067
153.676
156.242
158.763
161.239
163.67
166.056
168.397
170.693
172.946
175.156
177.323
179.45
181.538
183.589
185.606
187.591
189.548
191.48
193.392
195.289
197.178
199.059
101.556
104.665
107.77
110.866
113.949
117.016
120.064
123.088
126.086
129.056
131.994
134.897
137.765
140.594
143.383
146.13
148.834
151.493
154.108
156.676
159.198
161.673
164.1
166.48
168.813
171.099
173.339
175.534
177.684
179.792
181.858
183.884
185.874
187.831
189.757
191.655
193.531
195.39
197.238
199.079
101.576
104.726
107.87
111.004
114.124
117.227
120.308
123.364
126.392
129.389
132.352
135.278
138.165
141.012
143.815
146.575
149.289
151.957
154.576
157.148
159.671
162.144
164.568
166.941
169.266
171.541
173.767
175.945
178.076
180.162
182.204
184.204
186.165
188.089
189.981
191.844
193.681
195.499
197.305
199.101
101.598
104.792
107.979
111.156
114.317
117.458
120.576
123.667
126.727
129.753
132.743
135.693
138.602
141.467
144.287
147.06
149.785
152.461
155.087
157.662
160.186
162.657
165.077
167.444
169.758
172.021
174.232
176.392
178.503
180.565
182.581
184.551
186.48
188.37
190.225
192.049
193.844
195.617
197.377
199.125
101.622
104.865
108.1
111.323
114.529
117.713
120.871
124
127.095
130.153
133.172
136.148
139.08
141.965
144.803
147.59
150.327
153.012
155.644
158.223
160.747
163.217
165.632
167.991
170.296
172.545
174.74
176.881
178.969
181.005
182.992
184.931
186.825
188.677
190.491
192.271
194.021
195.746
197.455
199.151
101.649
104.946
108.233
111.507
114.763
117.994
121.196
124.366
127.499
130.592
133.642
136.647
139.604
142.511
145.366
148.17
150.919
153.614
156.253
158.835
161.36
163.828
166.238
168.589
170.882
173.117
175.294
177.414
179.478
181.487
183.442
185.346
187.202
189.012
190.782
192.514
194.215
195.887
197.542
199.179
101.679
105.035
108.381
111.712
115.021
118.304
121.555
124.77
127.944
131.075
134.159
137.194
140.178
143.108
145.984
148.804
151.566
154.271
156.917
159.504
162.03
164.496
166.9
169.243
171.524
173.743
175.901
177.998
180.036
182.014
183.936
185.802
187.616
189.38
191.101
192.781
194.426
196.042
197.636
199.211
101.713
105.134
108.545
111.939
115.308
118.648
121.952
125.216
128.435
131.607
134.728
137.796
140.808
143.763
146.66
149.498
152.275
154.99
157.644
160.234
162.762
165.225
167.623
169.957
172.225
174.428
176.565
178.638
180.647
182.593
184.478
186.303
188.071
189.786
191.452
193.075
194.66
196.212
197.741
199.245
101.75
105.245
108.728
112.191
115.627
119.029
122.391
125.709
128.978
132.194
135.355
138.457
141.5
144.482
147.401
150.257
153.049
155.776
158.437
161.033
163.561
166.021
168.413
170.737
172.991
175.177
177.293
179.34
181.318
183.229
185.074
186.854
188.573
190.234
191.841
193.401
194.918
196.4
197.856
199.284
101.791
105.369
108.932
112.472
115.982
119.453
122.879
126.255
129.577
132.842
136.045
139.185
142.261
145.271
148.214
151.089
153.896
156.635
159.304
161.904
164.433
166.89
169.276
171.589
173.829
175.996
178.089
180.108
182.054
183.928
185.73
187.462
189.128
190.729
192.272
193.761
195.204
196.608
197.984
199.326
101.838
105.507
109.16
112.787
116.378
119.925
123.421
126.861
130.241
133.557
136.805
139.986
143.096
146.135
149.103
151.998
154.822
157.573
160.25
162.854
165.383
167.838
170.217
172.519
174.744
176.891
178.96
180.95
182.862
184.696
186.452
188.133
189.741
191.278
192.75
194.162
195.523
196.841
198.127
199.374
101.89
105.663
109.417
113.139
116.821
120.451
124.024
127.534
130.976
134.346
137.643
140.866
144.012
147.082
150.075
152.992
155.832
158.595
161.281
163.889
166.419
168.87
171.242
173.533
175.742
177.869
179.913
181.873
183.748
185.54
187.248
188.874
190.419
191.887
193.282
194.61
195.88
197.101
198.286
199.427
101.949
105.839
109.706
113.536
117.318
121.041
124.697
128.282
131.79
135.219
138.567
141.833
145.017
148.118
151.138
154.076
156.933
159.709
162.403
165.015
167.546
169.993
172.357
174.636
176.829
178.936
180.954
182.882
184.721
186.469
188.126
189.693
191.172
192.564
193.875
195.11
196.279
197.393
198.464
199.487
102.016
106.039
110.034
113.985
117.877
121.701
125.448
129.113
132.692
136.182
139.583
142.895
146.117
149.251
152.298
155.258
158.131
160.919
163.622
166.238
168.769
171.213
173.569
175.836
178.013
180.098
182.09
183.987
185.787
187.49
189.094
190.6
192.007
193.319
194.539
195.673
196.73
197.724
198.666
199.554
102.093
106.268
110.408
114.494
118.51
122.444
126.289
130.039
133.692
137.246
140.701
144.059
147.321
150.488
153.561
156.542
159.433
162.233
164.943
167.564
170.095
172.535
174.883
177.139
179.299
181.363
183.329
185.193
186.955
188.611
190.161
191.603
192.937
194.163
195.284
196.307
197.241
198.099
198.896
199.632
102.182
106.532
110.838
115.076
119.228
123.283
127.231
131.071
134.8
138.419
141.93
145.335
148.635
151.834
154.934
157.936
160.843
163.655
166.373
168.998
171.529
173.965
176.306
178.549
180.694
182.738
184.677
186.51
188.233
189.844
191.339
192.716
193.972
195.108
196.125
197.027
197.823
198.529
199.159
199.722
102.287
106.84
111.337
115.746
120.048
124.232
128.29
132.222
136.029
139.714
143.279
146.729
150.067
153.298
156.423
159.445
162.367
165.191
167.916
170.544
173.075
175.508
177.842
180.075
182.204
184.228
186.143
187.945
189.631
191.197
192.638
193.95
195.128
196.171
197.077
197.849
198.493
199.027
199.465
199.828
102.412
107.206
111.924
116.526
120.991
125.31
129.481
133.507
137.391
141.139
144.757
148.251
151.625
154.884
158.033
161.074
164.011
166.845
169.577
172.209
174.74
177.17
179.497
181.719
183.835
185.841
187.733
189.507
191.158
192.682
194.071
195.319
196.421
197.369
198.161
198.794
199.273
199.612
199.828
199.956
102.566
107.653
112.627
117.442
122.081
126.54
130.824
134.94
138.898
142.706
146.373
149.907
153.314
156.6
159.77
162.828
165.778
168.622
171.36
173.995
176.527
178.954
181.275
183.489
185.593
187.582
189.454
191.203
192.824
194.309
195.65
196.84
197.868
198.726
199.402
199.892
200.191
200.314
200.268
200.113
102.764
108.216
113.488
118.534
123.351
127.948
132.339
136.539
140.564
144.425
148.136
151.705
155.14
158.45
161.639
164.712
167.673
170.525
173.27
175.908
178.44
180.865
183.182
185.389
187.483
189.46
191.315
193.043
194.637
196.09
197.39
198.529
199.493
200.266
200.834
201.181
201.291
201.172
200.811
200.308
103.037
108.959
114.566
119.85
124.839
129.562
134.047
138.32
142.4
146.307
150.053
153.651
157.111
160.439
163.644
166.73
169.701
172.56
175.31
177.951
180.484
182.909
185.223
187.425
189.512
191.479
193.322
195.035
196.609
198.036
199.305
200.403
201.314
202.019
202.494
202.712
202.639
202.258
201.517
200.569
103.497
109.999
115.941
121.446
126.584
131.41
135.969
140.298
144.421
148.362
152.135
155.755
159.233
162.576
165.793
168.889
171.867
174.733
177.487
180.132
182.667
185.091
187.405
189.604
191.687
193.649
195.484
197.186
198.747
200.157
201.405
202.476
203.351
204.008
204.417
204.54
204.317
203.694
202.529
201.008
104.345
111.584
117.801
123.455
128.684
133.568
138.167
142.525
146.671
150.629
154.416
158.048
161.535
164.887
168.11
171.212
174.195
177.064
179.821
182.467
185.003
187.428
189.741
191.94
194.02
195.979
197.81
199.507
201.061
202.463
203.699
204.754
205.609
206.239
206.61
206.681
206.376
205.616
204.159
202.058
)
;

boundaryField
{
    carasuperior
    {
        type            fixedGradient;
        gradient        uniform 100;
    }
    lateralizquierda
    {
        type            fixedValue;
        value           uniform 100;
    }
    lateralderecha
    {
        type            fixedValue;
        value           uniform 200;
    }
    carainferior
    {
        type            zeroGradient;
    }
    frontAndBack
    {
        type            empty;
    }
}


// ************************************************************************* //
