/*--------------------------------*- C++ -*----------------------------------*\
| =========                 |                                                 |
| \\      /  F ield         | OpenFOAM: The Open Source CFD Toolbox           |
|  \\    /   O peration     | Version:  2.4.0                                 |
|   \\  /    A nd           | Web:      www.OpenFOAM.org                      |
|    \\/     M anipulation  |                                                 |
\*---------------------------------------------------------------------------*/
FoamFile
{
    version     2.0;
    format      ascii;
    class       volScalarField;
    location    "0.0077";
    object      T;
}
// * * * * * * * * * * * * * * * * * * * * * * * * * * * * * * * * * * * * * //

dimensions      [0 0 0 1 0 0 0];

internalField   nonuniform List<scalar> 
4800
(
100.194
100.581
100.968
101.354
101.738
102.117
102.487
102.844
103.182
103.493
100.581
101.742
102.903
104.063
105.217
106.359
107.475
108.552
109.571
110.511
100.968
102.903
104.841
106.778
108.71
110.625
112.503
114.319
116.039
117.626
101.354
104.063
106.779
109.499
112.22
114.927
117.593
120.182
122.64
124.908
101.738
105.218
108.711
112.221
115.745
119.269
122.762
126.174
129.431
132.438
102.117
106.359
110.625
114.927
119.269
123.641
128.012
132.323
136.471
140.314
102.488
107.476
112.504
117.595
122.763
128.013
133.323
138.633
143.817
148.66
102.845
108.554
114.321
120.184
126.177
132.325
138.634
145.068
151.502
157.641
103.182
109.573
116.042
122.644
129.435
136.475
143.82
151.504
159.482
167.46
103.494
110.514
117.631
124.914
132.445
140.321
148.666
157.645
167.462
178.222
100.194
100.581
100.968
101.354
101.738
102.117
102.487
102.844
103.182
103.493
100.581
101.742
102.903
104.063
105.217
106.359
107.475
108.552
109.571
110.511
100.968
102.903
104.841
106.778
108.71
110.625
112.503
114.319
116.039
117.626
101.354
104.063
106.779
109.499
112.22
114.927
117.593
120.182
122.64
124.908
101.738
105.218
108.711
112.221
115.745
119.269
122.762
126.174
129.431
132.438
102.117
106.359
110.625
114.928
119.269
123.641
128.012
132.323
136.471
140.314
102.488
107.476
112.505
117.595
122.764
128.013
133.323
138.633
143.817
148.66
102.845
108.554
114.321
120.184
126.177
132.325
138.634
145.068
151.502
157.641
103.183
109.573
116.043
122.644
129.436
136.475
143.82
151.504
159.482
167.46
103.494
110.515
117.631
124.915
132.446
140.321
148.666
157.646
167.463
178.223
100.194
100.581
100.968
101.354
101.738
102.117
102.487
102.844
103.182
103.493
100.581
101.742
102.903
104.063
105.217
106.359
107.475
108.552
109.571
110.511
100.968
102.903
104.841
106.778
108.71
110.625
112.503
114.319
116.039
117.626
101.354
104.063
106.779
109.499
112.22
114.927
117.593
120.182
122.64
124.908
101.738
105.218
108.711
112.221
115.745
119.269
122.762
126.174
129.431
132.438
102.117
106.359
110.625
114.928
119.269
123.641
128.012
132.323
136.471
140.314
102.488
107.476
112.505
117.595
122.764
128.013
133.323
138.633
143.817
148.66
102.845
108.554
114.321
120.184
126.177
132.325
138.634
145.068
151.502
157.641
103.183
109.573
116.043
122.644
129.436
136.475
143.82
151.504
159.482
167.46
103.494
110.515
117.631
124.915
132.446
140.321
148.666
157.646
167.463
178.223
100.194
100.581
100.968
101.354
101.738
102.117
102.487
102.844
103.182
103.493
100.581
101.742
102.903
104.063
105.217
106.359
107.475
108.552
109.571
110.511
100.968
102.903
104.841
106.778
108.71
110.625
112.503
114.319
116.039
117.626
101.354
104.063
106.779
109.499
112.22
114.927
117.593
120.182
122.64
124.908
101.738
105.218
108.711
112.221
115.745
119.269
122.762
126.174
129.431
132.438
102.117
106.359
110.625
114.927
119.269
123.641
128.012
132.323
136.471
140.314
102.488
107.476
112.504
117.595
122.763
128.013
133.323
138.633
143.817
148.66
102.845
108.554
114.321
120.184
126.177
132.325
138.634
145.068
151.502
157.641
103.182
109.573
116.042
122.644
129.435
136.475
143.82
151.504
159.482
167.46
103.494
110.514
117.631
124.914
132.445
140.321
148.666
157.645
167.462
178.222
103.773
104.016
104.222
104.391
104.526
104.63
104.707
104.762
104.796
104.813
104.813
104.796
104.761
104.707
104.63
104.526
104.391
104.222
104.016
103.773
111.354
112.087
112.704
113.208
113.609
113.916
114.144
114.304
114.405
114.454
114.454
114.405
114.304
114.144
113.916
113.608
113.208
112.703
112.086
111.353
119.045
120.272
121.298
122.13
122.784
123.283
123.65
123.906
124.067
124.145
124.145
124.067
123.905
123.649
123.281
122.782
122.128
121.297
120.271
119.044
126.928
128.659
130.087
131.229
132.114
132.78
133.266
133.602
133.812
133.914
133.913
133.812
133.601
133.265
132.779
132.112
131.227
130.086
128.657
126.926
135.1
137.347
139.164
140.584
141.662
142.459
143.032
143.423
143.667
143.783
143.783
143.666
143.422
143.03
142.457
141.66
140.581
139.162
137.345
135.098
143.687
146.465
148.638
150.28
151.49
152.363
152.978
153.393
153.649
153.77
153.77
153.648
153.392
152.977
152.361
151.488
150.278
148.636
146.462
143.685
152.869
156.186
158.643
160.408
161.655
162.526
163.125
163.522
163.764
163.878
163.878
163.763
163.521
163.123
162.524
161.653
160.406
158.641
156.184
152.867
162.943
166.766
169.342
171.053
172.195
172.96
173.473
173.806
174.007
174.102
174.101
174.007
173.806
173.472
172.959
172.193
171.052
169.34
166.764
162.941
174.494
178.591
180.906
182.268
183.11
183.649
183.999
184.223
184.357
184.419
184.419
184.356
184.223
183.998
183.648
183.109
182.267
180.905
178.591
174.494
188.984
192.199
193.422
194.004
194.328
194.526
194.651
194.73
194.777
194.799
194.799
194.777
194.73
194.651
194.525
194.328
194.003
193.422
192.199
188.983
103.773
104.016
104.222
104.391
104.526
104.63
104.707
104.761
104.796
104.812
104.812
104.796
104.761
104.707
104.629
104.525
104.391
104.222
104.016
103.772
111.354
112.086
112.704
113.208
113.608
113.916
114.144
114.304
114.405
114.454
114.454
114.405
114.303
114.143
113.915
113.607
113.207
112.702
112.085
111.352
119.045
120.272
121.298
122.13
122.783
123.282
123.649
123.905
124.067
124.144
124.144
124.066
123.904
123.648
123.28
122.781
122.127
121.296
120.27
119.043
126.928
128.658
130.087
131.228
132.113
132.78
133.265
133.601
133.812
133.913
133.913
133.811
133.6
133.264
132.778
132.111
131.226
130.084
128.656
126.925
135.1
137.347
139.164
140.583
141.661
142.459
143.031
143.423
143.666
143.783
143.782
143.665
143.421
143.029
142.456
141.658
140.58
139.16
137.343
135.097
143.687
146.464
148.638
150.28
151.489
152.363
152.978
153.392
153.648
153.769
153.769
153.647
153.391
152.976
152.36
151.486
150.276
148.634
146.461
143.684
152.869
156.186
158.643
160.407
161.654
162.525
163.124
163.521
163.763
163.878
163.877
163.762
163.52
163.122
162.523
161.651
160.404
158.64
156.182
152.866
162.943
166.765
169.342
171.053
172.194
172.96
173.472
173.805
174.006
174.101
174.1
174.006
173.804
173.47
172.958
172.192
171.05
169.339
166.762
162.94
174.494
178.591
180.906
182.268
183.109
183.648
183.998
184.222
184.356
184.418
184.418
184.355
184.222
183.997
183.647
183.108
182.266
180.904
178.589
174.492
188.984
192.199
193.422
194.003
194.328
194.525
194.651
194.73
194.777
194.799
194.799
194.777
194.73
194.65
194.525
194.327
194.003
193.421
192.198
188.982
103.773
104.016
104.222
104.391
104.526
104.63
104.707
104.761
104.796
104.812
104.812
104.796
104.761
104.707
104.629
104.525
104.391
104.222
104.016
103.772
111.354
112.086
112.704
113.208
113.608
113.916
114.144
114.304
114.405
114.454
114.454
114.405
114.303
114.143
113.915
113.607
113.207
112.702
112.085
111.352
119.045
120.272
121.298
122.13
122.783
123.282
123.649
123.905
124.067
124.144
124.144
124.066
123.904
123.648
123.28
122.781
122.127
121.296
120.27
119.043
126.928
128.658
130.087
131.228
132.113
132.78
133.265
133.601
133.812
133.913
133.913
133.811
133.6
133.264
132.778
132.111
131.226
130.084
128.656
126.925
135.1
137.347
139.164
140.583
141.661
142.459
143.031
143.423
143.666
143.783
143.782
143.665
143.421
143.029
142.456
141.658
140.58
139.16
137.343
135.097
143.687
146.464
148.638
150.28
151.489
152.363
152.978
153.392
153.648
153.769
153.769
153.647
153.391
152.976
152.36
151.486
150.276
148.634
146.461
143.684
152.869
156.186
158.643
160.407
161.654
162.525
163.124
163.521
163.763
163.878
163.877
163.762
163.52
163.122
162.523
161.651
160.404
158.64
156.182
152.866
162.943
166.765
169.342
171.053
172.194
172.96
173.472
173.805
174.006
174.101
174.1
174.006
173.804
173.47
172.958
172.192
171.05
169.339
166.762
162.94
174.494
178.591
180.906
182.268
183.109
183.648
183.998
184.222
184.356
184.418
184.418
184.355
184.222
183.997
183.647
183.108
182.266
180.904
178.589
174.492
188.984
192.199
193.422
194.003
194.328
194.525
194.651
194.73
194.777
194.799
194.799
194.777
194.73
194.65
194.525
194.327
194.003
193.421
192.198
188.982
103.773
104.016
104.222
104.391
104.526
104.63
104.707
104.762
104.796
104.813
104.813
104.796
104.761
104.707
104.63
104.526
104.391
104.222
104.016
103.773
111.354
112.087
112.704
113.208
113.609
113.916
114.144
114.304
114.405
114.454
114.454
114.405
114.304
114.144
113.916
113.608
113.208
112.703
112.086
111.353
119.045
120.272
121.298
122.13
122.784
123.283
123.65
123.906
124.067
124.145
124.145
124.067
123.905
123.649
123.281
122.782
122.128
121.297
120.271
119.044
126.928
128.659
130.087
131.229
132.114
132.78
133.266
133.602
133.812
133.914
133.913
133.812
133.601
133.265
132.779
132.112
131.227
130.086
128.657
126.926
135.1
137.347
139.164
140.584
141.662
142.459
143.032
143.423
143.667
143.783
143.783
143.666
143.422
143.03
142.457
141.66
140.581
139.162
137.345
135.098
143.687
146.465
148.638
150.28
151.49
152.363
152.978
153.393
153.649
153.77
153.77
153.648
153.392
152.977
152.361
151.488
150.278
148.636
146.462
143.685
152.869
156.186
158.643
160.408
161.655
162.526
163.125
163.522
163.764
163.878
163.878
163.763
163.521
163.123
162.524
161.653
160.406
158.641
156.184
152.867
162.943
166.766
169.342
171.053
172.195
172.96
173.473
173.806
174.007
174.102
174.101
174.007
173.806
173.472
172.959
172.193
171.052
169.34
166.764
162.941
174.494
178.591
180.906
182.268
183.11
183.649
183.999
184.223
184.357
184.419
184.419
184.356
184.223
183.998
183.648
183.109
182.267
180.905
178.591
174.494
188.984
192.199
193.422
194.004
194.328
194.526
194.651
194.73
194.777
194.799
194.799
194.777
194.73
194.651
194.525
194.328
194.003
193.422
192.199
188.983
103.493
103.182
102.845
102.488
102.117
101.738
101.354
100.968
100.581
100.194
110.511
109.571
108.553
107.476
106.359
105.218
104.064
102.904
101.743
100.581
117.625
116.039
114.319
112.503
110.625
108.711
106.779
104.842
102.904
100.968
124.907
122.639
120.182
117.594
114.927
112.221
109.5
106.779
104.064
101.354
132.437
129.43
126.174
122.762
119.269
115.745
112.221
108.711
105.218
101.738
140.313
136.471
132.323
128.013
123.642
119.27
114.929
110.626
106.36
102.117
148.659
143.816
138.633
133.324
128.014
122.765
117.596
112.506
107.477
102.488
157.641
151.502
145.069
138.635
132.327
126.179
120.186
114.323
108.555
102.845
167.461
159.483
151.506
143.822
136.478
129.438
122.647
116.044
109.575
103.183
178.223
167.464
157.648
148.669
140.324
132.449
124.917
117.633
110.516
103.495
103.492
103.181
102.844
102.487
102.116
101.737
101.353
100.967
100.58
100.193
110.509
109.57
108.551
107.474
106.358
105.217
104.063
102.903
101.741
100.58
117.624
116.037
114.318
112.502
110.624
108.709
106.778
104.84
102.903
100.967
124.905
122.638
120.18
117.592
114.926
112.219
109.499
106.778
104.063
101.353
132.436
129.429
126.173
122.761
119.268
115.744
112.22
108.71
105.217
101.737
140.311
136.469
132.321
128.011
123.64
119.269
114.927
110.625
106.359
102.117
148.658
143.815
138.631
133.322
128.013
122.763
117.595
112.504
107.476
102.487
157.639
151.501
145.067
138.634
132.325
126.177
120.185
114.321
108.554
102.845
167.459
159.481
151.504
143.82
136.476
129.436
122.645
116.043
109.573
103.182
178.222
167.462
157.646
148.667
140.322
132.447
124.916
117.632
110.515
103.494
103.492
103.181
102.844
102.487
102.116
101.737
101.353
100.967
100.58
100.193
110.509
109.57
108.551
107.474
106.358
105.217
104.063
102.903
101.741
100.58
117.624
116.037
114.318
112.502
110.624
108.709
106.778
104.84
102.903
100.967
124.905
122.638
120.18
117.592
114.926
112.219
109.499
106.778
104.063
101.353
132.436
129.429
126.173
122.761
119.268
115.744
112.22
108.71
105.217
101.737
140.311
136.469
132.321
128.011
123.64
119.269
114.927
110.625
106.359
102.117
148.658
143.815
138.631
133.322
128.013
122.763
117.595
112.504
107.476
102.487
157.639
151.501
145.067
138.634
132.325
126.177
120.185
114.321
108.554
102.845
167.459
159.481
151.504
143.82
136.476
129.436
122.645
116.043
109.573
103.182
178.222
167.462
157.646
148.667
140.322
132.447
124.916
117.632
110.515
103.494
103.493
103.182
102.845
102.488
102.117
101.738
101.354
100.968
100.581
100.194
110.511
109.571
108.553
107.476
106.359
105.218
104.064
102.904
101.743
100.581
117.625
116.039
114.319
112.503
110.625
108.711
106.779
104.842
102.904
100.968
124.907
122.639
120.182
117.594
114.927
112.221
109.5
106.779
104.064
101.354
132.437
129.43
126.174
122.762
119.269
115.745
112.221
108.711
105.218
101.738
140.313
136.471
132.323
128.013
123.642
119.27
114.929
110.626
106.36
102.117
148.659
143.816
138.633
133.324
128.014
122.765
117.596
112.506
107.477
102.488
157.641
151.502
145.069
138.635
132.327
126.179
120.186
114.323
108.555
102.845
167.461
159.483
151.506
143.822
136.478
129.438
122.647
116.044
109.575
103.183
178.223
167.464
157.648
148.669
140.324
132.449
124.917
117.633
110.516
103.495
188.986
174.501
162.953
152.882
143.701
135.115
126.941
119.056
111.361
103.775
192.203
178.601
166.78
156.204
146.484
137.367
128.677
120.287
112.096
104.02
193.427
180.919
169.362
158.668
148.666
139.192
130.112
121.318
112.717
104.227
194.01
182.286
171.081
160.442
150.318
140.621
131.263
122.157
113.226
104.398
194.337
183.134
172.232
161.701
151.541
141.713
132.16
122.82
113.632
104.534
194.537
183.682
173.011
162.589
152.433
142.529
132.843
123.333
113.949
104.641
194.667
184.044
173.542
163.211
153.074
143.127
133.352
123.718
114.188
104.722
194.752
184.284
173.901
163.64
153.523
143.553
133.719
123.998
114.364
104.782
194.807
184.44
174.136
163.926
153.827
143.844
133.971
124.193
114.486
104.824
194.839
184.534
174.278
164.099
154.013
144.025
134.13
124.315
114.564
104.85
194.854
184.576
174.344
164.181
154.102
144.112
134.207
124.376
114.602
104.864
194.853
184.573
174.34
164.178
154.101
144.114
134.21
124.38
114.605
104.865
194.835
184.522
174.266
164.091
154.012
144.031
134.141
124.328
114.573
104.854
194.797
184.416
174.109
163.908
153.825
143.858
133.995
124.219
114.506
104.831
194.731
184.234
173.847
163.607
153.521
143.58
133.764
124.046
114.399
104.795
194.623
183.942
173.439
163.152
153.074
143.179
133.434
123.802
114.251
104.745
194.439
183.473
172.817
162.487
152.443
142.629
132.991
123.48
114.055
104.68
194.096
182.694
171.868
161.538
151.585
141.905
132.42
123.071
113.81
104.598
193.346
181.339
170.423
160.213
150.454
140.988
131.716
122.574
113.515
104.5
191.292
178.897
168.273
158.441
149.032
139.877
130.885
121.997
113.175
104.388
188.985
174.499
162.95
152.88
143.699
135.112
126.939
119.054
111.359
103.774
192.201
178.598
166.777
156.201
146.482
137.365
128.675
120.285
112.094
104.019
193.425
180.916
169.359
158.666
148.663
139.189
130.11
121.316
112.715
104.226
194.008
182.283
171.078
160.439
150.315
140.619
131.26
122.155
113.224
104.397
194.335
183.131
172.229
161.698
151.539
141.71
132.158
122.818
113.631
104.533
194.535
183.679
173.008
162.586
152.431
142.527
132.841
123.33
113.947
104.64
194.665
184.041
173.539
163.208
153.071
143.124
133.349
123.715
114.186
104.721
194.75
184.281
173.898
163.637
153.521
143.551
133.716
123.996
114.362
104.781
194.804
184.437
174.133
163.922
153.824
143.841
133.969
124.19
114.484
104.823
194.837
184.53
174.275
164.096
154.01
144.022
134.127
124.313
114.562
104.849
194.852
184.573
174.34
164.178
154.099
144.109
134.204
124.374
114.6
104.862
194.85
184.57
174.337
164.175
154.098
144.111
134.208
124.377
114.603
104.863
194.832
184.519
174.262
164.087
154.009
144.028
134.138
124.326
114.571
104.853
194.794
184.412
174.105
163.904
153.821
143.855
133.992
124.216
114.503
104.83
194.729
184.23
173.843
163.603
153.518
143.577
133.761
124.043
114.397
104.794
194.62
183.939
173.435
163.148
153.07
143.176
133.431
123.8
114.248
104.744
194.436
183.469
172.813
162.483
152.44
142.626
132.988
123.477
114.053
104.678
194.093
182.69
171.863
161.534
151.581
141.902
132.417
123.068
113.807
104.597
193.343
181.335
170.419
160.209
150.45
140.984
131.713
122.572
113.512
104.499
191.289
178.893
168.269
158.437
149.028
139.874
130.882
121.994
113.172
104.387
188.985
174.499
162.95
152.88
143.699
135.112
126.939
119.054
111.359
103.774
192.201
178.598
166.777
156.201
146.482
137.365
128.675
120.285
112.094
104.019
193.425
180.916
169.359
158.666
148.663
139.189
130.11
121.316
112.715
104.226
194.008
182.283
171.078
160.439
150.315
140.619
131.26
122.155
113.224
104.397
194.335
183.131
172.229
161.698
151.539
141.71
132.158
122.818
113.631
104.533
194.535
183.679
173.008
162.586
152.431
142.527
132.841
123.33
113.947
104.64
194.665
184.041
173.539
163.208
153.071
143.124
133.349
123.715
114.186
104.721
194.75
184.281
173.898
163.637
153.521
143.551
133.716
123.996
114.362
104.781
194.804
184.437
174.133
163.922
153.824
143.841
133.969
124.19
114.484
104.823
194.837
184.53
174.275
164.096
154.01
144.022
134.127
124.313
114.562
104.849
194.852
184.573
174.34
164.178
154.099
144.109
134.204
124.374
114.6
104.862
194.85
184.57
174.337
164.175
154.098
144.111
134.208
124.377
114.603
104.863
194.832
184.519
174.262
164.087
154.009
144.028
134.138
124.326
114.571
104.853
194.794
184.412
174.105
163.904
153.821
143.855
133.992
124.216
114.503
104.83
194.729
184.23
173.843
163.603
153.518
143.577
133.761
124.043
114.397
104.794
194.62
183.939
173.435
163.148
153.07
143.176
133.431
123.8
114.248
104.744
194.436
183.469
172.813
162.483
152.44
142.626
132.988
123.477
114.053
104.678
194.093
182.69
171.863
161.534
151.581
141.902
132.417
123.068
113.807
104.597
193.343
181.335
170.419
160.209
150.45
140.984
131.713
122.572
113.512
104.499
191.289
178.893
168.269
158.437
149.028
139.874
130.882
121.994
113.172
104.387
188.986
174.501
162.953
152.882
143.701
135.115
126.941
119.056
111.361
103.775
192.203
178.601
166.78
156.204
146.484
137.367
128.677
120.287
112.096
104.02
193.427
180.919
169.362
158.668
148.666
139.192
130.112
121.318
112.717
104.227
194.01
182.286
171.081
160.442
150.318
140.621
131.263
122.157
113.226
104.398
194.337
183.134
172.232
161.701
151.541
141.713
132.16
122.82
113.632
104.534
194.537
183.682
173.011
162.589
152.433
142.529
132.843
123.333
113.949
104.641
194.667
184.044
173.542
163.211
153.074
143.127
133.352
123.718
114.188
104.722
194.752
184.284
173.901
163.64
153.523
143.553
133.719
123.998
114.364
104.782
194.807
184.44
174.136
163.926
153.827
143.844
133.971
124.193
114.486
104.824
194.839
184.534
174.278
164.099
154.013
144.025
134.13
124.315
114.564
104.85
194.854
184.576
174.344
164.181
154.102
144.112
134.207
124.376
114.602
104.864
194.853
184.573
174.34
164.178
154.101
144.114
134.21
124.38
114.605
104.865
194.835
184.522
174.266
164.091
154.012
144.031
134.141
124.328
114.573
104.854
194.797
184.416
174.109
163.908
153.825
143.858
133.995
124.219
114.506
104.831
194.731
184.234
173.847
163.607
153.521
143.58
133.764
124.046
114.399
104.795
194.623
183.942
173.439
163.152
153.074
143.179
133.434
123.802
114.25
104.745
194.439
183.473
172.817
162.487
152.443
142.629
132.991
123.48
114.055
104.68
194.096
182.694
171.868
161.538
151.585
141.905
132.42
123.071
113.81
104.598
193.346
181.339
170.423
160.213
150.454
140.988
131.716
122.574
113.515
104.5
191.292
178.897
168.273
158.441
149.032
139.877
130.885
121.997
113.175
104.388
184.214
174.683
165.335
156.247
147.358
138.607
129.95
121.355
112.799
104.264
178.008
170.291
162.139
153.857
145.549
137.247
128.956
120.676
112.403
104.134
173.01
166.337
159.079
151.498
143.74
135.878
127.954
119.991
112.004
104.003
169.02
162.973
156.345
149.322
142.037
134.575
126.994
119.333
111.62
103.877
165.841
160.195
154.01
147.414
140.515
133.396
126.118
118.729
111.266
103.76
163.338
157.962
152.089
145.813
139.219
132.379
125.356
118.201
110.956
103.658
161.419
156.229
150.577
144.535
138.171
131.55
124.731
117.765
110.699
103.573
160.025
154.96
149.46
143.582
137.383
130.922
124.255
117.432
110.502
103.509
159.116
154.129
148.725
142.95
136.858
130.503
123.937
117.209
110.369
103.465
158.667
153.719
148.36
142.636
136.596
130.293
123.777
117.098
110.303
103.447
184.211
174.679
165.331
156.243
147.354
138.604
129.947
121.352
112.797
104.263
178.005
170.287
162.136
153.854
145.546
137.243
128.953
120.673
112.401
104.133
173.007
166.334
159.075
151.495
143.736
135.874
127.951
119.988
112.001
104.002
169.017
162.97
156.342
149.319
142.034
134.572
126.991
119.329
111.617
103.875
165.838
160.192
154.007
147.411
140.512
133.393
126.114
118.725
111.263
103.758
163.335
157.959
152.087
145.81
139.216
132.376
125.353
118.197
110.952
103.656
161.417
156.226
150.575
144.532
138.168
131.547
124.727
117.761
110.695
103.571
160.022
154.957
149.458
143.579
137.38
130.919
124.251
117.428
110.497
103.505
159.113
154.127
148.722
142.947
136.855
130.499
123.932
117.204
110.363
103.46
158.665
153.716
148.357
142.633
136.593
130.289
123.772
117.092
110.296
103.441
184.211
174.679
165.331
156.243
147.354
138.604
129.947
121.352
112.797
104.263
178.005
170.287
162.136
153.854
145.546
137.243
128.953
120.673
112.401
104.133
173.007
166.334
159.075
151.495
143.736
135.874
127.951
119.988
112.001
104.001
169.017
162.97
156.342
149.319
142.034
134.572
126.991
119.329
111.617
103.875
165.838
160.192
154.007
147.411
140.512
133.393
126.114
118.725
111.263
103.758
163.335
157.959
152.087
145.81
139.216
132.376
125.353
118.197
110.952
103.656
161.417
156.226
150.575
144.532
138.168
131.547
124.727
117.761
110.695
103.571
160.023
154.958
149.458
143.579
137.38
130.919
124.251
117.428
110.497
103.505
159.113
154.127
148.722
142.947
136.855
130.499
123.932
117.204
110.363
103.46
158.665
153.716
148.357
142.633
136.593
130.289
123.772
117.092
110.296
103.441
184.214
174.683
165.335
156.247
147.358
138.607
129.95
121.355
112.799
104.264
178.008
170.291
162.139
153.857
145.549
137.247
128.956
120.676
112.403
104.134
173.01
166.337
159.079
151.498
143.74
135.878
127.954
119.991
112.004
104.003
169.02
162.973
156.345
149.322
142.037
134.575
126.994
119.333
111.62
103.877
165.841
160.195
154.01
147.414
140.515
133.396
126.118
118.729
111.266
103.76
163.338
157.962
152.089
145.813
139.219
132.379
125.356
118.201
110.956
103.658
161.419
156.229
150.578
144.535
138.171
131.55
124.731
117.765
110.699
103.573
160.025
154.96
149.461
143.582
137.383
130.922
124.255
117.432
110.502
103.509
159.116
154.13
148.725
142.95
136.858
130.503
123.937
117.209
110.369
103.465
158.667
153.719
148.36
142.636
136.596
130.293
123.777
117.098
110.303
103.447
192.872
195.639
196.812
197.45
197.855
198.132
198.327
198.46
198.544
198.585
198.585
198.545
198.462
198.329
198.134
197.857
197.453
196.815
195.642
192.875
184.514
188.511
190.975
192.584
193.693
194.481
195.042
195.431
195.677
195.796
195.797
195.679
195.434
195.047
194.486
193.7
192.591
190.982
188.518
184.519
178.668
182.919
185.993
188.221
189.854
191.057
191.933
192.547
192.937
193.128
193.129
192.941
192.552
191.941
191.066
189.865
188.233
186.005
182.931
178.679
174.241
178.506
181.86
184.455
186.448
187.963
189.089
189.888
190.401
190.653
190.655
190.406
189.896
189.1
187.977
186.464
184.473
181.878
178.525
174.259
170.789
175.01
178.487
181.295
183.524
185.261
186.576
187.52
188.131
188.432
188.434
188.138
187.531
186.591
185.28
183.547
181.32
178.514
175.037
170.817
168.095
172.26
175.789
178.718
181.098
182.988
184.438
185.49
186.176
186.516
186.519
186.185
185.505
184.458
183.013
181.128
178.751
175.826
172.299
168.134
166.037
170.151
173.698
176.694
179.169
181.16
182.704
183.834
184.574
184.942
184.945
184.585
183.852
182.729
181.191
179.206
176.737
173.746
170.202
166.09
164.542
168.616
172.166
175.198
177.729
179.785
181.392
182.574
183.352
183.739
183.743
183.365
182.596
181.422
179.823
177.775
175.251
172.225
168.679
164.608
163.566
167.612
171.16
174.211
176.774
178.868
180.512
181.726
182.527
182.927
182.932
182.542
181.751
180.546
178.911
176.827
174.271
171.228
167.685
163.643
163.083
167.116
170.662
173.72
176.298
178.409
180.07
181.3
182.112
182.518
182.523
182.128
181.326
180.107
178.456
176.354
173.785
170.735
167.195
163.168
192.875
195.641
196.814
197.451
197.856
198.133
198.327
198.461
198.544
198.585
198.585
198.545
198.461
198.328
198.134
197.856
197.452
196.814
195.64
192.873
184.517
188.514
190.977
192.586
193.695
194.482
195.043
195.432
195.677
195.796
195.797
195.678
195.434
195.046
194.485
193.698
192.589
190.98
188.515
184.516
178.671
182.922
185.996
188.223
189.856
191.058
191.934
192.547
192.938
193.128
193.129
192.94
192.551
191.939
191.065
189.863
188.231
186.003
182.928
178.676
174.244
178.509
181.862
184.457
186.45
187.964
189.09
189.889
190.402
190.653
190.654
190.406
189.895
189.099
187.975
186.462
184.471
181.876
178.523
174.256
170.792
175.013
178.49
181.297
183.526
185.263
186.577
187.521
188.131
188.432
188.434
188.137
187.53
186.59
185.279
183.545
181.318
178.512
175.035
170.814
168.098
172.263
175.792
178.72
181.1
182.989
184.439
185.491
186.177
186.516
186.518
186.184
185.504
184.457
183.011
181.126
178.749
175.824
172.296
168.132
166.04
170.154
173.701
176.696
179.171
181.161
182.705
183.835
184.574
184.942
184.945
184.584
183.851
182.728
181.19
179.205
176.735
173.744
170.2
166.088
164.545
168.619
172.169
175.2
177.731
179.787
181.393
182.575
183.352
183.739
183.743
183.364
182.595
181.421
179.822
177.774
175.249
172.223
168.677
164.606
163.569
167.615
171.163
174.213
176.776
178.869
180.513
181.727
182.527
182.927
182.932
182.541
181.75
180.545
178.91
176.825
174.269
171.226
167.683
163.641
163.086
167.118
170.664
173.722
176.299
178.41
180.071
181.3
182.112
182.518
182.523
182.127
181.325
180.106
178.454
176.353
173.784
170.733
167.193
163.166
192.875
195.641
196.814
197.451
197.856
198.133
198.327
198.461
198.544
198.585
198.585
198.545
198.461
198.328
198.134
197.856
197.452
196.814
195.64
192.873
184.517
188.514
190.977
192.586
193.695
194.482
195.043
195.432
195.677
195.796
195.797
195.678
195.434
195.046
194.485
193.698
192.59
190.98
188.515
184.516
178.671
182.922
185.996
188.223
189.856
191.058
191.934
192.547
192.938
193.128
193.129
192.94
192.551
191.939
191.065
189.863
188.231
186.003
182.928
178.676
174.244
178.51
181.862
184.457
186.45
187.964
189.09
189.889
190.402
190.653
190.654
190.406
189.895
189.099
187.975
186.462
184.471
181.876
178.523
174.256
170.792
175.013
178.49
181.297
183.526
185.263
186.577
187.521
188.132
188.432
188.434
188.137
187.53
186.59
185.279
183.545
181.318
178.512
175.035
170.814
168.098
172.263
175.792
178.72
181.1
182.989
184.439
185.491
186.177
186.516
186.518
186.184
185.504
184.457
183.011
181.126
178.749
175.824
172.296
168.132
166.04
170.154
173.701
176.696
179.171
181.161
182.705
183.835
184.575
184.942
184.945
184.585
183.851
182.728
181.19
179.205
176.735
173.744
170.2
166.087
164.545
168.619
172.169
175.201
177.732
179.787
181.393
182.575
183.352
183.739
183.743
183.364
182.595
181.421
179.822
177.774
175.249
172.223
168.677
164.606
163.569
167.615
171.163
174.213
176.776
178.869
180.513
181.727
182.527
182.927
182.932
182.541
181.75
180.545
178.91
176.825
174.269
171.226
167.683
163.641
163.086
167.118
170.664
173.722
176.299
178.41
180.071
181.3
182.112
182.518
182.523
182.127
181.325
180.106
178.454
176.352
173.783
170.733
167.193
163.166
192.872
195.639
196.812
197.45
197.855
198.132
198.327
198.46
198.544
198.585
198.585
198.545
198.462
198.329
198.134
197.857
197.453
196.815
195.642
192.875
184.514
188.511
190.975
192.584
193.693
194.481
195.042
195.431
195.677
195.796
195.797
195.679
195.435
195.047
194.486
193.7
192.591
190.982
188.518
184.519
178.668
182.919
185.993
188.221
189.854
191.057
191.933
192.547
192.937
193.128
193.129
192.941
192.552
191.941
191.066
189.865
188.233
186.005
182.931
178.679
174.241
178.506
181.86
184.455
186.448
187.963
189.089
189.888
190.401
190.653
190.655
190.406
189.896
189.1
187.977
186.464
184.473
181.878
178.525
174.259
170.789
175.01
178.487
181.295
183.524
185.261
186.576
187.52
188.131
188.432
188.434
188.138
187.531
186.591
185.28
183.547
181.32
178.514
175.037
170.817
168.095
172.26
175.789
178.718
181.098
182.988
184.438
185.49
186.176
186.516
186.519
186.185
185.505
184.458
183.013
181.128
178.751
175.826
172.299
168.135
166.037
170.151
173.699
176.694
179.169
181.16
182.704
183.834
184.574
184.942
184.945
184.585
183.852
182.729
181.191
179.206
176.737
173.746
170.202
166.09
164.542
168.616
172.166
175.198
177.73
179.785
181.392
182.574
183.352
183.739
183.744
183.365
182.596
181.422
179.823
177.775
175.251
172.225
168.679
164.608
163.566
167.612
171.16
174.211
176.774
178.868
180.512
181.726
182.527
182.927
182.932
182.542
181.751
180.546
178.911
176.826
174.271
171.228
167.685
163.643
163.083
167.115
170.662
173.72
176.298
178.409
180.07
181.3
182.112
182.518
182.523
182.128
181.326
180.107
178.456
176.354
173.785
170.735
167.195
163.168
104.264
112.8
121.358
129.955
138.614
147.364
156.252
165.339
174.685
184.213
104.134
112.404
120.678
128.96
137.251
145.554
153.861
162.141
170.29
178.004
104.002
112.003
119.992
127.955
135.879
143.74
151.497
159.075
166.331
173.001
103.875
111.617
119.33
126.991
134.571
142.031
149.313
156.333
162.959
169.003
103.758
111.261
118.722
126.109
133.384
140.5
147.395
153.987
160.17
165.814
103.654
110.947
118.188
125.339
132.357
139.191
145.781
152.054
157.923
163.298
103.568
110.686
117.745
124.704
131.516
138.13
144.488
150.527
156.176
161.365
103.501
110.485
117.404
124.217
130.874
137.327
143.52
149.395
154.892
159.957
103.456
110.348
117.172
123.886
130.441
136.789
142.874