/*--------------------------------*- C++ -*----------------------------------*\
| =========                 |                                                 |
| \\      /  F ield         | OpenFOAM: The Open Source CFD Toolbox           |
|  \\    /   O peration     | Version:  2.4.0                                 |
|   \\  /    A nd           | Web:      www.OpenFOAM.org                      |
|    \\/     M anipulation  |                                                 |
\*---------------------------------------------------------------------------*/
FoamFile
{
    version     2.0;
    format      ascii;
    class       volVectorField;
    location    "0.0077";
    object      U;
}
// * * * * * * * * * * * * * * * * * * * * * * * * * * * * * * * * * * * * * //

dimensions      [0 1 -1 0 0 0 0];

internalField   nonuniform List<vector> 
4800
(
(0.00030712 -0.000311369 -6.5657e-07)
(1.88663e-05 0.000156497 0.000217108)
(-0.00184428 0.000665281 0.000445639)
(-0.00484133 0.00100928 0.000615301)
(-0.00857496 0.00120456 0.000682032)
(-0.0127028 0.00128894 0.000625368)
(-0.0169407 0.00129005 0.000438985)
(-0.0210499 0.00122182 0.00012337)
(-0.0248199 0.00109163 -0.000315466)
(-0.028073 0.000911591 -0.000864611)
(-0.000182364 -2.12114e-05 -0.000217966)
(-0.00248591 0.00239485 4.59796e-06)
(-0.00807853 0.00475254 0.000174195)
(-0.0159711 0.0064533 0.000275659)
(-0.0254175 0.00749087 0.000290818)
(-0.0357363 0.0079583 0.000203691)
(-0.0462853 0.00794245 7.54133e-06)
(-0.0564822 0.00750373 -0.000300046)
(-0.065807 0.00669799 -0.000717798)
(-0.0738322 0.00561526 -0.00123921)
(-0.000780147 0.0019724 -0.000452031)
(-0.00522614 0.00810795 -0.000157911)
(-0.0143327 0.0135734 1.26212e-05)
(-0.0264145 0.0175724 9.2383e-05)
(-0.0404657 0.0200627 9.00186e-05)
(-0.055612 0.0211744 -3.35319e-06)
(-0.0709815 0.0210509 -0.000192058)
(-0.0857477 0.0198158 -0.000479985)
(-0.0991496 0.0176175 -0.000870353)
(-0.11055 0.0147079 -0.00136289)
(-0.00126031 0.00539797 -0.000611139)
(-0.00751542 0.0166414 -0.000230347)
(-0.0195942 0.0259422 -3.56881e-05)
(-0.0350988 0.032655 4.6226e-05)
(-0.0527821 0.0368113 4.62158e-05)
(-0.0716344 0.0385986 -3.85595e-05)
(-0.0906273 0.0382027 -0.000210716)
(-0.108751 0.0357951 -0.00047677)
(-0.125034 0.0316201 -0.000846248)
(-0.138614 0.0261352 -0.00132764)
(-0.00158999 0.00992314 -0.000620074)
(-0.00915403 0.0273899 -0.000163988)
(-0.0234199 0.041063 5.64053e-05)
(-0.0414197 0.0507358 0.000150968)
(-0.0617089 0.0566421 0.00016669)
(-0.0831818 0.0590628 0.000104273)
(-0.104703 0.0582119 -3.97661e-05)
(-0.125119 0.0542723 -0.000277486)
(-0.143258 0.047549 -0.000628615)
(-0.157965 0.0387063 -0.00111733)
(-0.00176276 0.0151548 -0.000428948)
(-0.0100522 0.0396129 8.32732e-05)
(-0.0255589 0.0580377 0.000325049)
(-0.0449767 0.0708354 0.000439632)
(-0.0667376 0.0785377 0.000483687)
(-0.0896827 0.081552 0.000458738)
(-0.112619 0.0801028 0.000357162)
(-0.134299 0.0743262 0.000157446)
(-0.153366 0.0644991 -0.000175988)
(-0.168246 0.0514077 -0.00069805)
(-0.00177862 0.020666 -1.35742e-05)
(-0.0101734 0.0524503 0.000532581)
(-0.0258844 0.075797 0.000788143)
(-0.0455275 0.0917875 0.000927957)
(-0.0674976 0.1013 0.00101236)
(-0.0906286 0.10489 0.00104162)
(-0.113727 0.102774 0.00100096)
(-0.135527 0.0949675 0.000855515)
(-0.154572 0.081559 0.000547971)
(-0.168729 0.0631864 -3.82178e-05)
(-0.00164436 0.0260271 0.000626558)
(-0.00953276 0.0650048 0.00118448)
(-0.0243978 0.0931948 0.00144493)
(-0.0430185 0.112311 0.00161357)
(-0.0638233 0.123574 0.00174953)
(-0.0856661 0.127705 0.00185124)
(-0.107395 0.124911 0.00189534)
(-0.127823 0.11502 0.0018316)
(-0.145629 0.0977267 0.0015803)
(-0.15808 0.0729081 0.000907055)
(-0.00138046 0.0308362 0.00146911)
(-0.00822013 0.0764166 0.00201939)
(-0.0212786 0.109095 0.00227561)
(-0.0376835 0.131075 0.0024742)
(-0.055924 0.143872 0.00266974)
(-0.0748468 0.148375 0.00286011)
(-0.0933069 0.144836 0.00301417)
(-0.110208 0.132943 0.00306569)
(-0.124755 0.111943 0.00292472)
(-0.134054 0.0801094 0.00215028)
(-0.00102671 0.0347653 0.0024714)
(-0.00642237 0.0859625 0.00300015)
(-0.0169427 0.122496 0.00324318)
(-0.0301722 0.146831 0.00346863)
(-0.0446365 0.16065 0.00372524)
(-0.0590601 0.164978 0.00401534)
(-0.0720868 0.160159 0.00430959)
(-0.0823209 0.145874 0.00453783)
(-0.0894722 0.121241 0.0046681)
(-0.0925318 0.0835539 0.00407418)
(0.000312446 -0.000315561 -8.04445e-08)
(2.6475e-05 0.000150745 1.32667e-06)
(-0.00184036 0.000651319 2.00521e-06)
(-0.00483863 0.000989521 2.58201e-06)
(-0.00857343 0.00118162 2.92731e-06)
(-0.0127022 0.00126444 3.07099e-06)
(-0.0169408 0.00126549 3.08168e-06)
(-0.021051 0.00119856 2.96175e-06)
(-0.0248221 0.0010708 2.69066e-06)
(-0.0280764 0.000893827 2.24999e-06)
(-0.00017483 -2.80885e-05 -1.15396e-06)
(-0.00248264 0.00239308 3.00255e-07)
(-0.00808595 0.00474138 -1.18351e-06)
(-0.0159758 0.00643695 -1.86875e-06)
(-0.0254198 0.00747266 -2.21159e-06)
(-0.035737 0.00793923 -2.42681e-06)
(-0.0462844 0.00792351 -2.43316e-06)
(-0.0564802 0.00748597 -2.26146e-06)
(-0.065805 0.00668228 -1.98309e-06)
(-0.0738311 0.00560168 -1.71073e-06)
(-0.000764051 0.00196696 -1.96699e-06)
(-0.00521475 0.00811466 1.75236e-06)
(-0.0143396 0.0135766 7.26144e-08)
(-0.0264167 0.0175757 -8.03408e-08)
(-0.0404658 0.0200679 8.64867e-08)
(-0.0556118 0.0211807 8.18399e-08)
(-0.0709807 0.0210576 9.21262e-08)
(-0.0857465 0.0198226 1.39144e-07)
(-0.0991495 0.0176245 1.93349e-07)
(-0.110552 0.0147136 1.1865e-07)
(-0.00123724 0.0053931 -2.85466e-06)
(-0.00749898 0.0166455 2.47506e-06)
(-0.0196034 0.0259413 -2.18669e-08)
(-0.0351007 0.0326523 -2.29909e-07)
(-0.0527811 0.0368091 5.87938e-08)
(-0.0716336 0.0385968 9.31964e-08)
(-0.090626 0.0382013 1.26281e-07)
(-0.108749 0.0357947 2.10398e-07)
(-0.125034 0.031622 3.67776e-07)
(-0.138619 0.0261373 3.24575e-07)
(-0.00156231 0.00991996 -3.49168e-06)
(-0.00913534 0.0273923 2.91244e-06)
(-0.0234325 0.041061 -3.47035e-07)
(-0.0414228 0.0507317 -7.33342e-07)
(-0.061708 0.0566376 -4.46321e-07)
(-0.0831808 0.0590581 -4.2528e-07)
(-0.1047 0.0582074 -3.79554e-07)
(-0.125115 0.0542691 -2.24845e-07)
(-0.143256 0.0475503 2.29648e-07)
(-0.157972 0.0387098 4.55848e-07)
(-0.00173245 0.0151536 -3.82126e-06)
(-0.0100324 0.0396142 3.22158e-06)
(-0.0255739 0.0580367 -4.52635e-07)
(-0.0449808 0.070833 -9.31571e-07)
(-0.066737 0.0785346 -6.48109e-07)
(-0.0896818 0.0815485 -6.42589e-07)
(-0.112616 0.0800987 -6.27415e-07)
(-0.134292 0.0743227 -5.0524e-07)
(-0.15336 0.0645037 3.98787e-07)
(-0.16826 0.0514197 1.27442e-06)
(-0.00174782 0.0206672 -3.89307e-06)
(-0.0101536 0.0524506 3.29723e-06)
(-0.0259004 0.0757969 -4.84893e-07)
(-0.0455325 0.0917868 -1.01914e-06)
(-0.0674977 0.101298 -7.77808e-07)
(-0.0906285 0.104888 -8.0503e-07)
(-0.113724 0.102771 -8.89869e-07)
(-0.135514 0.0949628 -1.06443e-06)
(-0.154554 0.0815699 5.24761e-07)
(-0.168759 0.0632251 3.24259e-06)
(-0.00161559 0.0260307 -3.5309e-06)
(-0.00951472 0.0650043 3.17572e-06)
(-0.0244137 0.0931958 -4.41141e-07)
(-0.0430241 0.112312 -9.89791e-07)
(-0.0638241 0.123575 -8.09798e-07)
(-0.0856671 0.127704 -8.21928e-07)
(-0.107395 0.124906 -9.2917e-07)
(-0.1278 0.115004 -1.64295e-06)
(-0.145576 0.0977228 1.55671e-06)
(-0.158128 0.0729696 1.12923e-05)
(-0.00135549 0.0308414 -2.93016e-06)
(-0.00820475 0.0764156 2.88317e-06)
(-0.0212931 0.109098 -3.06128e-07)
(-0.0376893 0.131079 -8.28477e-07)
(-0.0559261 0.143876 -7.59171e-07)
(-0.0748513 0.148378 -8.1949e-07)
(-0.0933181 0.144833 -1.09695e-06)
(-0.110191 0.13291 -3.83042e-06)
(-0.124649 0.111868 -1.14322e-06)
(-0.134102 0.0800792 2.53519e-05)
(-0.00100675 0.0347714 -2.12425e-06)
(-0.00641 0.0859612 2.49175e-06)
(-0.0169541 0.1225 -5.94759e-08)
(-0.0301764 0.146839 -4.74242e-07)
(-0.0446378 0.160663 -5.01405e-07)
(-0.0590669 0.165001 -7.29628e-07)
(-0.0721202 0.160203 -1.54195e-06)
(-0.0823626 0.145939 -9.5201e-06)
(-0.0893823 0.121304 -2.22715e-05)
(-0.092611 0.0836736 7.66011e-06)
(0.000312526 -0.000315481 -8.34148e-08)
(2.65989e-05 0.0001508 -1.37979e-06)
(-0.00184029 0.000651345 -2.03562e-06)
(-0.00483859 0.000989533 -2.60358e-06)
(-0.0085734 0.00118162 -2.94278e-06)
(-0.0127022 0.00126444 -3.08243e-06)
(-0.0169408 0.00126549 -3.09039e-06)
(-0.021051 0.00119856 -2.96851e-06)
(-0.0248221 0.0010708 -2.69603e-06)
(-0.0280764 0.000893827 -2.25439e-06)
(-0.000174776 -2.79639e-05 1.1014e-06)
(-0.00248254 0.00239318 -3.35149e-07)
(-0.00808586 0.00474144 1.1553e-06)
(-0.0159758 0.00643698 1.84694e-06)
(-0.0254198 0.00747268 2.19525e-06)
(-0.035737 0.00793924 2.41451e-06)
(-0.0462843 0.00792351 2.42374e-06)
(-0.0564802 0.00748597 2.25409e-06)
(-0.0658049 0.00668228 1.9772e-06)
(-0.073831 0.00560168 1.7059e-06)
(-0.000764024 0.00196703 1.93745e-06)
(-0.00521469 0.00811474 -1.77992e-06)
(-0.0143396 0.0135767 -9.61016e-08)
(-0.0264166 0.0175757 6.15726e-08)
(-0.0404657 0.0200679 -1.0124e-07)
(-0.0556118 0.0211807 -9.34036e-08)
(-0.0709807 0.0210576 -1.01287e-07)
(-0.0857465 0.0198226 -1.465e-07)
(-0.0991495 0.0176245 -1.99335e-07)
(-0.110552 0.0147136 -1.23594e-07)
(-0.00123722 0.00539315 2.83447e-06)
(-0.00749895 0.0166456 -2.49578e-06)
(-0.0196033 0.0259414 3.59685e-09)
(-0.0351007 0.0326524 2.14647e-07)
(-0.0527811 0.0368091 -7.14869e-08)
(-0.0716336 0.0385968 -1.03677e-07)
(-0.090626 0.0382013 -1.34958e-07)
(-0.108749 0.0357948 -2.17597e-07)
(-0.125034 0.031622 -3.73753e-07)
(-0.138619 0.0261373 -3.29572e-07)
(-0.0015623 0.00991999 3.47783e-06)
(-0.00913533 0.0273923 -2.92748e-06)
(-0.0234325 0.041061 3.33177e-07)
(-0.0414228 0.0507317 7.21158e-07)
(-0.061708 0.0566376 4.35545e-07)
(-0.0831807 0.0590582 4.15873e-07)
(-0.1047 0.0582074 3.71428e-07)
(-0.125115 0.0542691 2.17915e-07)
(-0.143256 0.0475503 -2.35496e-07)
(-0.157972 0.0387098 -4.60787e-07)
(-0.00173245 0.0151536 3.81136e-06)
(-0.0100324 0.0396143 -3.23283e-06)
(-0.0255739 0.0580368 4.41871e-07)
(-0.0449808 0.070833 9.21583e-07)
(-0.066737 0.0785346 6.38709e-07)
(-0.0896818 0.0815485 6.3396e-07)
(-0.112616 0.0800987 6.19726e-07)
(-0.134292 0.0743227 4.98577e-07)
(-0.15336 0.0645037 -4.04465e-07)
(-0.16826 0.0514197 -1.27929e-06)
(-0.00174782 0.0206672 3.88534e-06)
(-0.0101536 0.0524506 -3.3062e-06)
(-0.0259004 0.075797 4.76129e-07)
(-0.0455325 0.0917868 1.01062e-06)
(-0.0674977 0.101298 7.69382e-07)
(-0.0906285 0.104888 7.97051e-07)
(-0.113724 0.102771 8.82678e-07)
(-0.135514 0.0949628 1.05819e-06)
(-0.154554 0.0815699 -5.30128e-07)
(-0.168759 0.0632251 -3.24728e-06)
(-0.00161559 0.0260307 3.52447e-06)
(-0.00951472 0.0650043 -3.18305e-06)
(-0.0244137 0.0931959 4.33763e-07)
(-0.0430241 0.112312 9.82313e-07)
(-0.0638241 0.123575 8.02196e-07)
(-0.0856671 0.127704 8.14677e-07)
(-0.107395 0.124906 9.22688e-07)
(-0.1278 0.115004 1.63734e-06)
(-0.145576 0.0977228 -1.56154e-06)
(-0.158128 0.0729697 -1.12965e-05)
(-0.00135549 0.0308415 2.92489e-06)
(-0.00820475 0.0764156 -2.88927e-06)
(-0.0212931 0.109098 2.99813e-07)
(-0.0376893 0.131079 8.21899e-07)
(-0.0559261 0.143876 7.5245e-07)
(-0.0748513 0.148378 8.1316e-07)
(-0.0933181 0.144833 1.09141e-06)
(-0.110191 0.13291 3.82562e-06)
(-0.124649 0.111868 1.139e-06)
(-0.134102 0.0800792 -2.53554e-05)
(-0.00100675 0.0347714 2.11989e-06)
(-0.00641 0.0859613 -2.49683e-06)
(-0.0169541 0.122501 5.41145e-08)
(-0.0301764 0.146839 4.6859e-07)
(-0.0446378 0.160663 4.95702e-07)
(-0.0590669 0.165001 7.24414e-07)
(-0.0721202 0.160203 1.53752e-06)
(-0.0823626 0.145939 9.51612e-06)
(-0.0893823 0.121304 2.22677e-05)
(-0.092611 0.0836736 -7.66333e-06)
(0.000307564 -0.000310923 8.28832e-07)
(1.94999e-05 0.000156713 -0.000217052)
(-0.00184401 0.000665365 -0.000445607)
(-0.00484119 0.00100931 -0.000615279)
(-0.00857488 0.00120458 -0.000682015)
(-0.0127027 0.00128895 -0.000625356)
(-0.0169406 0.00129005 -0.000438976)
(-0.0210499 0.00122182 -0.000123363)
(-0.0248198 0.00109163 0.000315472)
(-0.028073 0.000911591 0.000864616)
(-0.000182149 -2.05763e-05 0.000218021)
(-0.00248554 0.00239522 -4.56107e-06)
(-0.00807827 0.00475272 -0.000174165)
(-0.015971 0.00645339 -0.000275636)
(-0.0254174 0.00749091 -0.000290801)
(-0.0357362 0.00795832 -0.000203678)
(-0.0462852 0.00794246 -7.53137e-06)
(-0.0564822 0.00750374 0.000300054)
(-0.0658069 0.00669799 0.000717804)
(-0.0738321 0.00561526 0.00123921)
(-0.000780063 0.00197268 0.000452062)
(-0.00522596 0.00810821 0.00015794)
(-0.0143326 0.0135735 -1.25964e-05)
(-0.0264143 0.0175725 -9.23632e-05)
(-0.0404656 0.0200627 -9.0003e-05)
(-0.0556119 0.0211744 3.36542e-06)
(-0.0709815 0.0210509 0.000192068)
(-0.0857476 0.0198158 0.000479993)
(-0.0991496 0.0176175 0.000870359)
(-0.11055 0.0147079 0.0013629)
(-0.00126027 0.00539811 0.00061116)
(-0.00751534 0.0166416 0.000230369)
(-0.0195941 0.0259423 3.57074e-05)
(-0.0350987 0.0326551 -4.62098e-05)
(-0.052782 0.0368114 -4.62024e-05)
(-0.0716344 0.0385986 3.85706e-05)
(-0.0906273 0.0382027 0.000210726)
(-0.108751 0.0357951 0.000476777)
(-0.125034 0.0316201 0.000846255)
(-0.138614 0.0261352 0.00132765)
(-0.00158998 0.00992322 0.000620089)
(-0.00915399 0.02739 0.000164004)
(-0.0234198 0.0410631 -5.63906e-05)
(-0.0414196 0.0507359 -0.000150956)
(-0.0617089 0.0566422 -0.000166679)
(-0.0831818 0.0590628 -0.000104263)
(-0.104703 0.0582119 3.97747e-05)
(-0.125119 0.0542724 0.000277494)
(-0.143258 0.047549 0.000628621)
(-0.157965 0.0387063 0.00111733)
(-0.00176275 0.0151548 0.000428958)
(-0.0100522 0.039613 -8.32613e-05)
(-0.0255589 0.0580378 -0.000325037)
(-0.0449766 0.0708355 -0.000439622)
(-0.0667375 0.0785377 -0.000483677)
(-0.0896826 0.0815521 -0.000458729)
(-0.112619 0.0801029 -0.000357154)
(-0.134299 0.0743263 -0.000157439)
(-0.153366 0.0644991 0.000175994)
(-0.168246 0.0514077 0.000698055)
(-0.00177862 0.020666 1.35824e-05)
(-0.0101733 0.0524504 -0.000532572)
(-0.0258844 0.0757971 -0.000788134)
(-0.0455274 0.0917876 -0.000927948)
(-0.0674975 0.1013 -0.00101235)
(-0.0906285 0.10489 -0.00104161)
(-0.113727 0.102775 -0.00100095)
(-0.135527 0.0949675 -0.000855508)
(-0.154572 0.0815591 -0.000547965)
(-0.168729 0.0631865 3.82227e-05)
(-0.00164436 0.0260271 -0.000626551)
(-0.00953275 0.0650048 -0.00118447)
(-0.0243978 0.0931949 -0.00144493)
(-0.0430185 0.112311 -0.00161356)
(-0.0638232 0.123574 -0.00174952)
(-0.0856661 0.127705 -0.00185123)
(-0.107395 0.124911 -0.00189533)
(-0.127823 0.11502 -0.00183159)
(-0.145629 0.0977267 -0.0015803)
(-0.15808 0.0729081 -0.000907051)
(-0.00138046 0.0308362 -0.0014691)
(-0.00822012 0.0764166 -0.00201938)
(-0.0212786 0.109095 -0.00227561)
(-0.0376835 0.131075 -0.0024742)
(-0.055924 0.143872 -0.00266973)
(-0.0748468 0.148375 -0.0028601)
(-0.0933069 0.144836 -0.00301416)
(-0.110208 0.132943 -0.00306569)
(-0.124755 0.111943 -0.00292472)
(-0.134054 0.0801094 -0.00215027)
(-0.00102671 0.0347653 -0.0024714)
(-0.00642237 0.0859625 -0.00300014)
(-0.0169427 0.122496 -0.00324318)
(-0.0301722 0.146831 -0.00346862)
(-0.0446365 0.16065 -0.00372524)
(-0.0590601 0.164978 -0.00401534)
(-0.0720867 0.160159 -0.00430959)
(-0.0823209 0.145874 -0.00453783)
(-0.0894722 0.121241 -0.0046681)
(-0.0925318 0.0835539 -0.00407418)
(-0.0306963 0.000707228 -0.00150334)
(-0.0326754 0.0005128 -0.00220618)
(-0.0340866 0.000351291 -0.00295016)
(-0.0350502 0.000230592 -0.00371801)
(-0.0356913 0.000148498 -0.00449826)
(-0.0361196 9.83221e-05 -0.00528423)
(-0.0364224 7.28906e-05 -0.00607276)
(-0.0366663 6.64751e-05 -0.00686308)
(-0.0369027 7.51572e-05 -0.00765631)
(-0.0371711 9.63333e-05 -0.00845519)
(-0.0375019 0.00012777 -0.00926413)
(-0.0379152 0.000166405 -0.0100894)
(-0.0384166 0.000206971 -0.0109389)
(-0.038989 0.000240565 -0.0118225)
(-0.0395817 0.000253438 -0.0127505)
(-0.0400979 0.000226641 -0.0137322)
(-0.040385 0.000137906 -0.014773)
(-0.0402324 -3.25027e-05 -0.0158705)
(-0.0393915 -0.000296519 -0.0170087)
(-0.0376227 -0.000642179 -0.0181553)
(-0.0802985 0.00440804 -0.00185055)
(-0.0851912 0.0032617 -0.00253201)
(-0.0887084 0.00229967 -0.00326506)
(-0.091143 0.00156661 -0.00403437)
(-0.0927927 0.00105328 -0.00482813)
(-0.093916 0.000725077 -0.00563808)
(-0.094718 0.00054256 -0.00645903)
(-0.0953554 0.000471771 -0.00728833)
(-0.095945 0.000486574 -0.00812545)
(-0.0965734 0.000566434 -0.00897174)
(-0.0973004 0.000691804 -0.00983024)
(-0.0981571 0.000838311 -0.0107056)
(-0.0991367 0.000970441 -0.0116039)
(-0.100179 0.0010356 -0.0125322)
(-0.101147 0.0009603 -0.0134976)
(-0.101809 0.000651531 -0.0145061)
(-0.101819 8.27979e-06 -0.0155599)
(-0.100725 -0.00105229 -0.0166545)
(-0.0980095 -0.00255655 -0.0177758)
(-0.0931901 -0.00442086 -0.0188964)
(-0.119566 0.0115011 -0.00194845)
(-0.126229 0.00849174 -0.00260682)
(-0.130911 0.0059903 -0.00332051)
(-0.134089 0.00409531 -0.00407482)
(-0.136211 0.00276963 -0.00485774)
(-0.137638 0.00191651 -0.00566042)
(-0.138645 0.00143066 -0.0064769)
(-0.139432 0.00122197 -0.00730368)
(-0.140142 0.00122008 -0.00813934)
(-0.140876 0.00136817 -0.00898424)
(-0.141701 0.00161174 -0.0098403)
(-0.142646 0.00188498 -0.0107108)
(-0.143692 0.00209648 -0.0116004)
(-0.144756 0.00211638 -0.0125144)
(-0.145663 0.00176898 -0.0134584)
(-0.146117 0.000837655 -0.0144376)
(-0.145677 -0.000907582 -0.0154549)
(-0.143758 -0.00365128 -0.0165084)
(-0.139669 -0.00743648 -0.017589)
(-0.132732 -0.0120497 -0.0186758)
(-0.14896 0.0201414 -0.00191567)
(-0.156208 0.0146364 -0.00258043)
(-0.161021 0.0101744 -0.00330134)
(-0.16412 0.00687084 -0.00406258)
(-0.166093 0.00460162 -0.00485137)
(-0.167366 0.00315793 -0.00565862)
(-0.168233 0.00233541 -0.00647836)
(-0.168889 0.00196871 -0.00730698)
(-0.169466 0.00193302 -0.00814278)
(-0.170053 0.00213008 -0.00898551)
(-0.170704 0.00246789 -0.00983619)
(-0.171443 0.00283783 -0.0106969)
(-0.172253 0.00309115 -0.0115708)
(-0.173062 0.00301745 -0.012462)
(-0.173711 0.00233045 -0.0133755)
(-0.173921 0.000671626 -0.0143169)
(-0.173248 -0.00235097 -0.0152921)
(-0.171053 -0.00707082 -0.0163053)
(-0.166506 -0.0136026 -0.0173558)
(-0.158677 -0.021624 -0.0184338)
(-0.168437 0.0290832 -0.00174485)
(-0.175011 0.0205314 -0.00245151)
(-0.17887 0.0138811 -0.00320935)
(-0.181061 0.00914521 -0.00400077)
(-0.182288 0.00599734 -0.00481231)
(-0.182987 0.00404354 -0.00563575)
(-0.183413 0.00294546 -0.00646629)
(-0.183706 0.00245121 -0.00730129)
(-0.183951 0.00238234 -0.00813942)
(-0.184197 0.00260592 -0.00898027)
(-0.184475 0.00300295 -0.00982406)
(-0.184802 0.00343604 -0.0106716)
(-0.185178 0.00371666 -0.0115246)
(-0.185571 0.00357306 -0.0123854)
(-0.185899 0.00262351 -0.0132582)
(-0.185979 0.000366611 -0.0141498)
(-0.185465 -0.00378694 -0.0150698)
(-0.183758 -0.0104038 -0.016031)
(-0.179924 -0.0198063 -0.0170466)
(-0.172656 -0.0316962 -0.018127)
(-0.177576 0.0370967 -0.00142879)
(-0.18207 0.025001 -0.00222761)
(-0.183855 0.0161744 -0.00305742)
(-0.184383 0.0102489 -0.00390267)
(-0.184395 0.00650261 -0.00475187)
(-0.184237 0.00426722 -0.00560043)
(-0.184045 0.00304487 -0.006447)
(-0.183857 0.00250153 -0.00729123)
(-0.183676 0.00242011 -0.00813305)
(-0.183494 0.00265132 -0.00897226)
(-0.183308 0.0030701 -0.00980844)
(-0.183124 0.00353586 -0.010641)
(-0.182963 0.00385277 -0.0114696)
(-0.182856 0.00372713 -0.0122947)
(-0.182836 0.00272245 -0.0131186)
(-0.182895 0.000219469 -0.0139481)
(-0.182901 -0.00459261 -0.014797)
(-0.182446 -0.012629 -0.0156873)
(-0.180613 -0.0246667 -0.0166513)
(-0.175593 -0.0407681 -0.0177389)
(-0.175427 0.0426813 -0.000987949)
(-0.176181 0.0267098 -0.00194794)
(-0.174828 0.0161502 -0.00288478)
(-0.173178 0.00965523 -0.00380072)
(-0.171776 0.00583856 -0.00469393)
(-0.170716 0.00368993 -0.00556912)
(-0.169926 0.00256555 -0.00643142)
(-0.169299 0.00208343 -0.00728421)
(-0.16874 0.00202071 -0.00812919)
(-0.168177 0.00223934 -0.00896656)
(-0.167567 0.00263391 -0.00979519)
(-0.166899 0.00309022 -0.0106129)
(-0.166205 0.0034447 -0.0114169)
(-0.165572 0.0034366 -0.0122046)
(-0.165153 0.00264525 -0.0129752)
(-0.165163 0.000406636 -0.013733)
(-0.165798 -0.0042769 -0.0144938)
(-0.167077 -0.0127555 -0.0152882)
(-0.168434 -0.0266131 -0.0161705)
(-0.167614 -0.0469969 -0.0172638)
(-0.159992 0.0436627 -0.000480155)
(-0.155058 0.0240547 -0.00168555)
(-0.1499 0.0130575 -0.00275167)
(-0.146135 0.00714813 -0.00373853)
(-0.143604 0.00403178 -0.00466713)
(-0.141943 0.00242206 -0.00555947)
(-0.140816 0.00163484 -0.0064302)
(-0.13997 0.00132028 -0.00728683)
(-0.139226 0.00130002 -0.00813251)
(-0.138466 0.00147761 -0.00896746)
(-0.137613 0.00178851 -0.00978953)
(-0.136634 0.00216671 -0.0105947)
(-0.13555 0.00251351 -0.0113772)
(-0.134465 0.00265681 -0.0121308)
(-0.133602 0.00228555 -0.0128495)
(-0.133356 0.000833775 -0.0135325)
(-0.134285 -0.00271041 -0.0141946)
(-0.137078 -0.0100333 -0.0148692)
(-0.142224 -0.0238401 -0.0156267)
(-0.14778 -0.0477932 -0.0167029)
(-0.126838 0.0375177 -0.000196855)
(-0.114496 0.0161251 -0.00167483)
(-0.106271 0.00713202 -0.00278918)
(-0.101674 0.00331846 -0.00378371)
(-0.0990506 0.00165379 -0.00470503)
(-0.097504 0.000917766 -0.00558788)
(-0.0965265 0.000602449 -0.00645182)
(-0.095813 0.00049766 -0.00730445)
(-0.095179 0.000516437 -0.00814783)
(-0.0945052 0.000621388 -0.00898078)
(-0.0937112 0.000793289 -0.0097995)
(-0.0927483 0.00101495 -0.0105977)
(-0.0916084 0.00125786 -0.0113664)
(-0.0903499 0.00146239 -0.0120943)
(-0.0891536 0.00149726 -0.0127679)
(-0.088414 0.00106744 -0.0133761)
(-0.0888191 -0.000509199 -0.0139267)
(-0.0916842 -0.00485569 -0.0144251)
(-0.0994983 -0.0155459 -0.0149156)
(-0.113353 -0.0406163 -0.0157947)
(-0.0645447 0.0229858 -0.00084842)
(-0.0481579 0.00662915 -0.00231932)
(-0.0414388 0.00202245 -0.00307351)
(-0.0390016 0.000650465 -0.00382211)
(-0.0379426 0.000224451 -0.00458699)
(-0.0374013 9.38422e-05 -0.00536471)
(-0.0370782 5.87534e-05 -0.00615305)
(-0.0368335 5.80693e-05 -0.00694682)
(-0.0365925 7.48041e-05 -0.00774099)
(-0.0363065 0.000105598 -0.00853054)
(-0.0359361 0.00015122 -0.00930923)
(-0.0354468 0.00021357 -0.0100684)
(-0.0348108 0.000294066 -0.0107958)
(-0.0340148 0.00039035 -0.0114735)
(-0.0330815 0.000485905 -0.0120763)
(-0.0321224 0.000518222 -0.0125683)
(-0.0314814 0.000262243 -0.0129018)
(-0.0321231 -0.00114006 -0.0130402)
(-0.0377457 -0.00642137 -0.0128624)
(-0.0564797 -0.0257328 -0.0130011)
(-0.0307 0.000692668 1.69363e-06)
(-0.0326785 0.000501506 1.18616e-06)
(-0.0340889 0.000342943 7.86414e-07)
(-0.0350516 0.000224627 4.97486e-07)
(-0.0356922 0.00014431 3.06199e-07)
(-0.0361201 9.53445e-05 1.90998e-07)
(-0.0364225 7.06439e-05 1.31199e-07)
(-0.0366663 6.45718e-05 1.1111e-07)
(-0.0369025 7.32946e-05 1.20047e-07)
(-0.0371707 9.42842e-05 1.51168e-07)
(-0.0375014 0.000125383 1.9967e-07)
(-0.0379147 0.000163621 2.60525e-07)
(-0.038416 0.000203861 3.26109e-07)
(-0.0389884 0.000237381 3.83753e-07)
(-0.0395813 0.000250677 4.12424e-07)
(-0.040098 0.000225103 3.78135e-07)
(-0.0403858 0.000138662 2.38369e-07)
(-0.0402344 -2.82561e-05 -3.33115e-08)
(-0.0393954 -0.000287516 -5.11299e-07)
(-0.0376283 -0.000627673 -1.23113e-06)
(-0.0802977 0.004396 -1.51327e-06)
(-0.0851897 0.00325182 -1.26386e-06)
(-0.0887066 0.00229212 -1.00059e-06)
(-0.0911412 0.00156108 -7.65641e-07)
(-0.0927911 0.00104936 -5.7396e-07)
(-0.0939147 0.000722319 -4.33028e-07)
(-0.0947172 0.000540562 -3.42541e-07)
(-0.0953549 0.000470195 -2.96714e-07)
(-0.0959448 0.000485154 -2.87431e-07)
(-0.0965734 0.000564959 -3.0524e-07)
(-0.0973004 0.00069012 -3.386e-07)
(-0.098157 0.000836327 -3.72198e-07)
(-0.0991362 0.000968148 -3.8514e-07)
(-0.100177 0.00103312 -3.49737e-07)
(-0.101145 0.000957953 -2.31918e-07)
(-0.101806 0.000649892 4.00469e-09)
(-0.101815 8.16484e-06 3.81337e-07)
(-0.10072 -0.00104988 8.9158e-07)
(-0.0980052 -0.00255055 1.50282e-06)
(-0.0931875 -0.00441118 2.0778e-06)
(-0.119569 0.0115032 -1.8768e-07)
(-0.12623 0.00849214 -3.25968e-07)
(-0.13091 0.00599027 -3.57694e-07)
(-0.134088 0.0040952 -3.40467e-07)
(-0.13621 0.00276963 -2.91447e-07)
(-0.137637 0.00191669 -2.33273e-07)
(-0.138644 0.00143101 -1.80441e-07)
(-0.139431 0.00122251 -1.3853e-07)
(-0.140141 0.00122081 -1.08245e-07)
(-0.140876 0.00136908 -8.76337e-08)
(-0.141701 0.0016128 -7.32699e-08)
(-0.142645 0.00188612 -6.07405e-08)
(-0.143691 0.00209755 -4.47538e-08)
(-0.144755 0.00211717 -1.87523e-08)
(-0.145662 0.00176924 2.59916e-08)
(-0.146115 0.000837114 9.68155e-08)
(-0.145675 -0.000909188 1.89712e-07)
(-0.143755 -0.0036539 2.98573e-07)
(-0.139668 -0.00743999 4.10786e-07)
(-0.132735 -0.0120556 3.49506e-07)
(-0.148966 0.0201379 -2.98311e-07)
(-0.156209 0.0146325 -4.7978e-07)
(-0.16102 0.0101718 -4.77017e-07)
(-0.164119 0.00686943 -4.24512e-07)
(-0.166091 0.00460108 -3.38416e-07)
(-0.167364 0.00315794 -2.50912e-07)
(-0.168231 0.0023357 -1.7818e-07)
(-0.168888 0.00196915 -1.22973e-07)
(-0.169466 0.00193351 -8.35875e-08)
(-0.170053 0.00213058 -5.69328e-08)
(-0.170704 0.00246836 -3.98e-08)
(-0.171443 0.00283819 -2.92479e-08)
(-0.172253 0.00309132 -2.24684e-08)
(-0.173062 0.00301732 -1.50493e-08)
(-0.17371 0.00232999 4.03267e-09)
(-0.173919 0.000670907 4.69727e-08)
(-0.173246 -0.00235177 1.0066e-07)
(-0.17105 -0.00707082 2.0202e-07)
(-0.166506 -0.0136003 3.96226e-07)
(-0.158683 -0.0216212 3.49935e-07)
(-0.168446 0.0290743 -8.08029e-07)
(-0.175011 0.0205239 -9.06082e-07)
(-0.178867 0.0138774 -7.35326e-07)
(-0.181057 0.00914387 -5.7554e-07)
(-0.182285 0.00599731 -4.05884e-07)
(-0.182985 0.00404412 -2.67333e-07)
(-0.183411 0.0029462 -1.7113e-07)
(-0.183706 0.00245191 -1.08893e-07)
(-0.183951 0.00238294 -7.13564e-08)
(-0.184197 0.00260641 -5.12854e-08)
(-0.184475 0.0030033 -4.36988e-08)
(-0.184802 0.00343623 -4.53094e-08)
(-0.185178 0.00371664 -5.36829e-08)
(-0.185571 0.00357277 -6.39339e-08)
(-0.185898 0.00262299 -5.70236e-08)
(-0.185977 0.000366079 -6.1042e-09)
(-0.185462 -0.00378699 4.79964e-08)
(-0.183753 -0.0104017 1.98832e-07)
(-0.179921 -0.0197977 6.98133e-07)
(-0.172665 -0.0316832 1.00273e-06)
(-0.177592 0.0370787 -1.72119e-06)
(-0.182065 0.0249889 -1.47142e-06)
(-0.183848 0.0161708 -9.24344e-07)
(-0.184378 0.0102487 -6.19513e-07)
(-0.184392 0.00650377 -3.6509e-07)
(-0.184235 0.0042687 -1.93136e-07)
(-0.184044 0.00304619 -9.60298e-08)
(-0.183857 0.00250258 -4.44408e-08)
(-0.183675 0.00242092 -1.91777e-08)
(-0.183494 0.00265195 -9.40831e-09)
(-0.183308 0.00307058 -9.83487e-09)
(-0.183124 0.00353621 -1.86341e-08)
(-0.182963 0.00385294 -3.59891e-08)
(-0.182856 0.00372705 -6.11969e-08)
(-0.182835 0.00272211 -7.63407e-08)
(-0.182893 0.000219194 -4.64997e-08)
(-0.182896 -0.00459203 -2.56339e-08)
(-0.182436 -0.0126251 1.09318e-07)
(-0.180602 -0.0246504 1.20269e-06)
(-0.17561 -0.0407404 2.54927e-06)
(-0.17546 0.0426564 -4.57305e-06)
(-0.176166 0.0267018 -3.02529e-06)
(-0.174813 0.0161539 -1.4021e-06)
(-0.17317 0.0096596 -7.31572e-07)
(-0.171772 0.00584214 -3.11591e-07)
(-0.170713 0.00369258 -9.71212e-08)
(-0.169925 0.00256737 -1.26414e-08)
(-0.169298 0.00208472 1.5207e-08)
(-0.16874 0.00202172 1.87749e-08)
(-0.168177 0.00224024 1.1239e-08)
(-0.167567 0.0026348 -3.02139e-09)
(-0.1669 0.00309112 -2.36664e-08)
(-0.166206 0.00344555 -5.17846e-08)
(-0.165572 0.00343718 -8.99018e-08)
(-0.165153 0.00264527 -1.18794e-07)
(-0.16516 0.000406093 -6.08285e-08)
(-0.165791 -0.00427842 7.19995e-08)
(-0.167056 -0.012758 3.63354e-07)
(-0.168408 -0.0266016 2.91052e-06)
(-0.167647 -0.0469611 7.00709e-06)
(-0.160052 0.0436214 -7.76426e-06)
(-0.155027 0.024065 -3.16203e-06)
(-0.149881 0.0130793 -6.45876e-07)
(-0.14613 0.00716049 -2.45451e-07)
(-0.143602 0.00403809 3.07974e-08)
(-0.141942 0.0024255 1.27972e-07)
(-0.140816 0.00163681 1.21235e-07)
(-0.13997 0.00132165 9.98277e-08)
(-0.139226 0.00130128 8.28658e-08)
(-0.138466 0.00147903 7.1048e-08)
(-0.137613 0.00179025 6.13383e-08)
(-0.136634 0.00216883 4.89513e-08)
(-0.135551 0.00251589 2.65281e-08)
(-0.134465 0.00265904 -2.63362e-08)
(-0.133603 0.00228673 -1.03322e-07)
(-0.133357 0.000832366 -3.35176e-08)
(-0.134284 -0.00271892 9.7018e-08)
(-0.137057 -0.0100559 -3.60863e-07)
(-0.142178 -0.0238534 2.57155e-06)
(-0.14784 -0.0477372 1.11908e-05)
(-0.126912 0.0373205 -9.69729e-06)
(-0.114427 0.0160653 4.29663e-06)
(-0.10626 0.00712092 4.81621e-06)
(-0.101684 0.00331123 2.06059e-06)
(-0.099056 0.00164841 1.06755e-06)
(-0.0975067 0.000914409 6.48629e-07)
(-0.0965279 0.000600239 4.08693e-07)
(-0.0958135 0.000496006 3.10457e-07)
(-0.0951789 0.000514996 2.98946e-07)
(-0.0945048 0.000619927 3.36738e-07)
(-0.0937106 0.000791659 4.04132e-07)
(-0.092748 0.0010131 4.84034e-07)
(-0.0916087 0.00125588 5.46694e-07)
(-0.0903515 0.00146063 5.15796e-07)
(-0.0891572 0.0014965 2.93861e-07)
(-0.0884229 0.00106864 -6.78911e-08)
(-0.0888382 -0.000505898 -1.2948e-06)
(-0.0916807 -0.00484841 -5.9882e-06)
(-0.0994081 -0.0154814 -8.13766e-06)
(-0.113405 -0.0403596 1.20827e-05)
(-0.0645878 0.0228405 -5.39221e-05)
(-0.0479988 0.00656003 -9.20016e-06)
(-0.0413937 0.00199457 -6.74612e-07)
(-0.0389972 0.000634712 -1.4785e-06)
(-0.0379396 0.000215265 -9.61638e-07)
(-0.0373991 8.86615e-05 -4.53333e-07)
(-0.0370773 5.55883e-05 -2.57652e-07)
(-0.0368331 5.57555e-05 -1.8338e-07)
(-0.0365924 7.2697e-05 -1.62875e-07)
(-0.0363066 0.000103308 -1.79142e-07)
(-0.0359364 0.000148507 -2.21522e-07)
(-0.0354472 0.000210337 -2.79535e-07)
(-0.0348112 0.000290444 -3.3816e-07)
(-0.0340148 0.000386931 -3.70946e-07)
(-0.0330804 0.000484039 -2.86934e-07)
(-0.0321214 0.000520154 1.6072e-07)
(-0.0314838 0.000271595 6.01465e-07)
(-0.0320812 -0.0011164 -1.99785e-06)
(-0.0375293 -0.00634706 3.95701e-06)
(-0.0564664 -0.0255375 6.82862e-05)
(-0.0307 0.000692668 -1.6973e-06)
(-0.0326785 0.000501505 -1.18923e-06)
(-0.0340889 0.000342942 -7.88964e-07)
(-0.0350516 0.000224627 -4.99631e-07)
(-0.0356922 0.00014431 -3.08051e-07)
(-0.0361201 9.53444e-05 -1.92618e-07)
(-0.0364225 7.06438e-05 -1.32584e-07)
(-0.0366663 6.45717e-05 -1.12235e-07)
(-0.0369025 7.32946e-05 -1.20933e-07)
(-0.0371707 9.42841e-05 -1.51884e-07)
(-0.0375014 0.000125383 -2.00268e-07)
(-0.0379147 0.000163622 -2.6102e-07)
(-0.038416 0.000203861 -3.26486e-07)
(-0.0389884 0.000237381 -3.83995e-07)
(-0.0395813 0.000250677 -4.12537e-07)
(-0.040098 0.000225103 -3.78149e-07)
(-0.0403858 0.000138662 -2.38295e-07)
(-0.0402344 -2.82561e-05 3.34947e-08)
(-0.0393954 -0.000287516 5.1162e-07)
(-0.0376283 -0.000627673 1.23157e-06)
(-0.0802977 0.004396 1.50927e-06)
(-0.0851897 0.00325182 1.26056e-06)
(-0.0887066 0.00229212 9.97873e-07)
(-0.0911412 0.00156108 7.63372e-07)
(-0.0927911 0.00104936 5.72015e-07)