/*--------------------------------*- C++ -*----------------------------------*\
| =========                 |                                                 |
| \\      /  F ield         | OpenFOAM: The Open Source CFD Toolbox           |
|  \\    /   O peration     | Version:  2.4.0                                 |
|   \\  /    A nd           | Web:      www.OpenFOAM.org                      |
|    \\/     M anipulation  |                                                 |
\*---------------------------------------------------------------------------*/
FoamFile
{
    version     2.0;
    format      ascii;
    class       surfaceScalarField;
    location    "0.2";
    object      phi;
}
// * * * * * * * * * * * * * * * * * * * * * * * * * * * * * * * * * * * * * //

dimensions      [0 3 -1 0 0 0 0];

internalField   nonuniform List<scalar> 
12720
(
-1.44451e-07
1.44436e-07
1.08385e-11
-8.16464e-07
6.70498e-07
1.51516e-09
-1.82263e-06
1.00453e-06
1.6403e-09
-2.98315e-06
1.15876e-06
1.75842e-09
-4.19801e-06
1.21302e-06
1.84103e-09
-5.41324e-06
1.21338e-06
1.84558e-09
-6.59233e-06
1.17728e-06
1.809e-09
-7.6998e-06
1.10576e-06
1.72139e-09
-8.69647e-06
9.95111e-07
1.55719e-09
8.47319e-07
1.29391e-09
-9.54509e-06
-6.77489e-07
8.23405e-07
-1.48057e-09
-2.30957e-06
2.30255e-06
3.00776e-11
-4.52087e-06
3.21698e-06
-1.15739e-09
-7.03652e-06
3.67585e-06
-1.43614e-09
-9.6795e-06
3.85746e-06
-1.46456e-09
-1.23385e-05
3.87391e-06
-1.47795e-09
-1.49295e-05
3.76968e-06
-1.42349e-09
-1.73695e-05
3.54705e-06
-1.31224e-09
-1.95696e-05
3.1964e-06
-1.17483e-09
2.72596e-06
-1.06259e-09
-2.14472e-05
-1.02471e-06
1.84977e-06
-1.65184e-09
-3.25579e-06
4.53236e-06
1.27454e-09
-6.1803e-06
6.14151e-06
-1.94748e-11
-9.47492e-06
6.97057e-06
-9.90814e-11
-1.29385e-05
7.32104e-06
5.11065e-11
-1.64409e-05
7.37621e-06
7.58888e-11
-1.98749e-05
7.20354e-06
9.8559e-11
-2.31245e-05
6.79658e-06
1.30265e-10
-2.60563e-05
6.12804e-06
1.50593e-10
5.20803e-06
7.75511e-11
-2.85385e-05
-1.19127e-06
3.04283e-06
-1.79046e-09
-3.74574e-06
7.08536e-06
1.46218e-09
-7.06083e-06
9.45655e-06
4.97479e-11
-1.07873e-05
1.06971e-05
-3.84262e-11
-1.4723e-05
1.12565e-05
1.62774e-10
-1.87394e-05
1.13925e-05
2.11284e-10
-2.27212e-05
1.1185e-05
2.51658e-10
-2.65232e-05
1.05983e-05
3.05148e-10
-2.99553e-05
9.55979e-06
3.79118e-10
8.06176e-06
3.06118e-10
-3.28093e-05
-1.253e-06
4.29771e-06
-1.88142e-09
-3.94786e-06
9.77872e-06
1.50292e-09
-7.44781e-06
1.29566e-05
-1.05923e-10
-1.1401e-05
1.46505e-05
-2.49271e-10
-1.56202e-05
1.54758e-05
-4.99859e-11
-1.99934e-05
1.57657e-05
7.69772e-12
-2.44074e-05
1.5599e-05
7.14304e-11
-2.86867e-05
1.48774e-05
1.72152e-10
-3.25597e-05
1.34324e-05
4.13188e-10
1.11874e-05
4.76014e-10
-3.56858e-05
-1.25524e-06
5.55483e-06
-1.88517e-09
-3.97231e-06
1.24943e-05
1.5201e-09
-7.52169e-06
1.65061e-05
-1.33638e-10
-1.15706e-05
1.86997e-05
-3.043e-10
-1.59616e-05
1.98669e-05
-1.22305e-10
-2.06143e-05
2.04184e-05
-7.24026e-11
-2.54318e-05
2.04166e-05
-1.61697e-11
-3.02108e-05
1.96562e-05
7.31338e-11
-3.4567e-05
1.7788e-05
5.72784e-10
1.45526e-05
1.00844e-09
-3.79332e-05
-1.21607e-06
6.77273e-06
-1.83947e-09
-3.86488e-06
1.51416e-05
1.46659e-09
-7.3522e-06
1.99936e-05
-1.55129e-10
-1.13801e-05
2.27279e-05
-3.47221e-10
-1.58324e-05
2.43194e-05
-2.02888e-10
-2.06755e-05
2.52617e-05
-1.76326e-10
-2.58493e-05
2.55906e-05
-1.6065e-10
-3.11391e-05
2.49462e-05
-2.08023e-10
-3.60295e-05
2.26778e-05
7.36644e-10
1.81143e-05
2.31014e-09
-3.95935e-05
-1.13727e-06
7.91174e-06
-1.73345e-09
-3.6293e-06
1.76323e-05
1.3576e-09
-6.93448e-06
2.32989e-05
-1.74379e-10
-1.07946e-05
2.65884e-05
-3.83939e-10
-1.51347e-05
2.86599e-05
-2.92085e-10
-1.99723e-05
3.00995e-05
-2.7589e-10
-2.53029e-05
3.09215e-05
-2.49576e-10
-3.09369e-05
3.05806e-05
-4.82432e-10
-3.62583e-05
2.79974e-05
1.78056e-09
2.16755e-05
8.13476e-09
-3.98276e-05
-1.01581e-06
8.92909e-06
-1.5425e-09
-3.25668e-06
1.98719e-05
1.2258e-09
-6.24037e-06
2.62828e-05
-1.65271e-10
-9.7368e-06
3.00852e-05
-4.0274e-10
-1.36879e-05
3.26115e-05
-4.37442e-10
-1.81331e-05
3.45453e-05
-5.89471e-10
-2.31085e-05
3.58978e-05
-9.07309e-10
-2.84777e-05
3.59524e-05
-2.62557e-09
-3.36529e-05
3.3173e-05
-4.22424e-10
2.46441e-05
1.77601e-08
-3.66393e-05
-8.54447e-07
-1.24972e-09
9.78479e-06
-2.75588e-06
1.11534e-09
2.17723e-05
-5.27783e-06
-6.39803e-11
2.88048e-05
-8.18969e-06
-2.78057e-10
3.29973e-05
-1.13928e-05
-4.17875e-10
3.5815e-05
-1.48544e-05
-8.56603e-10
3.80077e-05
-1.85226e-05
-2.05549e-09
3.9568e-05
-2.21647e-05
-8.1808e-09
3.96028e-05
-2.51286e-05
-1.7201e-08
3.61541e-05
1.99228e-09
-2.60735e-05
2.5587e-05
-1.43972e-07
1.43982e-07
7.13214e-13
-8.16819e-07
6.74363e-07
6.82437e-13
-1.82283e-06
1.00765e-06
8.81688e-13
-2.98309e-06
1.16202e-06
8.05881e-13
-4.19789e-06
1.21664e-06
5.11425e-13
-5.41313e-06
1.21708e-06
2.59716e-13
-6.59224e-06
1.18092e-06
1.03287e-13
-7.69975e-06
1.10923e-06
-5.67906e-15
-8.69649e-06
9.98296e-07
-2.19201e-14
8.4997e-07
-1.80469e-14
-9.54517e-06
-6.81306e-07
8.23806e-07
1.26945e-12
-2.31148e-06
2.30456e-06
1.12553e-12
-4.5222e-06
3.21722e-06
1.23127e-12
-7.03728e-06
3.67567e-06
1.11954e-12
-9.6796e-06
3.8575e-06
8.56683e-13
-1.23381e-05
3.87414e-06
6.56902e-13
-1.49287e-05
3.77008e-06
5.04775e-13
-1.73685e-05
3.54764e-06
3.74465e-13
-1.95685e-05
3.19715e-06
2.96429e-13
2.7265e-06
2.84454e-13
-2.14461e-05
-1.02787e-06
1.85003e-06
1.24754e-12
-3.2559e-06
4.53386e-06
1.09109e-12
-6.1804e-06
6.1417e-06
1.18055e-12
-9.47515e-06
6.97031e-06
1.12206e-12
-1.29385e-05
7.32091e-06
9.65422e-13
-1.64406e-05
7.3763e-06
9.04884e-13
-1.98743e-05
7.20393e-06
7.94195e-13
-2.31239e-05
6.79735e-06
7.17178e-13
-2.60559e-05
6.12926e-06
5.98244e-13
5.20896e-06
5.35168e-13
-2.85383e-05
-1.19458e-06
3.04282e-06
1.40555e-12
-3.74544e-06
7.08618e-06
1.17473e-12
-7.06049e-06
9.4568e-06
1.25269e-12
-1.07873e-05
1.06971e-05
1.23495e-12
-1.47228e-05
1.12566e-05
1.17129e-12
-1.87391e-05
1.13928e-05
1.12316e-12
-2.27206e-05
1.11857e-05
1.03199e-12
-2.65226e-05
1.05996e-05
8.96792e-13
-2.99551e-05
9.56218e-06
7.95503e-13
8.06393e-06
6.91301e-13
-3.28098e-05
-1.25666e-06
4.29759e-06
1.77892e-12
-3.94778e-06
9.77881e-06
1.54803e-12
-7.4476e-06
1.29565e-05
1.51951e-12
-1.14011e-05
1.46503e-05
1.43212e-12
-1.56201e-05
1.54756e-05
1.33853e-12
-1.99931e-05
1.57657e-05
1.23925e-12
-2.44067e-05
1.55995e-05
1.12956e-12
-2.86858e-05
1.48788e-05
9.85829e-13
-3.25594e-05
1.34362e-05
8.84165e-13
1.11919e-05
7.51166e-13
-3.56869e-05
-1.25899e-06
5.55469e-06
2.05978e-12
-3.97243e-06
1.24938e-05
1.84873e-12
-7.52172e-06
1.65057e-05
1.69216e-12
-1.15709e-05
1.86992e-05
1.54921e-12
-1.59618e-05
1.98664e-05
1.40374e-12
-2.06142e-05
2.04181e-05
1.26594e-12
-2.54313e-05
2.04166e-05
1.13751e-12
-3.02096e-05
1.96572e-05
1.04513e-12
-3.45664e-05
1.77936e-05
8.92963e-13
1.4562e-05
7.25216e-13
-3.79355e-05
-1.21975e-06
6.7726e-06
2.22194e-12
-3.86518e-06
1.51407e-05
2.03567e-12
-7.35255e-06
1.99929e-05
1.81701e-12
-1.13809e-05
2.27272e-05
1.58681e-12
-1.58333e-05
2.43185e-05
1.42257e-12
-2.06761e-05
2.52607e-05
1.32191e-12
-2.58493e-05
2.55896e-05
1.19029e-12
-3.11376e-05
2.49453e-05
1.0421e-12
-3.60282e-05
2.26849e-05
8.40278e-13
1.81344e-05
6.29077e-13
-3.95983e-05
-1.14076e-06
7.91162e-06
2.27069e-12
-3.62977e-06
1.7631e-05
2.04385e-12
-6.93518e-06
2.32981e-05
1.7614e-12
-1.0796e-05
2.65876e-05
1.6164e-12
-1.51365e-05
2.86587e-05
1.50894e-12
-1.9974e-05
3.0098e-05
1.36814e-12
-2.53038e-05
3.09192e-05
1.21207e-12
-3.09346e-05
3.05756e-05
1.01796e-12
-3.62504e-05
2.80025e-05
8.37561e-13
2.17259e-05
6.25934e-13
-3.98338e-05
-1.01895e-06
8.92903e-06
2.03258e-12
-3.25723e-06
1.98705e-05
1.8693e-12
-6.2414e-06
2.62821e-05
1.69526e-12
-9.73899e-06
3.00847e-05
1.60397e-12
-1.36915e-05
3.26108e-05
1.53471e-12
-1.81385e-05
3.45444e-05
1.40488e-12
-2.31164e-05
3.58962e-05
1.22366e-12
-2.84866e-05
3.59432e-05
1.02979e-12
-3.36374e-05
3.31528e-05
9.06922e-13
2.47181e-05
7.54068e-13
-3.66118e-05
-8.56992e-07
1.72161e-12
9.78477e-06
-2.75617e-06
1.61698e-12
2.17708e-05
-5.27847e-06
1.57007e-12
2.88043e-05
-8.19151e-06
1.54574e-12
3.29975e-05
-1.13969e-05
1.47606e-12
3.58158e-05
-1.48629e-05
1.35496e-12
3.80096e-05
-1.85413e-05
1.25235e-12
3.95726e-05
-2.2216e-05
1.1535e-12
3.96097e-05
-2.52069e-05
1.03095e-12
3.61265e-05
9.28846e-13
-2.59389e-05
2.5452e-05
-1.43971e-07
1.43983e-07
-1.05047e-11
-8.16818e-07
6.74363e-07
-1.5146e-09
-1.82282e-06
1.00765e-06
-1.63969e-09
-2.98309e-06
1.16202e-06
-1.75788e-09
-4.19789e-06
1.21664e-06
-1.84048e-09
-5.41312e-06
1.21708e-06
-1.8451e-09
-6.59223e-06
1.18092e-06
-1.80864e-09
-7.69974e-06
1.10923e-06
-1.72109e-09
-8.69648e-06
9.98295e-07
-1.55701e-09
8.4997e-07
-1.29377e-09
-9.54516e-06
-6.81305e-07
8.23806e-07
1.48233e-09
-2.31147e-06
2.30456e-06
-2.8604e-11
-4.52219e-06
3.21721e-06
1.15865e-09
-7.03727e-06
3.67566e-06
1.43714e-09
-9.67958e-06
3.85749e-06
1.46549e-09
-1.23381e-05
3.87414e-06
1.47876e-09
-1.49287e-05
3.77008e-06
1.42418e-09
-1.73684e-05
3.54764e-06
1.31282e-09
-1.95685e-05
3.19715e-06
1.1753e-09
2.72649e-06
1.06298e-09
-2.1446e-05
-1.02787e-06
1.85003e-06
1.65411e-09
-3.25589e-06
4.53386e-06
-1.2723e-09
-6.18039e-06
6.14169e-06
2.11563e-11
-9.47513e-06
6.9703e-06
1.00513e-10
-1.29385e-05
7.3209e-06
-4.97956e-11
-1.64406e-05
7.37629e-06
-7.47532e-11
-1.98743e-05
7.20392e-06
-9.75196e-11
-2.31239e-05
6.79734e-06
-1.29397e-10
-2.60558e-05
6.12926e-06
-1.49836e-10
5.20896e-06
-7.69102e-11
-2.85382e-05
-1.19458e-06
3.04281e-06
1.79307e-09
-3.74543e-06
7.08617e-06
-1.4598e-09
-7.06048e-06
9.45678e-06
-4.77203e-11
-1.07873e-05
1.0697e-05
4.01895e-11
-1.47228e-05
1.12566e-05
-1.61192e-10
-1.87391e-05
1.13928e-05
-2.09853e-10
-2.27206e-05
1.11857e-05
-2.50363e-10
-2.65225e-05
1.05996e-05
-3.04008e-10
-2.99551e-05
9.56217e-06
-3.78144e-10
8.06392e-06
-3.05266e-10
-3.28097e-05
-1.25666e-06
4.29759e-06
1.88419e-09
-3.94778e-06
9.7788e-06
-1.50033e-09
-7.44759e-06
1.29565e-05
1.08163e-10
-1.14011e-05
1.46503e-05
2.51263e-10
-1.56201e-05
1.54756e-05
5.17748e-11
-1.9993e-05
1.57657e-05
-6.06012e-12
-2.44067e-05
1.55995e-05
-6.99553e-11
-2.86857e-05
1.48788e-05
-1.70834e-10
-3.25593e-05
1.34362e-05
-4.12051e-10
1.11919e-05
-4.75028e-10
-3.56868e-05
-1.25898e-06
5.55468e-06
1.8881e-09
-3.97242e-06
1.24938e-05
-1.51733e-09
-7.52171e-06
1.65056e-05
1.36091e-10
-1.15709e-05
1.86992e-05
3.06446e-10
-1.59618e-05
1.98663e-05
1.24221e-10
-2.06142e-05
2.0418e-05
7.41729e-11
-2.54313e-05
2.04165e-05
1.77992e-11
-3.02096e-05
1.96571e-05
-7.17128e-11
-3.45664e-05
1.77936e-05
-5.71549e-10
1.4562e-05
-1.00744e-09
-3.79355e-05
-1.21974e-06
6.77259e-06
1.84248e-09
-3.86517e-06
1.51406e-05
-1.46375e-09
-7.35253e-06
1.99928e-05
1.57597e-10
-1.13809e-05
2.27271e-05
3.49435e-10
-1.58332e-05
2.43185e-05
2.04928e-10
-2.06761e-05
2.52607e-05
1.7821e-10
-2.58493e-05
2.55896e-05
1.62364e-10
-3.11376e-05
2.49453e-05
2.09494e-10
-3.60282e-05
2.26849e-05
-7.35457e-10
1.81343e-05
-2.30924e-09
-3.95983e-05
-1.14076e-06
7.91161e-06
1.73633e-09
-3.62976e-06
1.7631e-05
-1.35487e-09
-6.93517e-06
2.32981e-05
1.76843e-10
-1.07959e-05
2.65875e-05
3.86185e-10
-1.51364e-05
2.86587e-05
2.942e-10
-1.9974e-05
3.00979e-05
2.77862e-10
-2.53038e-05
3.09192e-05
2.51287e-10
-3.09346e-05
3.05756e-05
4.83849e-10
-3.62504e-05
2.80025e-05
-1.77946e-09
2.17259e-05
-8.13394e-09
-3.98338e-05
-1.01894e-06
8.92901e-06
1.54517e-09
-3.25723e-06
1.98705e-05
-1.22328e-09
-6.24139e-06
2.62821e-05
1.67602e-10
-9.73897e-06
3.00847e-05
4.04974e-10
-1.36915e-05
3.26108e-05
4.39555e-10
-1.81385e-05
3.45444e-05
5.9136e-10
-2.31164e-05
3.58962e-05
9.08964e-10
-2.84866e-05
3.59432e-05
2.62702e-09
-3.36374e-05
3.31528e-05
4.23635e-10
2.47181e-05
-1.77592e-08
-3.66118e-05
-8.56991e-07
1.252e-09
9.78475e-06
-2.75617e-06
-1.11309e-09
2.17708e-05
-5.27847e-06
6.61479e-11
2.88043e-05
-8.1915e-06
2.80147e-10
3.29975e-05
-1.13968e-05
4.19828e-10
3.58157e-05
-1.48629e-05
8.58375e-10
3.80095e-05
-1.85413e-05
2.05714e-09
3.95726e-05
-2.2216e-05
8.18238e-09
3.96097e-05
-2.5207e-05
1.72025e-08
3.61265e-05
-1.99102e-09
-2.59389e-05
2.5452e-05
-1.4445e-07
1.4444e-07
-8.16461e-07
6.705e-07
-1.82263e-06
1.00453e-06
-2.98314e-06
1.15875e-06
-4.198e-06
1.21302e-06
-5.41322e-06
1.21338e-06
-6.59231e-06
1.17728e-06
-7.69978e-06
1.10575e-06
-8.69644e-06
9.95108e-07
8.47318e-07
-9.54506e-06
-6.77487e-07
8.23406e-07
-2.30956e-06
2.30254e-06
-4.52085e-06
3.21697e-06
-7.0365e-06
3.67584e-06
-9.67946e-06
3.85745e-06
-1.23385e-05
3.8739e-06
-1.49295e-05
3.76967e-06
-1.73695e-05
3.54705e-06
-1.95696e-05
3.1964e-06
2.72596e-06
-2.14471e-05
-1.02471e-06
1.84976e-06
-3.25578e-06
4.53235e-06
-6.18027e-06
6.14149e-06
-9.47488e-06
6.97055e-06
-1.29385e-05
7.32101e-06
-1.64409e-05
7.37618e-06
-1.98748e-05
7.20352e-06
-2.31244e-05
6.79656e-06
-2.60562e-05
6.12802e-06
5.20802e-06
-2.85384e-05
-1.19127e-06
3.04282e-06
-3.74572e-06
7.08534e-06
-7.06079e-06
9.45652e-06
-1.07872e-05
1.0697e-05
-1.47229e-05
1.12565e-05
-1.87394e-05
1.13924e-05
-2.27211e-05
1.1185e-05
-2.65231e-05
1.05982e-05
-2.99552e-05
9.55976e-06
8.06174e-06
-3.28092e-05
-1.25299e-06
4.2977e-06
-3.94784e-06
9.77869e-06
-7.44777e-06
1.29566e-05
-1.14009e-05
1.46505e-05
-1.56201e-05
1.54757e-05
-1.99933e-05
1.57656e-05
-2.44073e-05
1.55989e-05
-2.86866e-05
1.48774e-05
-3.25596e-05
1.34324e-05
1.11873e-05
-3.56857e-05
-1.25523e-06
5.55481e-06
-3.97229e-06
1.24942e-05
-7.52166e-06
1.65061e-05
-1.15705e-05
1.86996e-05
-1.59615e-05
1.98668e-05
-2.06142e-05
2.04184e-05
-2.54318e-05
2.04165e-05
-3.02107e-05
1.96562e-05
-3.45669e-05
1.7788e-05
1.45526e-05
-3.79331e-05
-1.21606e-06
6.77271e-06
-3.86486e-06
1.51416e-05
-7.35217e-06
1.99935e-05
-1.138e-05
2.27278e-05
-1.58324e-05
2.43194e-05
-2.06754e-05
2.52616e-05
-2.58493e-05
2.55905e-05
-3.1139e-05
2.49461e-05
-3.60295e-05
2.26777e-05
1.81143e-05
-3.95934e-05
-1.13727e-06
7.91172e-06
-3.62929e-06
1.76322e-05
-6.93446e-06
2.32989e-05
-1.07945e-05
2.65883e-05
-1.51347e-05
2.86598e-05
-1.99722e-05
3.00994e-05
-2.53029e-05
3.09215e-05
-3.09369e-05
3.05806e-05
-3.62583e-05
2.79974e-05
2.16755e-05
-3.98276e-05
-1.0158e-06
8.92907e-06
-3.25667e-06
1.98719e-05
-6.24035e-06
2.62827e-05
-9.73677e-06
3.00851e-05
-1.36879e-05
3.26114e-05
-1.81331e-05
3.45452e-05
-2.31085e-05
3.58978e-05
-2.84777e-05
3.59524e-05
-3.36529e-05
3.3173e-05
2.46441e-05
-3.66393e-05
-8.54443e-07
9.78476e-06
-2.75587e-06
2.17722e-05
-5.27782e-06
2.88047e-05
-8.18967e-06
3.29972e-05
-1.13928e-05
3.58149e-05
-1.48544e-05
3.80077e-05
-1.85226e-05
3.9568e-05
-2.21647e-05
3.96028e-05
-2.51287e-05
3.61541e-05
-2.60735e-05
2.5587e-05
-1.02239e-05
6.7783e-07
9.57056e-10
-1.07373e-05
5.12737e-07
6.5908e-10
-1.11084e-05
3.70675e-07
4.33837e-10
-1.13672e-05
2.58575e-07
2.74269e-10
-1.15429e-05
1.75455e-07
1.68069e-10
-1.16595e-05
1.1652e-07
1.00828e-10
-1.17355e-05
7.59888e-08
5.96671e-11
-1.17841e-05
4.8538e-08
3.51106e-11
-1.18139e-05
2.97584e-08
2.06236e-11
-1.183e-05
1.60799e-08
1.16672e-11
-1.18345e-05
4.49512e-09
5.15665e-12
-1.18265e-05
-7.96253e-09
-6.45757e-13
-1.18021e-05
-2.43908e-08
-1.00546e-11
-1.17533e-05
-4.87759e-08
-2.68961e-11
-1.16671e-05
-8.61888e-08
-5.73603e-11
-1.15239e-05
-1.42997e-07
-1.11381e-10
-1.12974e-05
-2.26365e-07
-2.03545e-10
-1.09545e-05
-3.42526e-07
-3.51605e-10
-1.04606e-05
-4.93363e-07
-5.74395e-10
-6.71405e-07
-8.87041e-10
-9.78827e-06
-2.29544e-05
2.186e-06
-1.00407e-09
-2.41012e-05
1.6604e-06
-8.82699e-10
-2.49376e-05
1.20784e-06
-7.22562e-10
-2.5528e-05
8.49542e-07
-5.63383e-10
-2.59342e-05
5.82085e-07
-4.20556e-10
-2.62078e-05
3.90395e-07
-3.02036e-10
-2.6388e-05
2.56449e-07
-2.09409e-10
-2.6503e-05
1.63633e-07
-1.39258e-10
-2.65712e-05
9.80725e-08
-8.59635e-11
-2.66035e-05
4.84037e-08
-4.31054e-11
-2.66039e-05
4.85521e-09
-4.04744e-12
-2.657e-05
-4.18882e-08
3.70434e-11
-2.64924e-05
-1.02046e-07
8.8726e-11
-2.63533e-05
-1.87987e-07
1.586e-10
-2.61244e-05
-3.15377e-07
2.54419e-10
-2.57642e-05
-5.03561e-07
3.82205e-10
-2.52171e-05
-7.74055e-07
5.42325e-10
-2.4415e-05
-1.14536e-06
7.27473e-10
-2.32866e-05
-1.62263e-06
9.17106e-10
-2.18231e-06
1.0561e-09
-2.17768e-05
-3.04932e-05
4.14088e-06
-1.6105e-10
-3.19455e-05
3.11297e-06
-2.51804e-10
-3.29808e-05
2.24338e-06
-2.52883e-10
-3.36976e-05
1.56653e-06
-2.26361e-10
-3.41835e-05
1.06818e-06
-1.84329e-10
-3.45072e-05
7.14313e-07
-1.39675e-10
-3.47188e-05
4.68103e-07
-1.00515e-10
-3.48524e-05
2.97306e-07
-6.87235e-11
-3.49301e-05
1.75853e-07
-4.34821e-11
-3.49645e-05
8.28265e-08
-2.27601e-11
-3.49601e-05
4.61035e-10
-3.69379e-12
-3.4914e-05
-8.80723e-08
1.50813e-11
-3.48148e-05
-2.01271e-07
3.81977e-11
-3.46412e-05
-3.61662e-07
6.82458e-11
-3.43584e-05
-5.9826e-07
1.07704e-10
-3.39142e-05
-9.47902e-07
1.56828e-10
-3.32351e-05
-1.45338e-06
2.09483e-10
-3.22261e-05
-2.15457e-06
2.56222e-10
-3.07806e-05
-3.06844e-06
2.82739e-10
-4.15549e-06
1.99575e-10
-2.88076e-05
-3.49564e-05
6.28813e-06
-1.86392e-10
-3.646e-05
4.61684e-06
-3.02572e-10
-3.7469e-05
3.25269e-06
-2.72233e-10
-3.813e-05
2.22777e-06
-2.30044e-10
-3.85576e-05
1.49598e-06
-1.76478e-10
-3.88322e-05
9.88997e-07
-1.25701e-10
-3.90066e-05
6.42576e-07
-8.58319e-11
-3.91143e-05
4.05123e-07
-5.61544e-11
-3.91758e-05
2.37381e-07
-3.41887e-11
-3.92022e-05
1.09185e-07
-1.72826e-11
-3.91974e-05
-4.34088e-09
-2.8673e-12
-3.91589e-05
-1.26515e-07
1.2296e-11
-3.90772e-05
-2.83076e-07
3.06606e-11
-3.89327e-05
-5.06206e-07
5.57864e-11
-3.86919e-05
-8.39087e-07
9.20669e-11
-3.83001e-05
-1.33987e-06
1.43128e-10
-3.76718e-05
-2.08187e-06
2.04067e-10
-3.66837e-05
-3.14295e-06
2.71207e-10
-3.51782e-05
-4.57432e-06
3.52548e-10
-6.33574e-06
2.60296e-10
-3.29982e-05
-3.78354e-05
8.43833e-06
-5.37771e-10
-3.91671e-05
5.94907e-06
-5.75322e-10
-3.9948e-05
4.034e-06
-4.1293e-10
-4.03942e-05
2.67427e-06
-3.10673e-10
-4.06479e-05
1.74992e-06
-2.13263e-10
-4.07934e-05
1.13465e-06
-1.35416e-10
-4.08777e-05
7.27001e-07
-8.36242e-11
-4.09265e-05
4.53907e-07
-5.01698e-11
-4.09532e-05
2.64182e-07
-2.83359e-11
-4.09649e-05
1.2088e-07
-1.33416e-11
-4.09641e-05
-5.18718e-09
-1.43593e-12
-4.09497e-05
-1.40861e-07
1.0272e-11
-4.09167e-05
-3.16111e-07
2.56801e-11
-4.08531e-05
-5.69895e-07
4.95087e-11
-4.07344e-05
-9.5786e-07
8.99791e-11
-4.05129e-05
-1.56149e-06
1.57965e-10
-4.00998e-05
-2.49528e-06
2.49489e-10
-3.93421e-05
-3.90095e-06
3.71943e-10
-3.80078e-05
-5.90929e-06
6.24733e-10
-8.52955e-06
6.6112e-10
-3.58146e-05
-3.98698e-05
1.03762e-05
-1.32351e-09
-4.07706e-05
6.85088e-06
-1.00359e-09
-4.1114e-05
4.37795e-06
-5.35506e-10
-4.12024e-05
2.76303e-06
-3.55463e-10
-4.11927e-05
1.74036e-06
-2.11086e-10
-4.11555e-05
1.09759e-06
-1.10879e-10
-4.11185e-05
6.90034e-07
-5.65587e-11
-4.10904e-05
4.25869e-07
-2.78873e-11
-4.10732e-05
2.4694e-07
-1.27589e-11
-4.10667e-05
1.14458e-07
-4.57899e-12
-4.10713e-05
-5.7005e-10
8.10278e-13
-4.10882e-05
-1.24016e-07
3.8715e-12
-4.1119e-05
-2.85315e-07
9.85725e-12
-4.11643e-05
-5.2464e-07
2.30631e-11
-4.12179e-05
-9.0427e-07
5.50402e-11
-4.1254e-05
-1.5255e-06
1.26908e-10
-4.11994e-05
-2.55018e-06
2.30629e-10
-4.08863e-05
-4.21441e-06
3.93837e-10
-3.99905e-05
-6.80614e-06
1.01542e-09
-1.05149e-05
1.55355e-09
-3.80067e-05
-4.09419e-05
1.17282e-05
-3.65764e-09
-4.10504e-05
6.96153e-06
-2.12897e-09
-4.07338e-05
4.06226e-06
-8.5166e-10
-4.03557e-05
2.38536e-06
-4.7372e-10
-4.00391e-05
1.42399e-06
-2.25436e-10
-3.98069e-05
8.65496e-07
-8.55681e-11
-3.96484e-05
5.31531e-07
-2.85489e-11
-3.95466e-05
3.24106e-07
-6.05159e-12
-3.94878e-05
1.88139e-07
2.20691e-12
-3.94636e-05
9.02102e-08
4.29771e-12
-3.94711e-05
6.92807e-09
3.90316e-12
-3.95135e-05
-8.15915e-08
2.17618e-12
-3.96002e-05
-1.98663e-07
1.98402e-12
-3.9747e-05
-3.77825e-07
7.39043e-12
-3.99746e-05
-6.76675e-07
3.56634e-11
-4.02986e-05
-1.20165e-06
1.3221e-10
-4.06988e-05
-2.15032e-06
2.92602e-10
-4.10462e-05
-3.86751e-06
5.69738e-10
-4.09546e-05
-6.89982e-06
2.08304e-09
-1.19075e-05
4.10862e-09
-3.95662e-05
-3.98351e-05
1.17423e-05
-6.55603e-09
-3.86796e-05
5.80836e-06
-2.33244e-09
-3.75496e-05
2.93257e-06
-3.64835e-10
-3.67082e-05
1.54418e-06
-2.17055e-10
-3.6138e-05
8.53881e-07
-4.14469e-11
-3.57673e-05
4.94755e-07
4.25339e-11
-3.55319e-05
2.96093e-07
4.61589e-11
-3.53868e-05
1.78968e-07
3.6115e-11
-3.53038e-05
1.05085e-07
2.65926e-11
-3.52673e-05
5.37279e-08
1.78171e-11
-3.5272e-05
1.15866e-08
9.60382e-12
-3.53214e-05
-3.2229e-08
4.66549e-12
-3.54298e-05
-9.02488e-08
-3.70441e-12
-3.56254e-05
-1.8218e-07
-1.82694e-11
-3.59557e-05
-3.46317e-07
-2.68382e-11
-3.64913e-05
-6.66167e-07
3.6022e-11
-3.73135e-05
-1.32821e-06
1.10991e-10
-3.84475e-05
-2.73353e-06
2.18399e-12
-3.96229e-05
-5.72651e-06
2.08675e-09
-1.19373e-05
6.98558e-09
-3.96e-05
-3.37011e-05
8.81317e-06
-9.17259e-09
-3.09683e-05
3.07287e-06
2.72615e-09
-2.92382e-05
1.19928e-06
3.22701e-09
-2.82168e-05
5.21534e-07
1.23804e-09
-2.76169e-05
2.53348e-07
6.46208e-10
-2.72597e-05
1.37101e-07
4.05792e-10
-2.70441e-05
8.02537e-08
2.33758e-10
-2.69142e-05
4.89473e-08
1.35556e-10
-2.68392e-05
3.00422e-08
8.14024e-11
-2.68031e-05
1.7576e-08
4.66894e-11
-2.67998e-05
8.2363e-09
2.03599e-11
-2.68311e-05
-9.14115e-10
-3.13055e-12
-2.69093e-05
-1.19723e-08
-4.1199e-11
-2.70612e-05
-3.01702e-08
-1.19887e-10
-2.73402e-05
-6.71196e-08
-2.6843e-10
-2.78492e-05
-1.56681e-07
-4.7221e-10
-2.87788e-05
-3.97487e-07
-1.11834e-09
-3.04398e-05
-1.06894e-06
-3.60309e-09
-3.31579e-05
-3.00476e-06
-3.57332e-09
-8.95406e-06
9.48982e-09
-3.61507e-05
-1.72199e-05
-4.04105e-08
-1.41422e-05
-4.81531e-09
-1.2943e-05
7.82664e-11
-1.24205e-05
-9.76387e-10
-1.21665e-05
-6.29237e-10
-1.20292e-05
-2.78822e-10
-1.19487e-05
-1.47148e-10
-1.18997e-05
-8.35315e-11
-1.18696e-05
-4.41926e-11
-1.1852e-05
-1.85757e-11
-1.18438e-05
9.15022e-13
-1.18447e-05
1.93696e-11
-1.18568e-05
5.04665e-11
-1.1887e-05
9.84327e-11
-1.19544e-05
2.07511e-10
-1.21116e-05
5.60757e-10
-1.251e-05
8.99565e-10
-1.35783e-05
-6.45409e-10
-1.65868e-05
3.7146e-09
4.4021e-08
-2.55848e-05
-1.02239e-05
6.79695e-07
4.13791e-14
-1.07372e-05
5.13994e-07
1.35801e-13
-1.11083e-05
3.7152e-07
1.85123e-13
-1.13672e-05
2.59129e-07
1.48716e-13
-1.15428e-05
1.75813e-07
8.81854e-14
-1.16595e-05
1.1675e-07
2.96241e-14
-1.17356e-05
7.61352e-08
-1.27795e-14
-1.17841e-05
4.86305e-08
-1.76661e-14
-1.18139e-05
2.98153e-08
-5.19507e-14
-1.183e-05
1.61118e-08
-8.3927e-14
-1.18345e-05
4.50075e-09
-1.23934e-13
-1.18266e-05
-7.97297e-09
-1.3642e-13
-1.18021e-05
-2.44341e-08
-1.60583e-13
-1.17533e-05
-4.88657e-08
-2.15711e-13
-1.1667e-05
-8.63505e-08
-2.27274e-13
-1.15239e-05
-1.43271e-07
-1.50003e-13
-1.12972e-05
-2.26814e-07
2.06202e-15
-1.09544e-05
-3.43236e-07
1.42951e-13
-1.04605e-05
-4.94456e-07
2.36556e-13
-6.73115e-07
3.18648e-13
-9.78825e-06
-2.29531e-05
2.18572e-06
2.87641e-13
-2.40998e-05
1.65984e-06
3.09713e-13
-2.49364e-05
1.20735e-06
2.75914e-13
-2.5527e-05
8.49187e-07
1.96438e-13
-2.59335e-05
5.81854e-07
1.05609e-13
-2.62073e-05
3.9026e-07
3.37035e-14
-2.63877e-05
2.56376e-07
8.02673e-15
-2.65028e-05
1.63594e-07
-8.66909e-15
-2.65711e-05
9.80487e-08
-5.95554e-14
-2.66035e-05
4.83841e-08
-7.21573e-14
-2.66038e-05
4.83737e-09
-1.11054e-13
-2.65698e-05
-4.19085e-08
-1.79194e-13
-2.64921e-05
-1.0206e-07
-2.43782e-13
-2.63528e-05
-1.87978e-07
-2.93608e-13
-2.61236e-05
-3.15312e-07
-2.86669e-13
-2.57631e-05
-5.03391e-07
-2.06135e-13
-2.52157e-05
-7.73721e-07
-9.3848e-14
-2.44134e-05
-1.1448e-06
-1.01829e-14
-2.32851e-05
-1.62186e-06
3.2457e-14
-2.18175e-06
8.55877e-14
-2.17754e-05
-3.04927e-05
4.13994e-06
4.632e-13
-3.19447e-05
3.11161e-06
4.12125e-13
-3.29799e-05
2.24235e-06
3.25372e-13
-3.36968e-05
1.56584e-06
2.2277e-13
-3.41829e-05
1.06776e-06
1.34387e-13
-3.45069e-05
7.14089e-07
4.58668e-14
-3.47186e-05
4.67993e-07
1.50966e-14
-3.48523e-05
2.97252e-07
-4.70311e-14
-3.49301e-05
1.7582e-07
-1.05928e-13
-3.49646e-05
8.27938e-08
-1.12281e-13
-3.49601e-05
4.23213e-10
-1.35198e-13
-3.49139e-05
-8.81267e-08
-1.90818e-13
-3.48146e-05
-2.01326e-07
-2.5392e-13
-3.46408e-05
-3.61688e-07
-2.97936e-13
-3.43578e-05
-5.98201e-07
-3.0548e-13
-3.39134e-05
-9.4766e-07
-2.55346e-13
-3.32341e-05
-1.45284e-06
-1.68075e-13
-3.22251e-05
-2.15355e-06
-9.93185e-14
-3.07798e-05
-3.06687e-06
-6.75186e-14
-4.15419e-06
-1.60686e-14
-2.88072e-05
-3.49561e-05
6.28608e-06
5.98432e-13
-3.64591e-05
4.61434e-06
4.6432e-13
-3.74681e-05
3.25105e-06
3.4118e-13
-3.81293e-05
2.22677e-06
1.98092e-13
-3.85571e-05
1.49543e-06
1.36058e-13
-3.88319e-05
9.8873e-07
6.26471e-14
-3.90064e-05
6.42462e-07
2.06148e-14
-3.91143e-05
4.05077e-07
-5.36611e-14
-3.91759e-05
2.37353e-07
-1.17102e-13
-3.92022e-05
1.0915e-07
-1.33478e-13
-3.91974e-05
-4.39273e-09
-1.73012e-13
-3.9159e-05
-1.26595e-07
-2.15212e-13
-3.90771e-05
-2.8317e-07
-2.65236e-13
-3.89324e-05
-5.0628e-07
-3.20527e-13
-3.86915e-05
-8.39065e-07
-3.47271e-13
-3.82994e-05
-1.3396e-06
-3.25305e-13
-3.76709e-05
-2.08117e-06
-2.96364e-13
-3.66827e-05
-3.14146e-06
-2.90156e-13
-3.51776e-05
-4.57157e-06
-2.62908e-13
-6.33316e-06
-1.97681e-13
-3.29984e-05
-3.78349e-05
8.43359e-06
6.30207e-13
-3.91657e-05
5.94456e-06
4.26712e-13
-3.99467e-05
4.03162e-06
3.15418e-13
-4.03932e-05
2.67299e-06
1.63311e-13
-4.06473e-05
1.74929e-06
1.24199e-13
-4.07931e-05
1.13439e-06
5.03443e-14
-4.08776e-05
7.26918e-07
9.83064e-16
-4.09265e-05
4.53887e-07
-7.51365e-14
-4.09533e-05
2.6417e-07
-1.46879e-13
-4.09651e-05
1.20851e-07
-1.75569e-13
-4.09642e-05
-5.24313e-09
-1.82201e-13
-4.09498e-05
-1.40961e-07
-2.07719e-13
-4.09167e-05
-3.16244e-07
-2.65799e-13
-4.08529e-05
-5.70031e-07
-3.37106e-13
-4.0734e-05
-9.57916e-07
-3.89378e-13
-4.05122e-05
-1.56128e-06
-4.349e-13
-4.00985e-05
-2.49453e-06
-4.88636e-13
-3.93406e-05
-3.899e-06
-5.10592e-13
-3.8007e-05
-5.9046e-06
-4.76546e-13
-8.52407e-06
-4.34069e-13
-3.58154e-05
-3.98685e-05
1.03653e-05
5.20552e-13
-4.07682e-05
6.84322e-06
3.01066e-13
-4.11122e-05
4.37508e-06
2.5025e-13
-4.12013e-05
2.76179e-06
1.56886e-13
-4.11921e-05
1.73988e-06
1.00261e-13
-4.11553e-05
1.09748e-06
5.54062e-14
-4.11185e-05
6.90054e-07
1.00415e-14
-4.10906e-05
4.25908e-07
-7.12612e-14
-4.10734e-05
2.4696e-07
-1.65356e-13
-4.1067e-05
1.14444e-07
-2.28503e-13
-4.10716e-05
-6.1554e-10
-2.63148e-13
-4.10884e-05
-1.2413e-07
-2.96246e-13
-4.11192e-05
-2.85489e-07
-3.364e-13
-4.11643e-05
-5.24871e-07
-3.84841e-13
-4.12177e-05
-9.04498e-07
-4.70129e-13
-4.12533e-05
-1.52554e-06
-5.9462e-13
-4.11978e-05
-2.54976e-06
-6.84461e-13
-4.08839e-05
-4.21251e-06
-6.94377e-13
-3.99888e-05
-6.79864e-06
-6.79186e-13
-1.05029e-05
-6.43502e-13
-3.80085e-05
-4.09385e-05
1.17018e-05
3.3479e-13
-4.1046e-05
6.94857e-06
2.21809e-13
-4.07312e-05
4.05947e-06
1.68724e-13
-4.03545e-05
2.38464e-06
1.26323e-13
-4.00388e-05
1.4239e-06
6.35126e-14
-3.9807e-05
8.6563e-07
2.73396e-14
-3.96487e-05
5.31673e-07
-1.31769e-14
-3.95469e-05
3.24199e-07
-9.21081e-14
-3.94882e-05
1.88183e-07
-1.82601e-13
-3.94639e-05
9.02074e-08
-2.56034e-13
-3.94714e-05
6.90708e-09
-3.2499e-13
-3.95139e-05
-8.16991e-08
-3.71852e-13
-3.96005e-05
-1.98847e-07
-3.89303e-13
-3.97473e-05
-3.78121e-07
-4.37936e-13
-3.99746e-05
-6.77085e-07
-5.6644e-13
-4.0298e-05
-1.20205e-06
-7.2452e-13
-4.06969e-05
-2.15056e-06
-8.37206e-13
-4.10425e-05
-3.86633e-06
-8.91964e-13
-4.09513e-05
-6.88779e-06
-9.27308e-13
-1.18793e-05
-8.90638e-13
-3.95707e-05
-3.98285e-05
1.16899e-05
2.31051e-13
-3.86754e-05
5.79311e-06
1.27352e-13
-3.75484e-05
2.93215e-06
8.96043e-14
-3.67085e-05
1.54443e-06
1.22479e-13
-3.61387e-05
8.54097e-07
1.02125e-13
-3.5768e-05
4.94984e-07
3.96917e-14
-3.55325e-05
2.96242e-07
-3.71631e-14
-3.53873e-05
1.79046e-07
-1.17955e-13
-3.53043e-05
1.05121e-07
-1.98384e-13
-3.52678e-05
5.37339e-08
-2.93152e-13
-3.52724e-05
1.15795e-08
-3.76281e-13
-3.53219e-05
-3.22712e-08
-4.12773e-13
-3.54304e-05
-9.03401e-08
-4.41369e-13
-3.56261e-05
-1.8236e-07
-5.26741e-13
-3.59566e-05
-3.46618e-07
-6.64901e-13
-3.64921e-05
-6.66534e-07
-8.21855e-13
-3.73137e-05
-1.32889e-06
-9.55885e-13
-3.84455e-05
-2.73448e-06
-1.0559e-12
-3.96181e-05
-5.71316e-06
-1.16987e-12
-1.18835e-05
-1.21489e-12
-3.96068e-05
-3.36929e-05
8.76181e-06
3.19515e-13
-3.0973e-05
3.07601e-06
1.65384e-13
-2.92428e-05
1.2051e-06
1.20758e-13
-2.82203e-05
5.23164e-07
1.00481e-13
-2.76192e-05
2.53712e-07
6.671e-14
-2.72611e-05
1.37277e-07
2.89548e-14
-2.7045e-05
8.037e-08
-2.02604e-14
-2.69148e-05
4.90251e-08
-9.69215e-14
-2.68397e-05
3.00964e-08
-2.04908e-13
-2.68036e-05
1.76153e-08
-3.15365e-13
-2.68002e-05
8.2495e-09
-3.99348e-13
-2.68316e-05
-8.66574e-10
-4.49274e-13
-2.69101e-05
-1.19332e-08
-5.0923e-13
-2.70624e-05
-3.01111e-08
-5.93491e-13
-2.73423e-05
-6.7021e-08
-7.11563e-13
-2.78527e-05
-1.5662e-07
-8.80295e-13
-2.87842e-05
-3.98521e-07
-1.06258e-12
-3.04478e-05
-1.07445e-06
-1.27502e-12
-3.31556e-05
-3.00892e-06
-1.55314e-12
-8.9066e-06
-1.81719e-12
-3.61231e-05
-1.72175e-05
1.18675e-13
-1.41463e-05
-8.74725e-14
-1.29411e-05
-7.36831e-14
-1.24189e-05
-2.24888e-14
-1.21658e-05
-1.07846e-14
-1.20288e-05
-1.58815e-14
-1.19486e-05
-3.3853e-14
-1.18997e-05
-8.75689e-14
-1.18696e-05
-1.8912e-13
-1.1852e-05
-3.01773e-13
-1.18438e-05
-3.78647e-13
-1.18446e-05
-4.30325e-13
-1.18565e-05
-4.93509e-13
-1.18865e-05
-5.84397e-13
-1.19533e-05
-6.98856e-13
-1.21094e-05
-8.51238e-13
-1.2507e-05
-1.13093e-12
-1.35821e-05
-1.55754e-12
-1.65873e-05
-2.07742e-12
-2.76163e-12
-2.54499e-05
-1.02239e-05
6.79695e-07
-9.5694e-10
-1.07372e-05
5.13994e-07
-6.58938e-10
-1.11083e-05
3.7152e-07
-4.33676e-10
-1.13672e-05
2.59129e-07
-2.74118e-10
-1.15428e-05
1.75813e-07
-1.67961e-10
-1.16595e-05
1.1675e-07
-1.00776e-10
-1.17355e-05
7.61352e-08
-5.96557e-11
-1.17841e-05
4.86304e-08
-3.51339e-11
-1.18139e-05
2.98152e-08
-2.06789e-11
-1.183e-05
1.61117e-08
-1.17799e-11
-1.18345e-05
4.50066e-09
-5.31268e-12
-1.18266e-05
-7.97316e-09
4.40364e-13
-1.18021e-05
-2.44343e-08
9.82107e-12
-1.17533e-05
-4.88659e-08
2.66506e-11
-1.1667e-05
-8.63506e-08
5.71119e-11
-1.15238e-05
-1.43271e-07
1.11188e-10
-1.12972e-05
-2.26814e-07
2.03464e-10
-1.09543e-05
-3.43235e-07
3.51673e-10
-1.04605e-05
-4.94455e-07
5.74586e-10
-6.73113e-07
8.87334e-10
-9.78824e-06
-2.29531e-05
2.18571e-06
1.00445e-09
-2.40998e-05
1.65984e-06
8.83062e-10
-2.49363e-05
1.20735e-06
7.2289e-10
-2.5527e-05
8.49186e-07
5.6363e-10
-2.59334e-05
5.81854e-07
4.20722e-10
-2.62072e-05
3.9026e-07