/*--------------------------------*- C++ -*----------------------------------*\
| =========                 |                                                 |
| \\      /  F ield         | OpenFOAM: The Open Source CFD Toolbox           |
|  \\    /   O peration     | Version:  2.4.0                                 |
|   \\  /    A nd           | Web:      www.OpenFOAM.org                      |
|    \\/     M anipulation  |                                                 |
\*---------------------------------------------------------------------------*/
FoamFile
{
    version     2.0;
    format      ascii;
    class       volVectorField;
    location    "0.2";
    object      U;
}
// * * * * * * * * * * * * * * * * * * * * * * * * * * * * * * * * * * * * * //

dimensions      [0 1 -1 0 0 0 0];

internalField   nonuniform List<vector> 
4800
(
(-9.92996e-06 8.59612e-06 4.64434e-09)
(-0.000606845 0.000344923 0.000102838)
(-0.00203155 0.000563552 0.000129297)
(-0.0038125 0.00065784 6.25613e-05)
(-0.005736 0.000686705 -0.000105874)
(-0.00769461 0.000683942 -0.000377972)
(-0.00962223 0.000661755 -0.000751815)
(-0.0114642 0.000620613 -0.00122381)
(-0.0131604 0.000557539 -0.00178804)
(-0.0146466 0.000472913 -0.00243482)
(-0.000351602 0.000609437 -0.000103268)
(-0.00208031 0.00206561 -1.93368e-07)
(-0.00529424 0.00298565 2.32491e-06)
(-0.00917411 0.00343119 -8.98791e-05)
(-0.0133498 0.0035966 -0.000278664)
(-0.0176243 0.00360311 -0.000568574)
(-0.021854 0.00349877 -0.000959493)
(-0.0259107 0.00328756 -0.00144857)
(-0.0296559 0.00296074 -0.00203023)
(-0.0329438 0.0025256 -0.00269542)
(-0.000579539 0.00205559 -0.000128611)
(-0.00303476 0.00529254 -1.32837e-06)
(-0.00733526 0.00726794 8.73101e-07)
(-0.0124314 0.00827463 -9.67922e-05)
(-0.0178952 0.00868426 -0.000289157)
(-0.0235087 0.00873011 -0.000580609)
(-0.0290984 0.0085039 -0.00097149)
(-0.034493 0.0080078 -0.00145969)
(-0.0394914 0.007219 -0.0020406)
(-0.0438657 0.00615518 -0.00270627)
(-0.000682202 0.00387932 -5.59762e-05)
(-0.00351289 0.0092174 9.7457e-05)
(-0.00840722 0.0123799 0.000104772)
(-0.0141698 0.0140195 7.14945e-06)
(-0.0203561 0.0147294 -0.000185886)
(-0.0267593 0.0148611 -0.00047851)
(-0.0332054 0.0145375 -0.000871712)
(-0.0394971 0.0137346 -0.00136468)
(-0.045366 0.0123867 -0.00195451)
(-0.050466 0.0105054 -0.00263514)
(-0.000715675 0.00586212 0.000126032)
(-0.00369847 0.0134649 0.000301058)
(-0.00886119 0.0178903 0.000312244)
(-0.0149517 0.0202203 0.000216231)
(-0.0215393 0.0213025 2.41589e-05)
(-0.0284501 0.021609 -0.000268771)
(-0.0355316 0.0212733 -0.000665159)
(-0.0425723 0.0202031 -0.00116667)
(-0.0492214 0.0182307 -0.00177355)
(-0.054943 0.0153123 -0.00248425)
(-0.000713294 0.00788755 0.000420811)
(-0.00371066 0.0178266 0.000615461)
(-0.00892637 0.0235716 0.000629226)
(-0.0151235 0.0266637 0.000536373)
(-0.0219128 0.028226 0.000347804)
(-0.0291741 0.0288532 5.72758e-05)
(-0.0368018 0.0286642 -0.000340643)
(-0.0445906 0.0274362 -0.000851849)
(-0.0520992 0.0247959 -0.00148227)
(-0.0584945 0.0205261 -0.00224156)
(-0.000687711 0.00988084 0.000826508)
(-0.00359895 0.0221481 0.00104061)
(-0.00869717 0.0292424 0.0010562)
(-0.0148127 0.0331723 0.000968922)
(-0.0216174 0.0353498 0.000788394)
(-0.0290632 0.0364961 0.000506444)
(-0.0371196 0.0366926 0.000113658)
(-0.0456255 0.0355067 -0.000402165)
(-0.054081 0.0321944 -0.001056)
(-0.0612352 0.0261137 -0.00188427)
(-0.000639983 0.01178 0.00133847)
(-0.00336917 0.0262918 0.00157252)
(-0.00817841 0.034725 0.00158992)
(-0.0139977 0.0395473 0.00151204)
(-0.0205618 0.0424674 0.00134687)
(-0.0278939 0.0443454 0.00108461)
(-0.0360521 0.0452176 0.000711378)
(-0.0449666 0.0443659 0.000207092)
(-0.0541954 0.0404575 -0.000454593)
(-0.0620104 0.0319285 -0.00136817)
(-0.000567781 0.0135189 0.00194878)
(-0.00301415 0.0301108 0.00220345)
(-0.00734797 0.0398116 0.00222334)
(-0.0126091 0.0455166 0.00215996)
(-0.0185661 0.0492293 0.0020201)
(-0.0252662 0.0519701 0.00179372)
(-0.0328089 0.0537609 0.00146324)
(-0.0412102 0.0535951 0.000999562)
(-0.0502977 0.04941 0.000365623)
(-0.058092 0.0380134 -0.000650756)
(-0.000472408 0.015028 0.00264503)
(-0.00254316 0.0334507 0.00292126)
(-0.00622385 0.0442635 0.00294478)
(-0.0106521 0.0507222 0.00290165)
(-0.015565 0.0550882 0.00279925)
(-0.0209159 0.0585351 0.00263183)
(-0.026662 0.061102 0.00238555)
(-0.0326448 0.0615647 0.00203196)
(-0.0389444 0.0572616 0.00155313)
(-0.0444891 0.04352 0.000583241)
(-5.77902e-06 4.47821e-06 7.39158e-09)
(-0.000602195 0.000339337 1.1807e-06)
(-0.00203097 0.00055448 1.2783e-06)
(-0.00381227 0.000647189 1.37026e-06)
(-0.00573588 0.000675644 1.43441e-06)
(-0.00769473 0.000672883 1.43781e-06)
(-0.00962258 0.000651038 1.40921e-06)
(-0.0114649 0.00061058 1.34087e-06)
(-0.0131617 0.000548504 1.21295e-06)
(-0.0146485 0.000465067 1.00787e-06)
(-0.000345953 0.000604714 -1.15238e-06)
(-0.00207699 0.00206219 2.41718e-08)
(-0.00529797 0.00297859 -8.74017e-07)
(-0.00917577 0.0034229 -1.11625e-06)
(-0.0133501 0.00358835 -1.13852e-06)
(-0.0176242 0.00359505 -1.14906e-06)
(-0.0218536 0.00349107 -1.1068e-06)
(-0.0259102 0.00328046 -1.02036e-06)
(-0.0296557 0.00295448 -9.13544e-07)
(-0.0329442 0.00252008 -8.26261e-07)
(-0.000570418 0.00205482 -1.28575e-06)
(-0.00302788 0.00529605 8.54791e-07)
(-0.00733849 0.00727081 -1.43171e-08)
(-0.0124321 0.00827783 -7.62846e-08)
(-0.017895 0.00868813 4.04252e-08)
(-0.0235085 0.0087343 5.96508e-08)
(-0.0290982 0.00850821 7.72097e-08)
(-0.0344929 0.00801216 1.01811e-07)
(-0.039492 0.00722339 1.17542e-07)
(-0.0438677 0.00615887 6.06845e-08)
(-0.000671438 0.00387899 -1.39359e-06)
(-0.00350479 0.00921899 1.13819e-06)
(-0.00841088 0.0123804 3.96087e-08)
(-0.0141704 0.0140198 -2.90133e-08)
(-0.0203554 0.0147299 1.27421e-07)
(-0.0267588 0.0148618 1.65111e-07)
(-0.033205 0.0145384 1.96448e-07)
(-0.0394967 0.013736 2.37959e-07)
(-0.0453667 0.012389 2.95417e-07)
(-0.0504695 0.0105075 2.38567e-07)
(-0.000704468 0.00586197 -1.46423e-06)
(-0.00369042 0.0134652 1.17008e-06)
(-0.00886556 0.0178899 -8.12985e-08)
(-0.0149525 0.0202195 -1.92868e-07)
(-0.0215386 0.0213015 -3.79425e-08)
(-0.0284494 0.021608 6.85149e-09)
(-0.0355307 0.0212725 5.63435e-08)
(-0.0425709 0.0202029 1.34585e-07)
(-0.0492214 0.0182325 3.21982e-07)
(-0.0549487 0.0153148 3.70755e-07)
(-0.000702085 0.00788769 -1.46698e-06)
(-0.00370281 0.0178266 1.18363e-06)
(-0.00893112 0.0235713 -1.02736e-07)
(-0.0151246 0.0266631 -2.35587e-07)
(-0.0219122 0.0282251 -9.4139e-08)
(-0.0291735 0.028852 -5.54196e-08)
(-0.0368006 0.0286628 -1.17704e-08)
(-0.0445876 0.0274352 5.76149e-08)
(-0.0520972 0.0247989 4.46127e-07)
(-0.0585048 0.0205327 7.84854e-07)
(-0.000676867 0.00988127 -1.43127e-06)
(-0.00359148 0.0221477 1.14212e-06)
(-0.00870207 0.0292421 -1.19378e-07)
(-0.0148142 0.0331717 -2.68939e-07)
(-0.0216172 0.0353488 -1.56791e-07)
(-0.0290629 0.0364945 -1.36205e-07)
(-0.0371184 0.0366902 -1.24104e-07)
(-0.0456196 0.0355039 -1.61059e-07)
(-0.0540732 0.0322 5.73539e-07)
(-0.0612548 0.0261341 1.79722e-06)
(-0.000629861 0.0117808 -1.34867e-06)
(-0.00336231 0.0262913 1.05734e-06)
(-0.00818333 0.034725 -1.34383e-07)
(-0.0139996 0.039547 -2.97477e-07)
(-0.0205624 0.0424662 -2.2611e-07)
(-0.0278945 0.0443428 -2.13608e-07)
(-0.0360518 0.0452118 -1.93256e-07)
(-0.0449552 0.0443538 -3.74506e-07)
(-0.054169 0.0404511 1.38546e-06)
(-0.0620414 0.0319577 6.32747e-06)
(-0.000558703 0.0135203 -1.2001e-06)
(-0.0030081 0.0301107 9.54709e-07)
(-0.00735276 0.0398123 -1.27349e-07)
(-0.0126117 0.0455176 -3.12108e-07)
(-0.0185683 0.0492297 -3.39151e-07)
(-0.0252704 0.0519689 -4.57492e-07)
(-0.0328167 0.0537544 -7.04826e-07)
(-0.0412032 0.0535701 -2.04138e-06)
(-0.0502436 0.0493604 -3.27918e-07)
(-0.0581252 0.0379849 1.38139e-05)
(-0.00046458 0.01503 -9.72248e-07)
(-0.00253783 0.0334511 8.68631e-07)
(-0.00622778 0.0442656 -4.86549e-08)
(-0.0106543 0.0507259 -2.15181e-07)
(-0.0155677 0.0550943 -3.2398e-07)
(-0.0209232 0.0585462 -6.653e-07)
(-0.0266843 0.0611234 -1.59784e-06)
(-0.0326718 0.0615983 -6.36203e-06)
(-0.0389045 0.0572971 -1.33778e-05)
(-0.0445365 0.0435755 1.5502e-06)
(-5.77907e-06 4.47945e-06 -6.18749e-09)
(-0.000602194 0.000339338 -1.17933e-06)
(-0.00203097 0.00055448 -1.27664e-06)
(-0.00381227 0.000647188 -1.36876e-06)
(-0.00573588 0.000675643 -1.43328e-06)
(-0.00769472 0.000672882 -1.43704e-06)
(-0.00962257 0.000651037 -1.40874e-06)
(-0.0114649 0.000610579 -1.34064e-06)
(-0.0131617 0.000548503 -1.21285e-06)
(-0.0146484 0.000465067 -1.0078e-06)
(-0.000345952 0.000604715 1.15556e-06)
(-0.00207699 0.00206219 -2.14694e-08)
(-0.00529796 0.00297858 8.76667e-07)
(-0.00917576 0.00342289 1.11853e-06)
(-0.0133501 0.00358835 1.14041e-06)
(-0.0176242 0.00359504 1.1506e-06)
(-0.0218536 0.00349106 1.10805e-06)
(-0.0259102 0.00328046 1.02135e-06)
(-0.0296557 0.00295448 9.14335e-07)
(-0.0329442 0.00252008 8.26964e-07)
(-0.000570416 0.00205482 1.28941e-06)
(-0.00302787 0.00529604 -8.5163e-07)
(-0.00733847 0.0072708 1.72849e-08)
(-0.0124321 0.00827782 7.89553e-08)
(-0.0178949 0.00868811 -3.80542e-08)
(-0.0235085 0.00873429 -5.75152e-08)
(-0.0290982 0.00850819 -7.52959e-08)
(-0.0344929 0.00801215 -1.00148e-07)
(-0.039492 0.00722338 -1.16125e-07)
(-0.0438676 0.00615886 -5.94521e-08)
(-0.000671436 0.00387898 1.39779e-06)
(-0.00350478 0.00921898 -1.13446e-06)
(-0.00841086 0.0123804 -3.61999e-08)
(-0.0141703 0.0140198 3.21322e-08)
(-0.0203554 0.0147299 -1.24553e-07)
(-0.0267588 0.0148618 -1.62441e-07)
(-0.0332049 0.0145384 -1.94014e-07)
(-0.0394966 0.013736 -2.3583e-07)
(-0.0453666 0.012389 -2.93565e-07)
(-0.0504694 0.0105075 -2.36953e-07)
(-0.000704466 0.00586197 1.46898e-06)
(-0.00369041 0.0134652 -1.16578e-06)
(-0.00886554 0.0178899 8.52128e-08)
(-0.0149524 0.0202195 1.96436e-07)
(-0.0215385 0.0213015 4.12047e-08)
(-0.0284494 0.021608 -3.84905e-09)
(-0.0355306 0.0212725 -5.36232e-08)
(-0.0425708 0.0202029 -1.32182e-07)
(-0.0492213 0.0182325 -3.1987e-07)
(-0.0549486 0.0153148 -3.68944e-07)
(-0.000702083 0.00788768 1.4722e-06)
(-0.0037028 0.0178265 -1.17882e-06)
(-0.0089311 0.0235713 1.07052e-07)
(-0.0151246 0.026663 2.39438e-07)
(-0.0219122 0.028225 9.76031e-08)
(-0.0291734 0.028852 5.85836e-08)
(-0.0368006 0.0286628 1.46498e-08)
(-0.0445875 0.0274352 -5.50436e-08)
(-0.0520971 0.0247988 -4.4391e-07)
(-0.0585047 0.0205327 -7.83052e-07)
(-0.000676865 0.00988126 1.43677e-06)
(-0.00359147 0.0221477 -1.13704e-06)
(-0.00870206 0.0292421 1.23853e-07)
(-0.0148141 0.0331717 2.72905e-07)
(-0.0216172 0.0353487 1.60399e-07)
(-0.0290629 0.0364944 1.39545e-07)
(-0.0371184 0.0366902 1.27129e-07)
(-0.0456195 0.0355039 1.63676e-07)
(-0.0540732 0.0322 -5.71428e-07)
(-0.0612548 0.0261341 -1.79563e-06)
(-0.000629859 0.0117808 1.35411e-06)
(-0.00336231 0.0262913 -1.05236e-06)
(-0.00818332 0.034725 1.3879e-07)
(-0.0139996 0.039547 3.01509e-07)
(-0.0205624 0.0424662 2.2989e-07)
(-0.0278945 0.0443427 2.17088e-07)
(-0.0360518 0.0452118 1.96304e-07)
(-0.0449551 0.0443538 3.77045e-07)
(-0.054169 0.0404511 -1.38344e-06)
(-0.0620414 0.0319577 -6.32596e-06)
(-0.000558701 0.0135203 1.20504e-06)
(-0.00300809 0.0301107 -9.5013e-07)
(-0.00735275 0.0398123 1.31552e-07)
(-0.0126117 0.0455176 3.16114e-07)
(-0.0185683 0.0492296 3.42958e-07)
(-0.0252704 0.0519688 4.60932e-07)
(-0.0328167 0.0537543 7.07831e-07)
(-0.0412032 0.0535701 2.04396e-06)
(-0.0502436 0.0493604 3.30129e-07)
(-0.0581252 0.0379849 -1.38122e-05)
(-0.000464578 0.01503 9.76461e-07)
(-0.00253782 0.0334511 -8.64596e-07)
(-0.00622777 0.0442655 5.25558e-08)
(-0.0106543 0.0507258 2.18979e-07)
(-0.0155677 0.0550943 3.27566e-07)
(-0.0209232 0.0585462 6.68572e-07)
(-0.0266843 0.0611234 1.60088e-06)
(-0.0326718 0.0615983 6.36488e-06)
(-0.0389045 0.0572971 1.33805e-05)
(-0.0445365 0.0435756 -1.54792e-06)
(-9.92912e-06 8.60111e-06 -5.91018e-09)
(-0.000606841 0.000344925 -0.00010284)
(-0.00203155 0.000563553 -0.000129299)
(-0.00381248 0.000657838 -6.25629e-05)
(-0.00573599 0.000686702 0.000105873)
(-0.00769459 0.00068394 0.000377972)
(-0.0096222 0.000661752 0.000751814)
(-0.0114641 0.000620611 0.00122381)
(-0.0131604 0.000557538 0.00178804)
(-0.0146466 0.000472912 0.00243482)
(-0.000351601 0.000609443 0.000103265)
(-0.00208031 0.00206561 1.90511e-07)
(-0.00529422 0.00298564 -2.32771e-06)
(-0.00917408 0.00343118 8.98767e-05)
(-0.0133497 0.00359659 0.000278662)
(-0.0176242 0.0036031 0.000568572)
(-0.0218539 0.00349876 0.000959492)
(-0.0259106 0.00328755 0.00144857)
(-0.0296558 0.00296074 0.00203023)
(-0.0329437 0.00252559 0.00269542)
(-0.000579536 0.00205559 0.000128607)
(-0.00303475 0.00529253 1.32503e-06)
(-0.00733523 0.00726792 -8.76239e-07)
(-0.0124313 0.0082746 9.67894e-05)
(-0.0178952 0.00868423 0.000289154)
(-0.0235086 0.00873009 0.000580607)
(-0.0290983 0.00850387 0.000971488)
(-0.0344929 0.00800778 0.00145969)
(-0.0394912 0.00721899 0.0020406)
(-0.0438655 0.00615517 0.00270627)
(-0.000682197 0.00387932 5.59718e-05)
(-0.00351287 0.00921738 -9.7461e-05)
(-0.00840718 0.0123798 -0.000104775)
(-0.0141697 0.0140195 -7.15275e-06)
(-0.020356 0.0147293 0.000185883)
(-0.0267592 0.014861 0.000478507)
(-0.0332053 0.0145374 0.00087171)
(-0.0394969 0.0137346 0.00136468)
(-0.0453658 0.0123867 0.00195451)
(-0.0504659 0.0105054 0.00263514)
(-0.000715669 0.00586211 -0.000126037)
(-0.00369845 0.0134649 -0.000301062)
(-0.00886114 0.0178902 -0.000312248)
(-0.0149516 0.0202203 -0.000216234)
(-0.0215392 0.0213024 -2.41624e-05)
(-0.02845 0.0216089 0.000268767)
(-0.0355315 0.0212732 0.000665156)
(-0.0425722 0.020203 0.00116667)
(-0.0492213 0.0182307 0.00177355)
(-0.0549428 0.0153123 0.00248425)
(-0.000713288 0.00788752 -0.000420817)
(-0.00371064 0.0178266 -0.000615466)
(-0.00892633 0.0235715 -0.00062923)
(-0.0151234 0.0266636 -0.000536377)
(-0.0219127 0.0282259 -0.000347808)
(-0.029174 0.0288531 -5.72791e-05)
(-0.0368017 0.0286641 0.00034064)
(-0.0445905 0.0274362 0.000851847)
(-0.0520991 0.0247958 0.00148226)
(-0.0584944 0.0205261 0.00224156)
(-0.000687705 0.00988082 -0.000826514)
(-0.00359893 0.022148 -0.00104062)
(-0.00869713 0.0292423 -0.0010562)
(-0.0148127 0.0331722 -0.000968926)
(-0.0216173 0.0353497 -0.000788398)
(-0.0290631 0.036496 -0.000506448)
(-0.0371195 0.0366926 -0.000113661)
(-0.0456254 0.0355066 0.000402162)
(-0.0540809 0.0321944 0.001056)
(-0.0612351 0.0261137 0.00188427)
(-0.000639978 0.01178 -0.00133848)
(-0.00336915 0.0262917 -0.00157253)
(-0.00817837 0.0347249 -0.00158992)
(-0.0139977 0.0395471 -0.00151205)
(-0.0205618 0.0424672 -0.00134688)
(-0.0278938 0.0443453 -0.00108461)
(-0.036052 0.0452175 -0.000711381)
(-0.0449665 0.0443659 -0.000207094)
(-0.0541953 0.0404574 0.000454591)
(-0.0620103 0.0319285 0.00136817)
(-0.000567778 0.0135189 -0.00194879)
(-0.00301413 0.0301107 -0.00220345)
(-0.00734795 0.0398114 -0.00222334)
(-0.0126091 0.0455165 -0.00215996)
(-0.0185661 0.0492291 -0.0020201)
(-0.0252661 0.05197 -0.00179372)
(-0.0328089 0.0537609 -0.00146325)
(-0.0412101 0.0535951 -0.000999565)
(-0.0502977 0.0494099 -0.000365625)
(-0.058092 0.0380134 0.000650754)
(-0.000472405 0.015028 -0.00264504)
(-0.00254315 0.0334506 -0.00292126)
(-0.00622383 0.0442634 -0.00294478)
(-0.010652 0.050722 -0.00290166)
(-0.015565 0.0550881 -0.00279926)
(-0.0209159 0.058535 -0.00263183)
(-0.026662 0.061102 -0.00238555)
(-0.0326448 0.0615647 -0.00203196)
(-0.0389444 0.0572616 -0.00155314)
(-0.0444891 0.04352 -0.000583243)
(-0.0158715 0.000375497 -0.00314991)
(-0.0168207 0.000280838 -0.00391611)
(-0.0175195 0.000200006 -0.00471758)
(-0.0180136 0.000136986 -0.00554186)
(-0.0183524 9.10431e-05 -0.00638009)
(-0.0185791 5.92107e-05 -0.00722645)
(-0.018728 3.80016e-05 -0.0080774)
(-0.0188241 2.42748e-05 -0.00893096)
(-0.0188845 1.54908e-05 -0.00978621)
(-0.01892 9.64885e-06 -0.0106429)
(-0.0189363 5.09241e-06 -0.011501)
(-0.0189344 2.93374e-07 -0.0123611)
(-0.0189106 -6.55238e-06 -0.0132233)
(-0.0188556 -1.76663e-05 -0.0140881)
(-0.018753 -3.60308e-05 -0.0149552)
(-0.0185771 -6.55192e-05 -0.0158235)
(-0.018291 -0.000110636 -0.0166902)
(-0.0178464 -0.000175488 -0.0175499)
(-0.0171869 -0.000261676 -0.0183935)
(-0.0162591 -0.000365139 -0.0192072)
(-0.0356587 0.00202723 -0.00343091)
(-0.0377694 0.00154092 -0.00422021)
(-0.0393334 0.00112057 -0.00504849)
(-0.040451 0.000786836 -0.0059038)
(-0.0412273 0.000537555 -0.00677709)
(-0.0417546 0.000359303 -0.00766197)
(-0.0421055 0.000235483 -0.00855418)
(-0.0423333 0.000150584 -0.00945104)
(-0.0424746 9.15822e-05 -0.010351)
(-0.0425524 4.78062e-05 -0.0112531)
(-0.0425783 1.01045e-05 -0.012157)
(-0.0425537 -3.02514e-05 -0.0130627)
(-0.0424695 -8.28955e-05 -0.0139699)
(-0.0423045 -0.000159522 -0.0148784)
(-0.0420227 -0.000275004 -0.0157872)
(-0.0415691 -0.000447709 -0.0166947)
(-0.040866 -0.000697962 -0.0175974)
(-0.0398126 -0.00104301 -0.0184892)
(-0.0382925 -0.00148728 -0.0193612)
(-0.0361947 -0.00200854 -0.0202001)
(-0.0474251 0.00493093 -0.00344355)
(-0.0501264 0.0037419 -0.00423368)
(-0.0520789 0.00272106 -0.00506145)
(-0.0534444 0.00191452 -0.00591535)
(-0.054377 0.00131304 -0.00678673)
(-0.0550028 0.000881746 -0.00766948)
(-0.0554157 0.000579719 -0.00855955)
(-0.0556816 0.000369545 -0.00945432)
(-0.0558444 0.000220105 -0.0103522)
(-0.0559311 0.000105947 -0.0112522)
(-0.0559548 5.21337e-06 -0.0121539)
(-0.055917 -0.000103008 -0.013057)
(-0.0558068 -0.000241476 -0.0139612)
(-0.0555989 -0.000437767 -0.0148662)
(-0.0552498 -0.000726758 -0.0157712)
(-0.0546916 -0.00115158 -0.0166744)
(-0.0538247 -0.00176046 -0.017573)
(-0.0525131 -0.00259534 -0.0184617)
(-0.0505892 -0.00366891 -0.0193324)
(-0.047878 -0.00492979 -0.0201728)
(-0.0544785 0.00830794 -0.00339263)
(-0.0573515 0.00620535 -0.00420044)
(-0.0593006 0.00444468 -0.0050414)
(-0.0605862 0.00308771 -0.00590437)
(-0.0614206 0.0020971 -0.00678137)
(-0.061958 0.00139833 -0.0076672)
(-0.0623014 0.000914277 -0.00855855)
(-0.0625174 0.000579174 -0.00945338)
(-0.0626472 0.000340829 -0.0103505)
(-0.0627148 0.000157895 -0.0112491)
(-0.0627318 -4.41247e-06 -0.012149)
(-0.0626995 -0.000179046 -0.0130499)
(-0.0626087 -0.000402059 -0.0139516)
(-0.0624374 -0.000717802 -0.0148541)
(-0.0621454 -0.00118399 -0.0157569)
(-0.0616654 -0.00187515 -0.0166591)
(-0.0608885 -0.00287997 -0.0175589)
(-0.0596499 -0.00428441 -0.0184527)
(-0.0577193 -0.00613127 -0.0193341)
(-0.0548168 -0.00834876 -0.0201926)
(-0.0591739 0.0118118 -0.00328453)
(-0.0618634 0.0085568 -0.00412825)
(-0.0634541 0.00595113 -0.00499547)
(-0.0643681 0.00403007 -0.00587668)
(-0.064887 0.00268151 -0.00676543)
(-0.065183 0.00176034 -0.00765824)
(-0.0653541 0.00113775 -0.00855331)
(-0.0654537 0.00071435 -0.00944968)
(-0.0655105 0.000416817 -0.0103469)
(-0.0655397 0.000190116 -0.0112446)
(-0.0655481 -1.03924e-05 -0.0121429)
(-0.0655371 -0.000226315 -0.0130416)
(-0.0655023 -0.00050365 -0.013941)
(-0.0654315 -0.00090083 -0.0148412)
(-0.0652987 -0.00149804 -0.0157425)
(-0.0650513 -0.00240655 -0.0166452)
(-0.064588 -0.00377226 -0.0175493)
(-0.0637252 -0.0057588 -0.0184539)
(-0.0621576 -0.00848912 -0.0193558)
(-0.0594294 -0.0119138 -0.0202487)
(-0.0627336 0.015182 -0.0031206)
(-0.0648107 0.0104562 -0.00402378)
(-0.0656485 0.00693448 -0.00493092)
(-0.0659114 0.00450904 -0.00583858)
(-0.0659357 0.00290488 -0.00674374)
(-0.0658819 0.00186152 -0.00764607)
(-0.0658168 0.00118274 -0.00854623)
(-0.0657632 0.000734301 -0.00944486)
(-0.0657268 0.000426025 -0.0103425)
(-0.0657078 0.000194992 -0.0112395)
(-0.0657062 -7.28997e-06 -0.0121361)
(-0.0657228 -0.000224998 -0.0130326)
(-0.0657604 -0.000507636 -0.0139294)
(-0.0658221 -0.000921138 -0.014827)
(-0.0659065 -0.00156291 -0.0157265)
(-0.0659953 -0.00258181 -0.0166296)
(-0.0660224 -0.00419798 -0.0175389)
(-0.0658195 -0.00670157 -0.0184573)
(-0.0650232 -0.0103905 -0.0193874)
(-0.0629115 -0.0153588 -0.0203338)
(-0.0651016 0.017994 -0.00290693)
(-0.0658896 0.0114242 -0.00390145)
(-0.0654949 0.007041 -0.00486142)
(-0.0648613 0.00430825 -0.00580097)
(-0.0642858 0.00264833 -0.0067241)
(-0.0638468 0.00164094 -0.00763595)
(-0.0635401 0.00101943 -0.00854076)
(-0.0633377 0.000624824 -0.00944118)
(-0.0632133 0.000361806 -0.0103388)
(-0.0631489 0.000169583 -0.0112347)
(-0.0631354 4.28127e-06 -0.0121294)
(-0.0631731 -0.000172944 -0.0130233)
(-0.0632717 -0.000406051 -0.0139168)
(-0.0634516 -0.000757455 -0.0148108)
(-0.0637441 -0.00132843 -0.0157068)
(-0.0641845 -0.00229336 -0.0166077)
(-0.0647851 -0.00394917 -0.0175193)
(-0.0654715 -0.00676027 -0.0184499)
(-0.0659282 -0.0113477 -0.019411)
(-0.0651238 -0.0182448 -0.0204342)
(-0.0645688 0.0193074 -0.00265917)
(-0.0629785 0.0106748 -0.00378476)
(-0.0608914 0.00586191 -0.00480602)
(-0.0592971 0.00327493 -0.0057777)
(-0.0581926 0.00188285 -0.00671562)
(-0.0574647 0.00111562 -0.00763349)
(-0.0569991 0.000674716 -0.00854029)
(-0.0567076 0.000408595 -0.00944073)
(-0.0565327 0.000237947 -0.0103373)
(-0.0564407 0.000117409 -0.0112314)
(-0.0564155 1.67691e-05 -0.0121236)
(-0.0564555 -8.96337e-05 -0.0130144)
(-0.0565742 -0.000230995 -0.0139038)
(-0.0568039 -0.000452109 -0.0147927)
(-0.057204 -0.000834751 -0.0156823)
(-0.0578694 -0.00154239 -0.0165765)
(-0.0589277 -0.0029046 -0.0174838)
(-0.0605169 -0.00554773 -0.018419)
(-0.0626593 -0.0105732 -0.0194046)
(-0.0642676 -0.0196039 -0.0205254)
(-0.0568845 0.0176533 -0.00251262)
(-0.0515333 0.00750071 -0.00377606)
(-0.0478406 0.00332919 -0.00481987)
(-0.0457689 0.00158266 -0.00579743)
(-0.0445579 0.0008133 -0.00673289)
(-0.0438364 0.000451287 -0.00764603)
(-0.0434035 0.000264993 -0.0085486)
(-0.0431416 0.000160063 -0.00944558)
(-0.0429857 9.60152e-05 -0.0103392)
(-0.0429005 5.30588e-05 -0.0112306)
(-0.0428696 1.94409e-05 -0.0121198)
(-0.0428893 -1.38975e-05 -0.0130069)
(-0.0429702 -5.75952e-05 -0.0138915)
(-0.0431405 -0.000128838 -0.0147734)
(-0.0434597 -0.000266135 -0.0156526)
(-0.0440433 -0.000567271 -0.0165314)
(-0.0450988 -0.00128408 -0.017418)
(-0.0470326 -0.00304137 -0.0183275)
(-0.0507028 -0.00738872 -0.0192792)
(-0.0561633 -0.0179931 -0.0204574)
(-0.0328042 0.0116924 -0.0027106)
(-0.0245434 0.00326684 -0.00391899)
(-0.0212897 0.000992063 -0.00475716)
(-0.0201368 0.000333353 -0.0055949)
(-0.0196092 0.000128061 -0.00643178)
(-0.0193268 5.91645e-05 -0.00726866)
(-0.0191659 3.26416e-05 -0.00810732)
(-0.019069 2.03427e-05 -0.008947)
(-0.0190091 1.38099e-05 -0.00978678)
(-0.0189726 1.02193e-05 -0.0106259)
(-0.0189524 8.42657e-06 -0.0114635)
(-0.0189459 7.99317e-06 -0.0122985)
(-0.018954 8.13282e-06 -0.0131296)
(-0.0189825 7.72911e-06 -0.0139544)
(-0.0190488 4.59721e-07 -0.0147692)
(-0.0191982 -4.05487e-05 -0.0155687)
(-0.0195409 -0.00021444 -0.0163478)
(-0.0204577 -0.000866025 -0.0170953)
(-0.0235581 -0.00325476 -0.0177822)
(-0.0321739 -0.0121986 -0.0187654)
(-0.0158734 0.000368875 7.45534e-07)
(-0.0168223 0.000275548 5.13482e-07)
(-0.0175206 0.000195989 3.38062e-07)
(-0.0180144 0.00013405 2.13743e-07)
(-0.0183529 8.89643e-05 1.30977e-07)
(-0.0185794 5.77796e-05 7.85608e-08)
(-0.0187282 3.70427e-05 4.64673e-08)
(-0.0188242 2.36546e-05 2.73372e-08)
(-0.0188846 1.5117e-05 1.60297e-08)
(-0.0189201 9.46636e-06 9.02963e-09)
(-0.0189364 5.07986e-06 3.93064e-09)
(-0.0189345 4.57904e-07 -6.00489e-10)
(-0.0189107 -6.16258e-06 -7.94554e-09)
(-0.0188557 -1.69633e-05 -2.10983e-08)
(-0.0187532 -3.488e-05 -4.48359e-08)
(-0.0185774 -6.37344e-05 -8.68636e-08)
(-0.0182916 -0.000107985 -1.58549e-07)
(-0.0178474 -0.000171713 -2.73781e-07)
(-0.0171885 -0.000256549 -4.47257e-07)
(-0.0162611 -0.000358597 -6.90734e-07)
(-0.0356591 0.00202208 -7.80742e-07)
(-0.0377692 0.00153659 -6.86332e-07)
(-0.0393329 0.00111725 -5.61804e-07)
(-0.0404503 0.000784412 -4.38051e-07)
(-0.0412267 0.000535855 -3.27023e-07)
(-0.0417541 0.000358149 -2.34886e-07)
(-0.0421052 0.000234721 -1.62865e-07)
(-0.0423331 0.000150096 -1.08319e-07)
(-0.0424746 9.12888e-05 -6.69034e-08)
(-0.0425524 4.7658e-05 -3.35889e-08)
(-0.0425783 1.00807e-05 -3.23174e-09)
(-0.0425536 -3.01475e-05 2.86915e-08)
(-0.0424692 -8.26271e-05 6.8847e-08)
(-0.0423041 -0.000159019 1.23158e-07)
(-0.0420221 -0.000274151 1.97686e-07)
(-0.0415683 -0.000446344 2.97127e-07)
(-0.040865 -0.000695884 4.21742e-07)
(-0.0398117 -0.00103999 5.65804e-07)
(-0.0382921 -0.00148316 7.13329e-07)
(-0.0361951 -0.00200355 8.21478e-07)
(-0.0474271 0.00493254 -1.24942e-07)
(-0.0501273 0.00374268 -1.95563e-07)
(-0.052079 0.00272168 -1.96463e-07)
(-0.0534441 0.00191506 -1.75906e-07)
(-0.0543767 0.00131351 -1.43274e-07)
(-0.0550026 0.000882143 -1.08597e-07)
(-0.0554155 0.000580032 -7.81654e-08)
(-0.0556815 0.000369771 -5.34822e-08)
(-0.0558444 0.000220248 -3.38905e-08)
(-0.0559312 0.000106009 -1.77857e-08)
(-0.0559549 5.19174e-06 -2.97163e-09)
(-0.0559171 -0.00010312 1.15994e-08)
(-0.0558067 -0.000241693 2.95365e-08)
(-0.0555987 -0.000438107 5.28739e-08)
(-0.0552494 -0.000727229 8.35579e-08)
(-0.0546911 -0.00115218 1.218e-07)
(-0.0538242 -0.00176116 1.62812e-07)
(-0.0525129 -0.00259611 1.99207e-07)
(-0.0505898 -0.00366975 2.19854e-07)
(-0.04788 -0.00493147 1.55214e-07)
(-0.0544821 0.00830657 -1.44561e-07)
(-0.0573525 0.00620368 -2.35011e-07)
(-0.0593005 0.0044438 -2.11501e-07)
(-0.0605858 0.00308736 -1.78783e-07)
(-0.0614202 0.00209707 -1.37166e-07)
(-0.0619577 0.00139847 -9.77197e-08)
(-0.0623013 0.000914467 -6.67416e-08)
(-0.0625174 0.000579344 -4.37116e-08)
(-0.0626473 0.000340947 -2.66729e-08)
(-0.0627149 0.000157949 -1.35426e-08)
(-0.0627319 -4.43084e-06 -2.35328e-09)
(-0.0626996 -0.000179142 9.41498e-09)
(-0.0626087 -0.000402237 2.36633e-08)
(-0.0624372 -0.000718049 4.31672e-08)
(-0.0621451 -0.00118426 7.13684e-08)
(-0.0616648 -0.00187533 1.11096e-07)
(-0.0608878 -0.00287989 1.58509e-07)
(-0.0596493 -0.00428377 2.10734e-07)
(-0.0577201 -0.00612962 2.74022e-07)
(-0.0548205 -0.0083473 2.02317e-07)
(-0.0591798 0.0118067 -4.17832e-07)
(-0.0618637 0.00855256 -4.47172e-07)
(-0.0634529 0.00594922 -3.20951e-07)
(-0.064367 0.00402932 -2.41515e-07)
(-0.0648862 0.00268138 -1.65783e-07)
(-0.0651825 0.00176049 -1.05281e-07)
(-0.0653539 0.00113798 -6.50403e-08)
(-0.0654537 0.00071456 -3.90713e-08)
(-0.0655107 0.000416962 -2.21399e-08)
(-0.0655399 0.000190183 -1.05e-08)
(-0.0655483 -1.0411e-05 -1.24684e-09)
(-0.0655373 -0.000226429 7.83931e-09)
(-0.0655024 -0.000503864 1.97828e-08)
(-0.0654314 -0.000901132 3.82704e-08)
(-0.0652982 -0.00149836 6.97128e-08)
(-0.0650505 -0.00240673 1.22559e-07)
(-0.0645867 -0.003772 1.93709e-07)
(-0.0637234 -0.00575742 2.88936e-07)
(-0.0621575 -0.00848502 4.85575e-07)
(-0.0594354 -0.0119085 5.13909e-07)
(-0.062744 0.0151708 -1.02903e-06)
(-0.0648086 0.0104487 -7.80343e-07)
(-0.0656449 0.00693208 -4.16332e-07)
(-0.0659092 0.00450848 -2.76359e-07)
(-0.0659344 0.00290506 -1.64102e-07)
(-0.0658813 0.00186195 -8.61955e-08)
(-0.0658166 0.00118316 -4.39821e-08)
(-0.0657633 0.000734618 -2.1741e-08)
(-0.065727 0.000426229 -1.00356e-08)
(-0.0657082 0.000195089 -3.71509e-09)
(-0.0657065 -7.29622e-06 4.50875e-10)
(-0.0657231 -0.000225119 2.8041e-09)
(-0.0657607 -0.000507889 7.42924e-09)
(-0.0658221 -0.000921536 1.76657e-08)
(-0.065906 -0.00156341 4.2479e-08)
(-0.0659942 -0.00258223 9.82948e-08)
(-0.0660202 -0.00419798 1.78906e-07)
(-0.0658152 -0.00669996 3.05835e-07)
(-0.0650202 -0.0103833 7.893e-07)
(-0.062922 -0.0153473 1.20787e-06)
(-0.0651214 0.0179769 -2.84457e-06)
(-0.0658813 0.0114178 -1.6557e-06)
(-0.0654869 0.00704208 -6.62284e-07)
(-0.0648578 0.00430989 -3.68362e-07)
(-0.064284 0.00264974 -1.75291e-07)
(-0.0638462 0.00164204 -6.65342e-08)
(-0.0635401 0.00102016 -2.22153e-08)
(-0.063338 0.000625287 -4.77096e-09)
(-0.0632137 0.000362078 1.59341e-09)
(-0.0631493 0.000169716 3.16876e-09)
(-0.0631359 4.29544e-06 2.81287e-09)
(-0.0631735 -0.000173045 1.43472e-09)
(-0.0632721 -0.000406313 1.26733e-09)
(-0.0634518 -0.000757964 5.43411e-09)
(-0.0637437 -0.00132929 2.73385e-08)
(-0.0641833 -0.00229459 1.02324e-07)
(-0.064782 -0.00395096 2.26994e-07)
(-0.0654627 -0.00676208 4.42504e-07)
(-0.0659185 -0.0113419 1.61949e-06)
(-0.0651441 -0.0182281 3.19496e-06)
(-0.0646051 0.0192782 -5.09893e-06)
(-0.0629591 0.0106779 -1.814e-06)
(-0.0608806 0.00587257 -2.83682e-07)
(-0.059295 0.00328093 -1.68738e-07)
(-0.058192 0.00188602 -3.21693e-08)
(-0.0574648 0.00111743 3.31071e-08)
(-0.0569996 0.000675722 3.58727e-08)
(-0.0567082 0.000409147 2.8008e-08)
(-0.0565333 0.000238248 2.05471e-08)
(-0.0564413 0.000117556 1.36576e-08)
(-0.0564161 1.68e-05 7.21217e-09)
(-0.0564561 -8.97136e-05 3.34277e-09)
(-0.0565748 -0.000231255 -3.19314e-09)
(-0.0568046 -0.000452724 -1.45853e-08)
(-0.0572044 -0.000836039 -2.13503e-08)
(-0.0578695 -0.00154491 2.74298e-08)
(-0.0589267 -0.0029101 8.56452e-08)
(-0.0605062 -0.00555864 9.45043e-10)
(-0.062639 -0.0105766 1.62219e-06)
(-0.0643052 -0.0195729 5.43236e-06)
(-0.0569256 0.0175408 -7.13401e-06)
(-0.0514903 0.00747168 2.12046e-06)
(-0.0478331 0.00332507 2.50998e-06)
(-0.0457739 0.0015795 9.62984e-07)
(-0.0445608 0.000810909 5.02649e-07)
(-0.0438381 0.000449871 3.15634e-07)
(-0.0434048 0.000264145 1.81796e-07)
(-0.0431426 0.000159544 1.05361e-07)
(-0.0429865 9.57139e-05 6.31731e-08)
(-0.0429012 5.29151e-05 3.60997e-08)
(-0.0428702 1.94308e-05 1.55627e-08)
(-0.0428901 -1.3774e-05 -2.7449e-09)
(-0.0429711 -5.72761e-05 -3.24011e-08)
(-0.0431417 -0.000128207 -9.36726e-08)
(-0.0434614 -0.000264925 -2.09301e-07)
(-0.0440469 -0.000564961 -3.67917e-07)
(-0.0451056 -0.00128073 -8.70585e-07)
(-0.0470263 -0.00303683 -2.80332e-06)
(-0.0506575 -0.00735701 -2.78036e-06)
(-0.0562025 -0.0178681 7.37969e-06)
(-0.0328171 0.0116122 -3.14776e-05)
(-0.0244489 0.00323444 -3.75093e-06)
(-0.0212675 0.000979712 6.09119e-08)
(-0.0201359 0.000326 -7.60572e-07)
(-0.0196079 0.000123691 -4.90152e-07)
(-0.0193259 5.67242e-05 -2.17202e-07)
(-0.0191656 3.12635e-05 -1.14651e-07)
(-0.019069 1.95491e-05 -6.51329e-08)
(-0.0190092 1.33629e-05 -3.45561e-08)
(-0.0189727 1.00033e-05 -1.46778e-08)
(-0.0189525 8.39518e-06 4.50461e-10)
(-0.018946 8.1479e-06 1.47857e-08)
(-0.018954 8.56976e-06 3.896e-08)
(-0.0189823 8.6641e-06 7.6254e-08)
(-0.0190479 2.36456e-06 1.61131e-07)
(-0.0191972 -3.67317e-05 4.3617e-07)
(-0.0195413 -0.000207438 6.99888e-07)
(-0.0204358 -0.000853626 -5.03852e-07)
(-0.0234536 -0.00322048 2.892e-06)
(-0.0321773 -0.0121078 3.42881e-05)
(-0.0158734 0.000368875 -7.45368e-07)
(-0.0168222 0.000275548 -5.13185e-07)
(-0.0175205 0.000195989 -3.37685e-07)
(-0.0180143 0.00013405 -2.13422e-07)