/*--------------------------------*- C++ -*----------------------------------*\
| =========                 |                                                 |
| \\      /  F ield         | OpenFOAM: The Open Source CFD Toolbox           |
|  \\    /   O peration     | Version:  2.4.0                                 |
|   \\  /    A nd           | Web:      www.OpenFOAM.org                      |
|    \\/     M anipulation  |                                                 |
\*---------------------------------------------------------------------------*/
FoamFile
{
    version     2.0;
    format      ascii;
    class       volScalarField;
    location    "0.14";
    object      T;
}
// * * * * * * * * * * * * * * * * * * * * * * * * * * * * * * * * * * * * * //

dimensions      [0 0 0 1 0 0 0];

internalField   nonuniform List<scalar> 
1600
(
99.4192
98.269
97.1529
96.0932
95.1122
94.2315
93.4722
92.8545
92.3978
92.1206
92.0401
92.1722
92.5316
93.1315
93.9834
95.0973
96.4815
98.1425
100.085
102.312
104.825
107.623
110.704
114.064
117.698
121.598
125.756
130.161
134.803
139.669
144.743
150.012
155.458
161.063
166.809
172.676
178.643
184.688
190.79
196.926
99.4198
98.2708
97.1558
96.0973
95.1175
94.238
93.4798
92.8632
92.4077
92.1317
92.0523
92.1857
92.5463
93.1474
94.0006
95.1157
96.501
98.1631
100.107
102.335
104.848
107.647
110.728
114.089
117.722
121.622
125.779
130.184
134.825
139.689
144.762
150.029
155.473
161.076
166.82
172.685
178.65
184.693
190.793
196.927
99.421
98.2743
97.1616
96.1055
95.1279
94.2507
93.4948
92.8805
92.4273
92.1536
92.0766
92.2122
92.5753
93.1787
94.0342
95.1517
96.5393
98.2036
100.149
102.379
104.894
107.694
110.777
114.137
117.771
121.67
125.826
130.229
134.868
139.729
144.799
150.063
155.503
161.103
166.843
172.704
178.664
184.704
190.799
196.929
99.4228
98.2795
97.1705
96.1178
95.1438
94.27
93.5175
92.9067
92.4569
92.1866
92.113
92.2521
92.6186
93.2255
94.0844
95.2052
96.5961
98.2635
100.212
102.445
104.962
107.764
110.848
114.209
117.843
121.741
125.896
130.297
134.932
139.79
144.856
150.114
155.549
161.143
166.877
172.732
178.686
184.719
190.809
196.933
99.4252
98.2867
97.1824
96.1345
95.1652
94.296
93.5482
92.9419
92.4967
92.2309
92.1619
92.3055
92.6764
93.2878
94.151
95.2761
96.6711
98.3425
100.295
102.53
105.051
107.855
110.94
114.303
117.937
121.834
125.987
130.386
135.017
139.87
144.93
150.182
155.61
161.197
166.923
172.769
178.715
184.74
190.821
196.937
99.4282
98.2958
97.1976
96.1557
95.1923
94.329
93.587
92.9865
92.547
92.2868
92.2233
92.3724
92.7488
93.3654
94.234
95.3641
96.7641
98.4401
100.397
102.636
105.16
107.967
111.055
114.418
118.052
121.949
126.1
130.495
135.123
139.97
145.023
150.268
155.687
161.264
166.98
172.816
178.752
184.766
190.837
196.942
99.432
98.3069
97.2162
96.1816
95.2254
94.3693
93.6343
93.0407
92.608
92.3545
92.2976
92.4531
92.8358
93.4587
94.3332
95.4692
96.8748
98.5561
100.518
102.762
105.289
108.1
111.19
114.555
118.189
122.085
126.234
130.625
135.248
140.088
145.134
150.369
155.778
161.344
167.048
172.872
178.796
184.798
190.856
196.948
99.4364
98.3202
97.2383
96.2124
95.2648
94.4171
93.6904
93.1049
92.6801
92.4344
92.385
92.548
92.9378
93.5677
94.4489
95.5914
97.0031
98.6902
100.657
102.906
105.438
108.252
111.344
114.711
118.345
122.24
126.387
130.774
135.391
140.225
145.261
150.486
155.884
161.437
167.128
172.938
178.847
184.834
190.878
196.955
99.4416
98.3358
97.2641
96.2485
95.3109
94.473
93.7558
93.1797
92.764
92.5271
92.4863
92.6575
93.0553
93.6927
94.5813
95.7308
97.149
98.8422
100.815
103.069
105.605
108.422
111.517
114.885
118.52
122.414
126.558
130.941
135.552
140.378
145.405
150.618
156.003
161.542
167.218
173.012
178.905
184.876
190.903
196.964
99.4476
98.3537
97.294
96.2901
95.364
94.5374
93.8312
93.2657
92.8602
92.6332
92.6018
92.7821
93.1886
93.8343
94.7307
95.8875
97.3126
99.0121
100.99
103.249
105.79
108.61
111.708
115.077
118.713
122.605
126.747
131.125
135.73
140.547
145.564
150.765
156.136
161.659
167.318
173.095
178.97
184.922
190.93
196.973
99.4545
98.3743
97.3282
96.3377
95.4247
94.6108
93.917
93.3635
92.9695
92.7534
92.7325
92.9227
93.3385
93.993
94.8976
96.0619
97.4939
99.1996
101.183
103.447
105.992
108.815
111.915
115.285
118.921
122.812
126.95
131.324
135.922
140.731
145.736
150.925
156.281
161.788
167.429
173.186
179.041
184.973
190.961
196.983
99.4624
98.3977
97.367
96.3917
95.4935
94.6941
94.0142
93.474
93.0927
92.8887
92.8793
93.0801
93.5059
94.1696
95.0826
96.2546
97.6934
99.4052
101.394
103.662
106.21
109.036
112.137
115.508
119.143
123.032
127.167
131.535
136.127
140.927
145.922
151.097
156.437
161.927
167.548
173.285
179.118
185.028
190.994
196.994
99.4712
98.4241
97.4109
96.4527
95.5712
94.7879
94.1235
93.5981
93.231
93.0402
93.0431
93.2555
93.6918
94.3651
95.2867
96.4663
97.9117
99.6291
101.622
103.894
106.445
109.272
112.374
115.745
119.377
123.264
127.395
131.759
136.343
141.134
146.118
151.279
156.604
162.075
167.677
173.391
179.202
185.088
191.03
197.006
99.4812
98.4539
97.4603
96.5212
95.6585
94.8932
94.2461
93.7371
93.3854
93.2092
93.2255
93.4501
93.8976
94.5808
95.5111
96.6982
98.1499
99.8723
101.87
104.144
106.696
109.524
112.625
115.995
119.625
123.508
127.634
131.992
136.568
141.35
146.323
151.471
156.78
162.232
167.813
173.505
179.291
185.152
191.069
197.019
99.4923
98.4873
97.5156
96.5981
95.7561
95.011
94.3831
93.8923
93.5576
93.3971
93.4279
93.6657
94.1248
94.8183
95.7575
96.9519
98.4095
100.136
102.137
104.413
106.966
109.793
112.892
116.259
119.885
123.763
127.884
132.234
136.803
141.575
146.536
151.671
156.963
162.398
167.957
173.625
179.386
185.22
191.11
197.033
99.5048
98.5246
97.5775
96.6839
95.8653
95.1425
94.5358
94.065
93.749
93.6058
93.6523
93.9041
94.3756
95.0798
96.0278
97.2295
98.6926
100.423
102.426
104.703
107.255
110.08
113.177
116.539
120.16
124.032
128.145
132.487
137.046
141.808
146.757
151.878
157.154
162.57
168.108
173.752
179.486
185.292
191.154
197.047
99.5187
98.5664
97.6466
96.7797
95.987
95.289
94.7058
94.2572
93.9617
93.8373
93.9007
94.1675
94.6522
95.3675
96.3247
97.5335
99.0018
100.736
102.74
105.017
107.567
110.389
113.481
116.837
120.451
124.315
128.42
132.752
137.301
142.051
146.987
152.093
157.353
162.749
168.265
173.885
179.592
185.369
191.2
197.062
99.5343
98.6129
97.7236
96.8865
96.1225
95.452
94.8949
94.4706
94.1977
94.0938
94.1756
94.4587
94.9573
95.6843
96.6509
97.8669
99.3402
101.077
103.082
105.358
107.905
110.723
113.809
117.157
120.763
124.618
128.711
133.033
137.569
142.305
147.227
152.317
157.559
162.936
168.43
174.024
179.703
185.45
191.249
197.078
99.5516
98.6647
97.8094
97.0054
96.2733
95.6333
95.1051
94.7076
94.4594
94.3779
94.4798
94.7804
95.294
96.0334
97.0098
98.2331
99.7113
101.451
103.456
105.73
108.273
111.086
114.164
117.504
121.1
124.943
129.024
133.332
137.853
142.575
147.48
152.553
157.776
163.131
168.602
174.171
179.82
185.535
191.301
197.095
99.5709
98.7225
97.9049
97.1377
96.4411
95.8349
95.3384
94.9706
94.7496
94.6927
94.8164
95.1361
95.6658
96.4184
97.4053
98.6362
100.119
101.861
103.866
106.137
108.676
111.482
114.552
117.882
121.466
125.296
129.362
133.655
138.16
142.864
147.75
152.803
158.005
163.338
168.784
174.325
179.944
185.626
191.356
197.114
99.5924
98.7868
98.0112
97.2849
96.6276
96.0589
95.5976
95.2624
95.0713
95.0413
95.1889
95.5292
96.0765
96.8433
97.8413
99.0802
100.568
102.312
104.317
106.585
109.119
111.917
114.977
118.295
121.866
125.681
129.732
134.006
138.493
143.176
148.042
153.073
158.251
163.558
168.977
174.489
180.076
185.722
191.415
197.133
99.6163
98.8583
98.1295
97.4486
96.835
96.3077
95.8854
95.5862
95.4279
95.4275
95.6011
95.964
96.5302
97.3125
98.3224
99.5699
101.063
102.81
104.813
107.078
109.606
112.395
115.445
118.751
122.306
126.105
130.137
134.392
138.857
143.519
148.36
153.366
158.517
163.796
169.185
174.665
180.218
185.827
191.479
197.154
99.6429
98.938
98.2612
97.6308
97.0657
96.5843
96.2049
95.9454
95.8232
95.8552
96.0573
96.4448
97.0316
97.8306
98.8534
100.11
101.609
103.358
105.361
107.622
110.143
112.923
115.961
119.253
122.792
126.573
130.585
134.818
139.26
143.896
148.71
153.688
158.809
164.057
169.412
174.856
180.371
185.939
191.548
197.177
99.6727
99.0269
98.4079
97.8337
97.3224
96.8918
96.5598
96.344
96.2615
96.3289
96.5622
96.9764
97.5856
98.4027
99.4395
100.706
102.212
103.963
105.965
108.222
110.736
113.506
116.531
119.808
123.33
127.091
131.081
135.29
139.705
144.313
149.098
154.044
159.132
164.344
169.661
175.066
180.539
186.063
191.624
197.202
99.7058
99.126
98.5715
98.0598
97.6082
97.2338
96.9542
96.7865
96.7474
96.8536
97.1208
97.5641
98.1976
99.0344
100.086
101.364
102.876
104.63
106.631
108.884
111.39
114.15
117.161
120.422
123.925
127.664
131.631
135.814
140.201
144.778
149.53
154.44
159.49
164.663
169.938
175.298
180.724
186.199
191.709
197.23
99.7429
99.2367
98.7543
98.3121
97.9267
97.6146
97.3927
97.2777
97.2863
97.4347
97.7388
98.2136
98.8734
99.7314
100.8
102.089
103.608
105.365
107.365
109.613
112.112
114.86
117.858
121.101
124.584
128.3
132.241
136.396
140.752
145.295
150.011
154.882
159.891
165.019
170.248
175.558
180.931
186.35
191.802
197.261
99.7844
99.3606
98.9587
98.5941
98.2822
98.0389
97.8806
97.8235
97.884
98.0783
98.4223
98.9311
99.6191
100.5
101.586
102.887
104.414
106.174
108.174
110.418
112.907
115.644
118.626
121.851
125.313
129.005
132.919
137.043
141.366
145.873
150.549
155.378
160.341
165.419
170.595
175.849
181.163
186.52
191.907
197.296
99.831
99.4997
99.1879
98.9098
98.6796
98.5125
98.424
98.4301
98.5471
98.7911
99.178
99.7232
100.441
101.346
102.451
103.766
105.301
107.065
109.064
111.302
113.783
116.508
119.474
122.68
126.119
129.786
133.671
137.763
142.05
146.518
151.151
155.933
160.845
165.869
170.986
176.177
181.424
186.711
192.025
197.336
99.8835
99.6563
99.4457
99.2642
99.1249
99.0417
99.0298
99.1048
99.2829
99.5803
100.013
100.597
101.347
102.278
103.402
104.731
106.275
108.042
110.041
112.274
114.746
117.458
120.408
123.594
127.01
130.65
134.504
138.562
142.812
147.238
151.825
156.556
161.413
166.376
171.428
176.549
181.721
186.928
192.158
197.38
99.943
99.8333
99.7367
99.6634
99.6251
99.6346
99.7064
99.856
100.1
100.454
100.936
101.56
102.344
103.302
104.446
105.789
107.342
109.114
111.111
113.34
115.803
118.501
121.434
124.599
127.992
131.604
135.427
139.449
143.659
148.041
152.578
157.255
162.052
166.949
171.928
176.97
182.058
187.175
192.309
197.431
100.011
100.035
100.067
100.115
100.189
100.3
100.463
100.693
101.007
101.421
101.954
102.621
103.44
104.425
105.59
106.948
108.51
110.286
112.282
114.506
116.959
119.644
122.56
125.704
129.072
132.655
136.446
140.432
144.6
148.935
153.421
158.039
162.771
167.597
172.496
177.451
182.443
187.458
192.483
197.489
100.088
100.265
100.444
100.628
100.827
101.05
101.311
101.627
102.014
102.492
103.077
103.788
104.642
105.654
106.841
108.214
109.785
111.564
113.56
115.778
118.222
120.893
123.792
126.915
130.258
133.812
137.57
141.518
145.644
149.931
154.363
158.92
163.583
168.33
173.142
178
182.885
187.784
192.682
197.557
100.178
100.531
100.877
101.216
101.552
101.897
102.263
102.669
103.134
103.675
104.314
105.069
105.958
106.999
108.205
109.593
111.173
112.956
114.951
117.163
119.598
122.255
125.137
128.239
131.556
135.082
138.806
142.717
146.8
151.039
155.415
159.908
164.498
169.163
173.881
178.631
183.395
188.161
192.914
197.636
100.284
100.843
101.382
101.894
102.382
102.857
103.335
103.835
104.378
104.984
105.676
106.474
107.398
108.465
109.691
111.092
112.681
114.467
116.46
118.667
121.092
123.736
126.6
129.682
132.975
136.472
140.164
144.038
148.078
152.268
156.589
161.018
165.533
170.111
174.728
179.361
183.99
188.603
193.186
197.731
100.41
101.213
101.976
102.683
103.337
103.952
104.545
105.139
105.759
106.43
107.173
108.012
108.968
110.059
111.304
112.718
114.313
116.102
118.093
120.294
122.71
125.341
128.189
131.25
134.52
137.991
141.651
145.489
149.489
153.632
157.898
162.264
166.705
171.194
175.705
180.212
184.691
189.131
193.514
197.848
100.566
101.665
102.689
103.614
104.446
105.203
105.912
106.599
107.294
108.023
108.814
109.691
110.676
111.789
113.05
114.474
116.075
117.866
119.855
122.05
124.456
127.076
129.908
132.951
136.199
139.645
143.277
147.082
151.044
155.143
159.358
163.664
168.033
172.435
176.838
181.213
185.529
189.771
193.916
197.991
100.767
102.236
103.563
104.725
105.741
106.641
107.459
108.233
108.995
109.777
110.61
111.519
112.529
113.661
114.934
116.367
117.972
119.763
121.75
123.939
126.337
128.945
131.763
134.79
138.019
141.442
145.049
148.825
152.754
156.815
160.986
165.238
169.542
173.863
178.164
182.405
186.547
190.566
194.42
198.173
101.044
102.991
104.661
106.069
107.263
108.293
109.21
110.057
110.876
111.702
112.568
113.503
114.532
115.678
116.961
118.4
120.008
121.799
123.782
125.967
128.357
130.955
133.762
136.775
139.988
143.393
146.98
150.733
154.635
158.665
162.799
167.008
171.258
175.512
179.724
183.845
187.815
191.589
195.086
198.42
101.509
104.048
106.066
107.704
109.052
110.19
111.183
112.086
112.947
113.805
114.695
115.648
116.69
117.846
119.136
120.578
122.187
123.977
125.958
128.138
130.522
133.114
135.912
138.915
142.117
145.51
149.082
152.818
156.702
160.71
164.819
168.997
173.209
177.415
181.562
185.592
189.421
192.967
196.061
198.845
102.366
105.653
107.957
109.749
111.192
112.389
113.422
114.353
115.235
116.108
117.01
117.971
119.02
120.179
121.472
122.915
124.524
126.313
128.292
130.469
132.85
135.437
138.23
141.228
144.423
147.809
151.372
155.1
158.973
162.97
167.064
171.225
175.415
179.593
183.703
187.682
191.431
194.847
197.659
199.882
)
;

boundaryField
{
    carasuperior
    {
        type            fixedGradient;
        gradient        uniform 100;
    }
    lateralizquierda
    {
        type            fixedValue;
        value           uniform 100;
    }
    lateralderecha
    {
        type            fixedValue;
        value           uniform 200;
    }
    carainferior
    {
        type            zeroGradient;
    }
    frontAndBack
    {
        type            empty;
    }
}


// ************************************************************************* //
