/*--------------------------------*- C++ -*----------------------------------*\
| =========                 |                                                 |
| \\      /  F ield         | OpenFOAM: The Open Source CFD Toolbox           |
|  \\    /   O peration     | Version:  2.4.0                                 |
|   \\  /    A nd           | Web:      www.OpenFOAM.org                      |
|    \\/     M anipulation  |                                                 |
\*---------------------------------------------------------------------------*/
FoamFile
{
    version     2.0;
    format      ascii;
    class       volScalarField;
    location    "0.0067";
    object      T;
}
// * * * * * * * * * * * * * * * * * * * * * * * * * * * * * * * * * * * * * //

dimensions      [0 0 0 1 0 0 0];

internalField   nonuniform List<scalar> 
4800
(
100.194
100.581
100.968
101.354
101.738
102.117
102.487
102.844
103.182
103.493
100.581
101.742
102.903
104.063
105.217
106.358
107.475
108.552
109.571
110.511
100.968
102.903
104.841
106.778
108.71
110.625
112.503
114.319
116.039
117.626
101.354
104.063
106.779
109.499
112.22
114.927
117.593
120.182
122.64
124.908
101.738
105.218
108.71
112.22
115.744
119.268
122.762
126.174
129.431
132.438
102.117
106.359
110.625
114.927
119.269
123.641
128.012
132.322
136.471
140.314
102.488
107.476
112.504
117.595
122.763
128.013
133.323
138.632
143.816
148.66
102.845
108.554
114.321
120.184
126.177
132.324
138.634
145.068
151.502
157.641
103.182
109.573
116.042
122.644
129.435
136.475
143.819
151.503
159.482
167.46
103.494
110.514
117.631
124.914
132.445
140.32
148.665
157.645
167.462
178.222
100.194
100.581
100.968
101.354
101.738
102.117
102.487
102.844
103.182
103.493
100.581
101.742
102.903
104.063
105.217
106.358
107.475
108.552
109.571
110.511
100.968
102.903
104.841
106.778
108.71
110.625
112.503
114.319
116.039
117.626
101.354
104.063
106.779
109.499
112.22
114.927
117.593
120.182
122.64
124.908
101.738
105.218
108.71
112.22
115.745
119.268
122.762
126.174
129.431
132.438
102.117
106.359
110.625
114.927
119.269
123.641
128.012
132.323
136.471
140.314
102.488
107.476
112.504
117.595
122.763
128.013
133.323
138.633
143.817
148.66
102.845
108.554
114.321
120.184
126.177
132.325
138.634
145.068
151.502
157.641
103.182
109.573
116.042
122.644
129.435
136.475
143.82
151.504
159.482
167.46
103.494
110.514
117.631
124.915
132.445
140.321
148.666
157.646
167.463
178.223
100.194
100.581
100.968
101.354
101.738
102.117
102.487
102.844
103.182
103.493
100.581
101.742
102.903
104.063
105.217
106.358
107.475
108.552
109.571
110.511
100.968
102.903
104.841
106.778
108.71
110.625
112.503
114.319
116.039
117.626
101.354
104.063
106.779
109.499
112.22
114.927
117.593
120.182
122.64
124.908
101.738
105.218
108.71
112.22
115.745
119.268
122.762
126.174
129.431
132.438
102.117
106.359
110.625
114.927
119.269
123.641
128.012
132.323
136.471
140.314
102.488
107.476
112.504
117.595
122.763
128.013
133.323
138.633
143.817
148.66
102.845
108.554
114.321
120.184
126.177
132.325
138.634
145.068
151.502
157.641
103.182
109.573
116.042
122.644
129.435
136.475
143.82
151.504
159.482
167.46
103.494
110.514
117.631
124.915
132.445
140.321
148.666
157.646
167.463
178.223
100.194
100.581
100.968
101.354
101.738
102.117
102.487
102.844
103.182
103.493
100.581
101.742
102.903
104.063
105.217
106.358
107.475
108.552
109.571
110.511
100.968
102.903
104.841
106.778
108.71
110.625
112.503
114.319
116.039
117.626
101.354
104.063
106.779
109.499
112.22
114.927
117.593
120.182
122.64
124.908
101.738
105.218
108.71
112.22
115.744
119.268
122.762
126.174
129.431
132.438
102.117
106.359
110.625
114.927
119.269
123.641
128.012
132.322
136.471
140.314
102.488
107.476
112.504
117.595
122.763
128.013
133.323
138.632
143.816
148.66
102.845
108.554
114.321
120.184
126.177
132.324
138.634
145.068
151.502
157.641
103.182
109.573
116.042
122.644
129.435
136.475
143.819
151.503
159.482
167.46
103.494
110.514
117.631
124.914
132.445
140.32
148.665
157.645
167.462
178.222
103.773
104.016
104.222
104.391
104.526
104.63
104.707
104.762
104.796
104.813
104.813
104.796
104.761
104.707
104.63
104.526
104.391
104.222
104.016
103.773
111.354
112.087
112.704
113.208
113.609
113.916
114.144
114.304
114.405
114.454
114.454
114.405
114.304
114.144
113.916
113.608
113.208
112.703
112.086
111.353
119.045
120.272
121.298
122.13
122.784
123.283
123.65
123.906
124.067
124.145
124.145
124.067
123.905
123.649
123.281
122.782
122.128
121.297
120.271
119.044
126.928
128.659
130.087
131.229
132.114
132.78
133.266
133.602
133.812
133.914
133.913
133.812
133.601
133.265
132.779
132.112
131.227
130.086
128.657
126.926
135.1
137.347
139.164
140.584
141.662
142.459
143.032
143.423
143.667
143.783
143.783
143.666
143.422
143.03
142.457
141.66
140.581
139.162
137.345
135.098
143.687
146.464
148.638
150.28
151.49
152.363
152.978
153.393
153.649
153.77
153.77
153.648
153.392
152.977
152.361
151.488
150.277
148.636
146.462
143.685
152.869
156.186
158.643
160.408
161.654
162.526
163.125
163.522
163.764
163.878
163.878
163.763
163.521
163.123
162.524
161.653
160.406
158.641
156.184
152.867
162.943
166.765
169.342
171.053
172.194
172.96
173.473
173.806
174.007
174.102
174.101
174.007
173.805
173.472
172.959
172.193
171.052
169.34
166.764
162.941
174.494
178.591
180.906
182.268
183.11
183.649
183.999
184.223
184.357
184.419
184.419
184.356
184.223
183.998
183.648
183.109
182.267
180.905
178.591
174.494
188.984
192.199
193.422
194.004
194.328
194.526
194.651
194.73
194.777
194.799
194.799
194.777
194.73
194.651
194.525
194.328
194.003
193.422
192.199
188.983
103.773
104.016
104.222
104.391
104.526
104.63
104.707
104.761
104.796
104.812
104.812
104.795
104.761
104.707
104.629
104.525
104.391
104.222
104.016
103.772
111.354
112.086
112.704
113.208
113.608
113.916
114.144
114.304
114.405
114.454
114.454
114.405
114.303
114.143
113.915
113.607
113.207
112.702
112.085
111.352
119.045
120.272
121.298
122.129
122.783
123.282
123.649
123.905
124.067
124.144
124.144
124.066
123.904
123.648
123.28
122.781
122.127
121.296
120.27
119.043
126.928
128.658
130.087
131.228
132.113
132.78
133.265
133.601
133.812
133.913
133.912
133.811
133.6
133.264
132.778
132.111
131.225
130.084
128.655
126.925
135.1
137.347
139.164
140.583
141.661
142.459
143.031
143.423
143.666
143.783
143.782
143.665
143.421
143.029
142.456
141.658
140.58
139.16
137.343
135.097
143.687
146.464
148.638
150.279
151.489
152.363
152.978
153.392
153.648
153.769
153.769
153.647
153.391
152.976
152.36
151.486
150.276
148.634
146.461
143.683
152.869
156.185
158.643
160.407
161.654
162.525
163.124
163.521
163.763
163.878
163.877
163.762
163.52
163.122
162.523
161.651
160.404
158.64
156.182
152.866
162.943
166.765
169.342
171.053
172.194
172.96
173.472
173.805
174.006
174.101
174.1
174.006
173.804
173.47
172.958
172.192
171.05
169.339
166.762
162.94
174.494
178.591
180.905
182.268
183.109
183.648
183.998
184.222
184.356
184.418
184.418
184.355
184.222
183.997
183.647
183.108
182.266
180.904
178.589
174.492
188.984
192.199
193.422
194.003
194.328
194.525
194.651
194.73
194.777
194.799
194.799
194.777
194.73
194.65
194.525
194.327
194.003
193.421
192.198
188.982
103.773
104.016
104.222
104.391
104.526
104.63
104.707
104.761
104.796
104.812
104.812
104.795
104.761
104.707
104.629
104.525
104.391
104.222
104.016
103.772
111.354
112.086
112.704
113.208
113.608
113.916
114.144
114.304
114.405
114.454
114.454
114.405
114.303
114.143
113.915
113.607
113.207
112.702
112.085
111.352
119.045
120.272
121.298
122.129
122.783
123.282
123.649
123.905
124.067
124.144
124.144
124.066
123.904
123.648
123.28
122.781
122.127
121.296
120.27
119.043
126.928
128.658
130.087
131.228
132.113
132.78
133.265
133.601
133.812
133.913
133.912
133.811
133.6
133.264
132.778
132.111
131.225
130.084
128.655
126.925
135.1
137.347
139.164
140.583
141.661
142.459
143.031
143.423
143.666
143.783
143.782
143.665
143.421
143.029
142.456
141.658
140.58
139.16
137.343
135.097
143.687
146.464
148.638
150.279
151.489
152.363
152.978
153.392
153.648
153.769
153.769
153.647
153.391
152.976
152.36
151.486
150.276
148.634
146.461
143.683
152.869
156.185
158.643
160.407
161.654
162.525
163.124
163.521
163.763
163.878
163.877
163.762
163.52
163.122
162.523
161.651
160.404
158.64
156.182
152.866
162.943
166.765
169.342
171.053
172.194
172.96
173.472
173.805
174.006
174.101
174.1
174.006
173.804
173.47
172.958
172.192
171.05
169.339
166.762
162.94
174.494
178.591
180.905
182.268
183.109
183.648
183.998
184.222
184.356
184.418
184.418
184.355
184.222
183.997
183.647
183.108
182.266
180.904
178.589
174.492
188.984
192.199
193.422
194.003
194.328
194.525
194.651
194.73
194.777
194.799
194.799
194.777
194.73
194.65
194.525
194.327
194.003
193.421
192.198
188.982
103.773
104.016
104.222
104.391
104.526
104.63
104.707
104.762
104.796
104.813
104.813
104.796
104.761
104.707
104.63
104.526
104.391
104.222
104.016
103.773
111.354
112.087
112.704
113.208
113.609
113.916
114.144
114.304
114.405
114.454
114.454
114.405
114.304
114.144
113.916
113.608
113.208
112.703
112.086
111.353
119.045
120.272
121.298
122.13
122.784
123.283
123.65
123.906
124.067
124.145
124.145
124.067
123.905
123.649
123.281
122.782
122.128
121.297
120.271
119.044
126.928
128.659
130.087
131.229
132.114
132.78
133.266
133.602
133.812
133.914
133.913
133.812
133.601
133.265
132.779
132.112
131.227
130.086
128.657
126.926
135.1
137.347
139.164
140.584
141.662
142.459
143.032
143.423
143.667
143.783
143.783
143.666
143.422
143.03
142.457
141.66
140.581
139.162
137.345
135.098
143.687
146.464
148.638
150.28
151.49
152.363
152.978
153.393
153.649
153.77
153.77
153.648
153.392
152.977
152.361
151.488
150.277
148.636
146.462
143.685
152.869
156.186
158.643
160.408
161.654
162.526
163.125
163.522
163.764
163.878
163.878
163.763
163.521
163.123
162.524
161.653
160.406
158.641
156.184
152.867
162.943
166.765
169.342
171.053
172.194
172.96
173.473
173.806
174.007
174.102
174.101
174.007
173.805
173.472
172.959
172.193
171.052
169.34
166.764
162.941
174.494
178.591
180.906
182.268
183.11
183.649
183.999
184.223
184.357
184.419
184.419
184.356
184.223
183.998
183.648
183.109
182.267
180.905
178.591
174.494
188.984
192.199
193.422
194.004
194.328
194.526
194.651
194.73
194.777
194.799
194.799
194.777
194.73
194.651
194.525
194.328
194.003
193.422
192.199
188.983
103.493
103.182
102.844
102.488
102.117
101.738
101.354
100.968
100.581
100.194
110.511
109.571
108.552
107.476
106.359
105.218
104.064
102.904
101.743
100.581
117.625
116.038
114.319
112.503
110.625
108.711
106.779
104.842
102.904
100.968
124.907
122.639
120.181
117.594
114.927
112.221
109.5
106.779
104.064
101.354
132.437
129.43
126.174
122.762
119.269
115.745
112.221
108.711
105.218
101.738
140.313
136.47
132.322
128.012
123.641
119.27
114.929
110.626
106.36
102.117
148.659
143.816
138.633
133.324
128.014
122.765
117.596
112.506
107.477
102.488
157.641
151.502
145.069
138.635
132.326
126.179
120.186
114.323
108.555
102.845
167.461
159.483
151.505
143.822
136.478
129.438
122.646
116.044
109.575
103.183
178.223
167.464
157.648
148.669
140.324
132.448
124.917
117.633
110.516
103.495
103.492
103.181
102.844
102.487
102.116
101.737
101.353
100.967
100.58
100.193
110.509
109.57
108.551
107.474
106.358
105.217
104.062
102.903
101.741
100.58
117.624
116.037
114.317
112.502
110.624
108.709
106.778
104.84
102.903
100.967
124.905
122.638
120.18
117.592
114.926
112.219
109.499
106.778
104.063
101.353
132.435
129.429
126.172
122.761
119.267
115.744
112.22
108.71
105.217
101.737
140.311
136.469
132.321
128.011
123.64
119.268
114.927
110.625
106.359
102.116
148.658
143.814
138.631
133.322
128.012
122.763
117.595
112.504
107.476
102.487
157.639
151.5
145.067
138.633
132.325
126.177
120.184
114.321
108.554
102.845
167.459
159.481
151.503
143.82
136.476
129.436
122.645
116.043
109.573
103.182
178.222
167.461
157.645
148.667
140.322
132.446
124.915
117.631
110.514
103.494
103.492
103.181
102.844
102.487
102.116
101.737
101.353
100.967
100.58
100.193
110.509
109.57
108.551
107.474
106.358
105.217
104.062
102.903
101.741
100.58
117.624
116.037
114.317
112.502
110.624
108.709
106.778
104.84
102.903
100.967
124.905
122.638
120.18
117.592
114.926
112.219
109.499
106.778
104.063
101.353
132.435
129.429
126.172
122.761
119.267
115.744
112.22
108.71
105.217
101.737
140.311
136.469
132.321
128.011
123.64
119.268
114.927
110.625
106.359
102.116
148.658
143.814
138.631
133.322
128.012
122.763
117.595
112.504
107.476
102.487
157.639
151.5
145.067
138.633
132.325
126.177
120.184
114.321
108.554
102.845
167.459
159.481
151.503
143.82
136.476
129.436
122.645
116.043
109.573
103.182
178.222
167.461
157.645
148.667
140.322
132.446
124.915
117.631
110.514
103.494
103.493
103.182
102.844
102.488
102.117
101.738
101.354
100.968
100.581
100.194
110.511
109.571
108.552
107.476
106.359
105.218
104.064
102.904
101.743
100.581
117.625
116.038
114.319
112.503
110.625
108.711
106.779
104.842
102.904
100.968
124.907
122.639
120.181
117.594
114.927
112.221
109.5
106.779
104.064
101.354
132.437
129.43
126.174
122.762
119.269
115.745
112.221
108.711
105.218
101.738
140.313
136.47
132.322
128.012
123.641
119.27
114.929
110.626
106.36
102.117
148.659
143.816
138.633
133.324
128.014
122.765
117.596
112.506
107.477
102.488
157.641
151.502
145.069
138.635
132.326
126.179
120.186
114.323
108.555
102.845
167.461
159.483
151.505
143.822
136.478
129.438
122.646
116.044
109.575
103.183
178.223
167.464
157.648
148.669
140.324
132.448
124.917
117.633
110.516
103.495
188.986
174.501
162.952
152.881
143.701
135.114
126.941
119.055
111.361
103.775
192.203
178.6
166.78
156.203
146.484
137.366
128.676
120.286
112.096
104.02
193.427
180.919
169.361
158.668
148.665
139.191
130.112
121.318
112.717
104.227
194.01
182.286
171.08
160.441
150.317
140.62
131.262
122.156
113.226
104.397
194.336
183.134
172.231
161.7
151.54
141.712
132.159
122.82
113.632
104.534
194.537
183.681
173.01
162.588
152.432
142.528
132.842
123.331
113.948
104.641
194.667
184.043
173.54
163.209
153.072
143.125
133.35
123.716
114.187
104.722
194.751
184.283
173.899
163.638
153.521
143.551
133.716
123.996
114.362
104.782
194.806
184.439
174.134
163.923
153.823
143.84
133.968
124.19
114.484
104.823
194.838
184.532
174.275
164.095
154.009
144.02
134.126
124.312
114.562
104.85
194.853
184.573
174.34
164.176
154.096
144.106
134.202
124.372
114.6
104.863
194.851
184.569
174.335
164.171
154.094
144.106
134.204
124.375
114.602
104.864
194.833
184.518
174.258
164.082
154.002
144.021
134.133
124.322
114.569
104.853
194.794
184.409
174.1
163.896
153.812
143.845
133.984
124.21
114.5
104.829
194.728
184.226
173.835
163.591
153.505
143.564
133.749
124.035
114.392
104.793
194.619
183.931
173.423
163.131
153.052
143.158
133.415
123.788
114.242
104.742
194.433
183.458
172.794
162.46
152.415
142.602
132.967
123.462
114.044
104.676
194.088
182.673
171.837
161.503
151.548
141.871
132.391
123.048
113.795
104.593
193.333
181.309
170.381
160.167
150.407
140.944
131.68
122.547
113.497
104.494
191.269
178.85
168.216
158.379
148.972
139.823
130.839
121.963
113.153
104.381
188.984
174.499
162.95
152.879
143.699
135.112
126.939
119.053
111.359
103.774
192.201
178.598
166.777
156.201
146.482
137.364
128.674
120.284
112.094
104.019
193.425
180.916
169.359
158.665
148.662
139.189
130.11
121.316
112.715
104.226
194.008
182.283
171.077
160.438
150.314
140.618
131.26
122.154
113.224
104.396
194.335
183.131
172.228
161.697
151.537
141.709
132.156
122.817
113.63
104.533
194.535
183.678
173.007
162.585
152.429
142.525
132.84
123.329
113.946
104.64
194.665
184.04
173.537
163.207
153.069
143.122
133.347
123.714
114.185
104.721
194.749
184.28
173.896
163.635
153.518
143.548
133.714
123.994
114.361
104.781
194.804
184.436
174.131
163.919
153.82
143.838
133.965
124.188
114.482
104.822
194.836
184.528
174.272
164.092
154.005
144.017
134.123
124.31
114.559
104.848
194.851
184.57
174.336
164.172
154.093
144.103
134.199
124.37
114.597
104.861
194.849
184.566
174.331
164.168
154.091
144.103
134.201
124.372
114.6
104.862
194.831
184.514
174.255
164.078
153.999
144.018
134.13
124.319
114.567
104.851
194.792
184.406
174.096
163.892
153.808
143.842
133.981
124.207
114.498
104.828
194.726
184.222
173.831
163.588
153.501
143.561
133.746
124.032
114.39
104.792
194.616
183.927
173.419
163.128
153.048
143.155
133.412
123.785
114.239
104.741
194.431
183.454
172.79
162.457
152.412
142.599
132.964
123.459
114.041
104.675
194.086
182.669
171.833
161.499
151.545
141.868
132.388
123.045
113.793
104.592
193.331
181.305
170.377
160.163
150.403
140.941
131.676
122.544
113.495
104.493
191.266
178.846
168.212
158.375
148.968
139.82
130.836
121.96
113.151
104.379
188.984
174.499
162.95
152.879
143.699
135.112
126.939
119.053
111.359
103.774
192.201
178.598
166.777
156.201
146.482
137.364
128.674
120.284
112.094
104.019
193.425
180.916
169.359
158.665
148.662
139.189
130.11
121.316
112.715
104.226
194.008
182.283
171.077
160.438
150.314
140.618
131.26
122.154
113.224
104.396
194.335
183.131
172.228
161.697
151.537
141.709
132.156
122.817
113.63
104.533
194.535
183.678
173.007
162.585
152.429
142.525
132.84
123.329
113.946
104.64
194.665
184.04
173.537
163.207
153.069
143.122
133.347
123.714
114.185
104.721
194.749
184.28
173.896
163.635
153.518
143.548
133.714
123.994
114.361
104.781
194.804
184.436
174.131
163.919
153.82
143.838
133.965
124.188
114.482
104.822
194.836
184.528
174.272
164.092
154.005
144.017
134.123
124.31
114.559
104.848
194.851
184.57
174.336
164.172
154.093
144.103
134.199
124.37
114.597
104.861
194.849
184.566
174.331
164.168
154.091
144.103
134.201
124.372
114.6
104.862
194.831
184.514
174.255
164.078
153.999
144.018
134.13
124.319
114.567
104.851
194.792
184.406
174.096
163.892
153.808
143.842
133.981
124.207
114.498
104.828
194.726
184.222
173.831
163.588
153.501
143.561
133.746
124.032
114.39
104.792
194.616
183.927
173.419
163.128
153.048
143.155
133.412
123.785
114.239
104.741
194.431
183.454
172.79
162.457
152.412
142.599
132.964
123.459
114.041
104.675
194.086
182.669
171.833
161.499
151.545
141.868
132.388
123.045
113.793
104.592
193.331
181.305
170.377
160.163
150.403
140.941
131.676
122.544
113.495
104.493
191.266
178.846
168.212
158.375
148.968
139.82
130.836
121.96
113.151
104.379
188.986
174.501
162.952
152.881
143.701
135.114
126.941
119.055
111.361
103.775
192.203
178.6
166.78
156.203
146.484
137.366
128.676
120.286
112.096
104.02
193.427
180.919
169.361
158.668
148.665
139.191
130.112
121.318
112.717
104.227
194.01
182.286
171.08
160.441
150.317
140.62
131.262
122.156
113.226
104.397
194.336
183.134
172.231
161.7
151.54
141.712
132.159
122.82
113.632
104.534
194.537
183.681
173.01
162.588
152.432
142.528
132.842
123.331
113.948
104.641
194.667
184.043
173.54
163.209
153.072
143.125
133.35
123.716
114.187
104.722
194.751
184.283
173.899
163.638
153.521
143.551
133.716
123.996
114.362
104.782
194.806
184.439
174.134
163.923
153.823
143.84
133.968
124.19
114.484
104.823
194.838
184.532
174.275
164.095
154.009
144.02
134.126
124.312
114.562
104.85
194.853
184.573
174.34
164.176
154.096
144.106
134.202
124.372
114.6
104.863
194.851
184.569
174.335
164.171
154.094
144.106
134.204
124.375
114.602
104.864
194.833
184.518
174.258
164.082
154.002
144.021
134.133
124.322
114.569
104.853
194.794
184.409
174.1
163.896
153.812
143.845
133.984
124.21
114.5
104.829
194.728
184.226
173.835
163.591
153.505
143.564
133.749
124.035
114.392
104.793
194.619
183.931
173.423
163.131
153.052
143.158
133.415
123.788
114.241
104.742
194.433
183.458
172.794
162.46
152.415
142.602
132.967
123.462
114.044
104.676
194.088
182.673
171.837
161.503
151.548
141.871
132.391
123.048
113.795
104.593
193.333
181.309
170.382
160.167
150.407
140.944
131.68
122.547
113.497
104.494
191.269
178.85
168.216
158.379
148.972
139.823
130.839
121.963
113.153
104.381
184.156
174.611
165.256
156.167
147.283
138.54
129.895
121.314
112.774
104.256
177.909
170.187
162.035
153.757
145.457
137.166
128.89
120.627
112.373
104.124
172.872
166.201
158.948
151.376
143.629
135.783
127.877
119.935
111.97
103.991
168.844
162.805
156.187
149.178
141.909
134.466
126.906
119.269
111.581
103.864
165.632
159.998
153.827
147.249
140.37
133.273
126.02
118.657
111.222
103.746
163.1
157.739
151.885
145.63
139.058
132.244
125.249
118.123
110.908
103.642
161.157
155.985
150.355
144.336
137.997
131.405
124.615
117.681
110.648
103.556
159.744
154.7
149.223
143.37
137.199
130.768
124.133
117.344
110.448
103.491
158.822
153.858
148.477
142.73
136.667
130.343
123.81
117.118
110.313
103.446
158.367
153.441
148.108
142.411
136.402
130.13
123.648
117.005
110.247
103.429
184.153
174.607
165.252
156.164
147.279
138.537
129.892
121.311
112.771
104.254
177.906
170.184
162.032
153.754
145.454
137.163
128.887
120.624
112.371
104.123
172.869
166.198
158.944
151.373
143.626
135.78
127.874
119.932
111.967
103.99
168.841
162.802
156.184
149.175
141.905
134.463
126.903
119.265
111.578
103.862
165.63
159.996
153.824
147.246
140.367
133.27
126.016
118.654
111.219
103.744
163.097
157.737
151.882
145.627
139.055
132.241
125.245
118.119
110.905
103.64
161.154
155.982
150.352
144.332
137.994
131.401
124.611
117.677
110.644
103.554
159.741
154.697
149.22
143.367
137.195
130.764
124.129
117.339
110.443
103.487
158.819
153.855
148.475
142.727
136.664
130.339
123.805
117.112
110.307
103.442
158.364
153.439
148.105
142.408
136.398
130.126
123.643
116.999
110.24
103.422
184.153
174.607
165.252
156.164
147.279
138.537
129.892
121.311
112.771
104.254
177.906
170.184
162.032
153.754
145.454
137.163
128.887
120.624
112.371
104.123
172.869
166.198
158.944
151.373
143.626
135.78
127.874
119.932
111.967
103.99
168.841
162.802
156.184
149.175
141.905
134.463
126.903
119.265
111.578
103.862
165.63
159.996
153.824
147.246
140.367
133.27
126.016
118.654
111.219
103.744
163.097
157.737
151.882
145.627
139.055
132.241
125.245
118.119
110.905
103.64
161.154
155.982
150.352
144.332
137.994
131.401
124.611
117.677
110.644
103.554
159.741
154.697
149.22
143.367
137.195
130.764
124.129
117.339
110.443
103.487
158.819
153.855
148.474
142.727
136.663
130.339
123.805
117.112
110.307
103.442
158.364
153.438
148.105
142.408
136.398
130.126
123.643
116.999
110.24
103.422
184.156
174.611
165.256
156.167
147.283
138.54
129.895
121.314
112.774
104.256
177.91
170.187
162.035
153.757
145.457
137.166
128.89
120.627
112.373
104.124
172.872
166.201
158.948
151.376
143.629
135.783
127.877
119.935
111.97
103.991
168.844
162.805
156.187
149.178
141.909
134.466
126.906
119.269
111.581
103.863
165.632
159.998
153.827
147.249
140.37
133.273
126.02
118.657
111.222
103.746
163.1
157.739
151.885
145.63
139.058
132.244
125.249
118.123
110.908
103.642
161.157
155.985
150.355
144.336
137.997
131.404
124.615
117.681
110.648
103.556
159.744
154.7
149.223
143.37
137.199
130.768
124.133
117.344
110.448
103.491
158.821
153.857
148.477
142.73
136.667
130.343
123.81
117.118
110.313
103.446
158.366
153.441
148.107
142.411
136.401
130.13
123.648
117.005
110.247
103.429
192.836
195.608
196.782
197.42
197.824
198.101
198.295
198.428
198.512
198.553
198.553
198.513
198.43
198.297
198.103
197.827
197.423
196.785
195.61
192.838
184.423
188.423
190.887
192.495
193.602
194.388
194.948
195.336
195.581
195.7
195.701
195.583
195.339
194.953
194.394
193.609
192.502
190.894
188.43
184.428
178.53
182.779
185.851
188.075
189.705
190.905
191.779
192.391
192.78
192.97
192.972
192.784
192.396
191.787
190.915
189.716
188.087
185.862
182.791
178.54
174.06
178.32
181.668
184.258
186.246
187.757
188.879
189.676
190.187
190.438
190.439
190.192
189.684
188.89
187.77
186.262
184.275
181.686
178.338
174.078
170.57
174.782
178.251
181.051
183.274
185.006
186.315
187.256
187.865
188.165
188.167
187.872
187.267
186.33
185.024
183.296
181.076
178.278
174.809
170.598
167.844
171.997
175.515
178.434
180.806
182.689
184.134
185.182
185.865
186.203
186.206
185.873
185.196
184.153
182.714
180.835
178.467
175.551
172.035
167.883
165.759
169.858
173.393
176.377
178.842
180.825
182.363
183.488
184.225
184.591
184.595
184.236
183.506
182.388
180.856
178.879
176.42
173.44
169.909
165.811
164.243
168.301
171.837
174.856
177.376
179.423
181.022
182.199
182.973
183.359
183.363
182.986
182.221
181.052
179.461
177.421
174.908
171.894
168.363
164.309
163.253
167.282
170.814
173.851
176.403
178.487
180.123
181.332
182.129
182.527
182.532
182.144
181.356
180.157
178.53
176.455
173.911
170.881
167.354
163.33
162.763
166.777
170.307
173.351
175.917
178.018
179.672
180.895
181.704
182.108
182.113
181.72
180.922
179.708
178.065
175.973
173.416
170.379
166.856
162.847
192.839
195.61
196.784
197.421
197.825
198.102
198.296
198.429
198.512
198.553
198.553
198.512
198.429
198.296
198.102
197.826
197.421
196.784
195.609
192.836
184.426
188.426
190.889
192.497
193.604
194.389
194.949
195.337
195.581
195.7
195.7
195.582
195.338
194.952
194.392
193.607
192.5
190.892
188.427
184.425
178.533
182.782
185.853
188.078
189.707
190.907
191.78
192.392
192.781
192.97
192.971
192.783
192.395
191.785
190.913
189.714
188.085
185.86
182.788
178.537
174.063
178.323
181.67
184.26
186.248
187.758
188.88
189.676
190.187
190.438
190.439
190.191
189.683
188.889
187.769
186.26
184.273
181.683
178.336
174.075
170.573
174.785
178.254
181.054
183.276
185.007
186.317
187.257
187.865
188.165
188.167
187.871
187.266
186.329
185.023
183.294
181.074
178.275
174.807
170.595
167.847
171.999
175.518
178.436
180.808
182.69
184.135
185.183
185.865
186.203
186.205
185.873
185.195
184.152
182.712
180.834
178.465
175.549
172.032
167.88
165.762
169.861
173.396
176.379
178.844
180.827
182.364
183.489
184.225
184.591
184.594
184.235
183.505
182.387
180.855
178.878
176.418
173.438
169.906
165.809
164.246
168.304
171.839
174.858
177.378
179.424
181.023
182.2
182.973
183.359
183.363
182.985
182.22
181.051
179.459
177.42
174.906
171.892
168.36
164.306
163.256
167.284
170.817
173.853
176.405
178.488
180.124
181.332
182.129
182.527
182.531
182.143
181.355
180.156
178.528
176.453
173.909
170.879
167.351
163.327
162.766
166.78
170.31
173.354
175.919
178.019
179.673
180.896
181.704
182.108
182.113
181.719
180.921
179.707
178.063
175.971
173.414
170.377
166.853
162.844
192.839
195.61
196.784
197.421
197.825
198.102
198.296
198.429
198.512
198.553
198.553
198.512
198.429
198.296
198.102
197.826
197.421
196.784
195.609
192.836
184.426
188.426
190.889
192.497
193.604
194.389
194.949
195.337
195.581
195.7
195.7
195.582
195.338
194.952
194.392
193.607
192.5
190.892
188.427
184.425
178.533
182.782
185.853
188.078
189.707
190.907
191.78
192.392
192.781
192.97
192.971
192.783
192.395
191.785
190.913
189.714
188.085
185.86
182.788
178.537
174.063
178.323
181.67
184.26
186.248
187.758
188.88
189.676
190.187
190.438
190.439
190.191
189.683
188.889
187.769
186.26
184.273
181.683
178.336
174.075
170.574
174.785
178.254
181.054
183.276
185.007
186.317
187.257
187.865
188.165
188.167
187.871
187.266
186.329
185.023
183.294
181.074
178.275
174.807
170.595
167.847
171.999
175.518
178.436
180.808
182.69
184.135
185.183
185.865
186.203
186.205
185.873
185.195
184.152
182.712
180.834
178.465
175.549
172.032
167.88
165.762
169.861
173.396
176.379
178.844
180.827
182.364
183.489
184.225
184.591
184.594
184.235
183.505
182.386
180.855
178.877
176.418
173.438
169.906
165.809
164.246
168.303
171.839
174.858
177.378
179.424
181.023
182.2
182.973
183.359
183.363
182.985
182.219
181.051
179.459
177.419
174.905
171.892
168.36
164.306
163.256
167.284
170.817
173.853
176.404
178.488
180.124
181.332
182.129
182.527
182.531
182.143
181.355
180.156
178.528
176.452
173.908
170.878
167.351
163.327
162.766
166.78
170.31
173.353
175.919
178.019
179.673
180.896
181.704
182.107
182.112
181.719
180.921
179.707
178.063
175.971
173.414
170.377
166.853
162.844
192.836
195.608
196.782
197.42
197.824
198.101
198.295
198.428
198.512
198.553
198.553
198.513
198.43
198.297
198.103
197.827
197.423
196.785
195.61
192.838
184.423
188.423
190.887
192.495
193.602
194.388
194.948
195.336
195.581
195.7
195.701
195.583
195.339
194.953
194.394
193.609
192.502
190.894
188.43
184.428
178.53
182.779
185.851
188.075
189.705
190.905
191.779
192.391
192.78
192.971
192.972
192.784
192.396
191.787
190.915
189.716
188.087
185.862
182.791
178.54
174.06
178.32
181.668
184.258
186.246
187.757
188.879
189.676
190.187
190.438
190.439
190.192
189.684
188.89
187.77
186.262
184.275
181.686
178.338
174.078
170.57
174.782
178.251
181.051
183.274
185.006
186.316
187.256
187.865
188.165
188.167
187.872
187.267
186.33
185.024
183.296
181.076
178.278
174.809
170.598
167.844
171.997
175.515
178.434
180.806
182.689
184.134
185.182
185.865
186.203
186.206
185.873
185.196
184.153
182.714
180.835
178.467
175.551
172.035
167.883
165.759
169.859
173.393
176.377
178.842
180.825
182.363
183.488
184.225
184.591
184.595
184.236
183.506
182.388
180.856
178.879
176.42
173.44
169.909
165.811
164.243
168.301
171.836
174.856
177.376
179.423
181.022
182.199
182.973
183.359
183.363
182.986
182.22
181.052
179.46
177.421
174.907
171.894
168.363
164.308
163.253
167.281
170.814
173.851
176.403
178.486
180.123
181.331
182.129
182.527
182.532
182.143
181.356
180.157
178.53
176.454
173.91
170.88
167.354
163.329
162.763
166.777
170.307
173.351
175.917
178.018
179.672
180.895
181.703
182.107
182.113
181.719
180.921
179.708
178.064
175.972
173.415
170.379
166.855
162.847
104.256
112.775
121.317
129.9
138.547
147.29
156.173
165.26
174.613
184.155
104.124
112.374
120.63
128.894
137.171
145.462
153.761
162.037
170.187
177.906
103.991
111.969
119.935
127.879
135.785
143.63
151.375
158.945
166.195
172.864
103.862
111.578
119.266
126.904
134.462
141.903
149.17
156.176
162.792
168.828
103.743
111.217
118.65
126.011
133.261
140.355
147.23
153.806
159.974
165.606
103.638
110.9
118.11
125.232
132.222
139.031
145.598
151.85
157.702
163.061
103.551
110.635
117.662
124.589
131.371
137.957
144.29
150.305
155.933
161.104
103.483
110.431
117.317
124.095
130.721
137.144
143.309
149.158
154.633
159.677
103.437
110.293
117.081
123.76
130.283
136.598
142.655
148.399
153.778
158.742
103.41