/*--------------------------------*- C++ -*----------------------------------*\
| =========                 |                                                 |
| \\      /  F ield         | OpenFOAM: The Open Source CFD Toolbox           |
|  \\    /   O peration     | Version:  2.4.0                                 |
|   \\  /    A nd           | Web:      www.OpenFOAM.org                      |
|    \\/     M anipulation  |                                                 |
\*---------------------------------------------------------------------------*/
FoamFile
{
    version     2.0;
    format      ascii;
    class       volScalarField;
    location    "0.0093";
    object      T;
}
// * * * * * * * * * * * * * * * * * * * * * * * * * * * * * * * * * * * * * //

dimensions      [0 0 0 1 0 0 0];

internalField   nonuniform List<scalar> 
4800
(
100.194
100.581
100.968
101.354
101.738
102.117
102.487
102.844
103.182
103.493
100.581
101.742
102.903
104.063
105.217
106.359
107.475
108.552
109.571
110.511
100.968
102.904
104.841
106.779
108.71
110.625
112.503
114.319
116.039
117.626
101.354
104.063
106.779
109.5
112.22
114.927
117.594
120.182
122.64
124.908
101.738
105.218
108.711
112.221
115.745
119.269
122.762
126.174
129.431
132.439
102.117
106.359
110.625
114.928
119.269
123.641
128.012
132.323
136.471
140.314
102.488
107.476
112.504
117.595
122.764
128.013
133.323
138.633
143.817
148.66
102.845
108.554
114.321
120.184
126.177
132.325
138.634
145.068
151.502
157.641
103.182
109.573
116.042
122.644
129.435
136.475
143.82
151.504
159.482
167.46
103.494
110.514
117.631
124.915
132.445
140.321
148.666
157.645
167.462
178.222
100.194
100.581
100.968
101.354
101.738
102.117
102.487
102.844
103.182
103.493
100.581
101.742
102.903
104.063
105.217
106.359
107.475
108.552
109.571
110.511
100.968
102.903
104.841
106.779
108.71
110.625
112.503
114.319
116.039
117.626
101.354
104.063
106.779
109.5
112.22
114.927
117.594
120.182
122.64
124.908
101.738
105.218
108.711
112.221
115.745
119.269
122.762
126.174
129.431
132.438
102.117
106.359
110.625
114.928
119.269
123.641
128.012
132.323
136.471
140.314
102.488
107.476
112.505
117.595
122.764
128.013
133.323
138.633
143.817
148.66
102.845
108.554
114.321
120.185
126.177
132.325
138.634
145.068
151.502
157.641
103.183
109.573
116.043
122.645
129.436
136.476
143.82
151.504
159.482
167.46
103.494
110.515
117.631
124.915
132.446
140.322
148.667
157.646
167.463
178.223
100.194
100.581
100.968
101.354
101.738
102.117
102.487
102.844
103.182
103.493
100.581
101.742
102.903
104.063
105.217
106.359
107.475
108.552
109.571
110.511
100.968
102.903
104.841
106.779
108.71
110.625
112.503
114.319
116.039
117.626
101.354
104.063
106.779
109.5
112.22
114.927
117.594
120.182
122.64
124.908
101.738
105.218
108.711
112.221
115.745
119.269
122.762
126.174
129.431
132.438
102.117
106.359
110.625
114.928
119.269
123.641
128.012
132.323
136.471
140.314
102.488
107.476
112.505
117.595
122.764
128.013
133.323
138.633
143.817
148.66
102.845
108.554
114.321
120.185
126.177
132.325
138.634
145.068
151.502
157.641
103.183
109.573
116.043
122.645
129.436
136.476
143.82
151.504
159.482
167.46
103.494
110.515
117.631
124.915
132.446
140.322
148.667
157.646
167.463
178.223
100.194
100.581
100.968
101.354
101.738
102.117
102.487
102.844
103.182
103.493
100.581
101.742
102.903
104.063
105.217
106.359
107.475
108.552
109.571
110.511
100.968
102.904
104.841
106.779
108.71
110.625
112.503
114.319
116.039
117.626
101.354
104.063
106.779
109.5
112.22
114.927
117.594
120.182
122.64
124.908
101.738
105.218
108.711
112.221
115.745
119.269
122.762
126.174
129.431
132.439
102.117
106.359
110.625
114.928
119.269
123.641
128.012
132.323
136.471
140.314
102.488
107.476
112.504
117.595
122.764
128.013
133.323
138.633
143.817
148.66
102.845
108.554
114.321
120.184
126.177
132.325
138.634
145.068
151.502
157.641
103.182
109.573
116.042
122.644
129.435
136.475
143.82
151.504
159.482
167.46
103.494
110.514
117.631
124.915
132.445
140.321
148.666
157.645
167.462
178.222
103.773
104.016
104.222
104.391
104.526
104.63
104.707
104.762
104.796
104.813
104.813
104.796
104.761
104.707
104.63
104.526
104.391
104.222
104.016
103.773
111.354
112.087
112.704
113.208
113.609
113.916
114.144
114.304
114.405
114.454
114.454
114.405
114.304
114.144
113.916
113.608
113.208
112.703
112.086
111.353
119.045
120.272
121.298
122.13
122.784
123.283
123.65
123.906
124.067
124.145
124.145
124.067
123.905
123.649
123.281
122.782
122.128
121.297
120.271
119.044
126.928
128.659
130.088
131.229
132.114
132.78
133.266
133.602
133.812
133.914
133.913
133.812
133.601
133.265
132.779
132.112
131.227
130.086
128.657
126.927
135.1
137.347
139.164
140.584
141.662
142.459
143.032
143.423
143.667
143.783
143.783
143.666
143.422
143.03
142.457
141.66
140.581
139.162
137.345
135.098
143.687
146.465
148.638
150.28
151.49
152.363
152.978
153.393
153.649
153.77
153.77
153.648
153.392
152.977
152.361
151.488
150.278
148.636
146.462
143.685
152.869
156.186
158.644
160.408
161.655
162.526
163.125
163.522
163.764
163.879
163.878
163.763
163.521
163.123
162.524
161.653
160.406
158.641
156.184
152.867
162.943
166.766
169.342
171.053
172.195
172.96
173.473
173.806
174.007
174.102
174.101
174.007
173.806
173.472
172.959
172.193
171.052
169.341
166.764
162.941
174.495
178.591
180.906
182.268
183.11
183.649
183.999
184.223
184.357
184.419
184.419
184.356
184.223
183.998
183.648
183.109
182.267
180.905
178.591
174.494
188.984
192.199
193.422
194.004
194.328
194.526
194.651
194.73
194.777
194.799
194.799
194.777
194.73
194.651
194.525
194.328
194.003
193.422
192.199
188.983
103.773
104.016
104.222
104.391
104.526
104.63
104.707
104.761
104.796
104.812
104.812
104.796
104.761
104.707
104.629
104.525
104.391
104.222
104.016
103.772
111.354
112.086
112.704
113.208
113.608
113.916
114.144
114.304
114.405
114.454
114.454
114.405
114.303
114.143
113.915
113.607
113.207
112.702
112.085
111.352
119.045
120.272
121.298
122.13
122.783
123.282
123.649
123.905
124.067
124.144
124.144
124.066
123.904
123.648
123.28
122.781
122.127
121.296
120.27
119.043
126.928
128.659
130.087
131.228
132.113
132.78
133.265
133.601
133.812
133.913
133.913
133.811
133.6
133.264
132.778
132.111
131.226
130.084
128.656
126.925
135.1
137.347
139.164
140.583
141.661
142.459
143.031
143.423
143.666
143.783
143.782
143.665
143.421
143.029
142.456
141.658
140.58
139.16
137.343
135.097
143.687
146.464
148.638
150.28
151.489
152.363
152.978
153.392
153.648
153.769
153.769
153.647
153.391
152.976
152.36
151.486
150.276
148.634
146.461
143.684
152.869
156.186
158.643
160.407
161.654
162.525
163.124
163.521
163.763
163.878
163.877
163.762
163.52
163.122
162.523
161.651
160.404
158.64
156.182
152.866
162.943
166.765
169.342
171.053
172.194
172.96
173.472
173.805
174.006
174.101
174.1
174.006
173.804
173.47
172.958
172.192
171.05
169.339
166.762
162.94
174.495
178.591
180.906
182.268
183.109
183.648
183.998
184.222
184.356
184.418
184.418
184.355
184.222
183.997
183.647
183.108
182.266
180.904
178.589
174.492
188.984
192.199
193.422
194.003
194.328
194.525
194.651
194.73
194.777
194.799
194.799
194.777
194.73
194.65
194.525
194.327
194.003
193.421
192.198
188.982
103.773
104.016
104.222
104.391
104.526
104.63
104.707
104.761
104.796
104.812
104.812
104.796
104.761
104.707
104.629
104.525
104.391
104.222
104.016
103.772
111.354
112.086
112.704
113.208
113.608
113.916
114.144
114.304
114.405
114.454
114.454
114.405
114.303
114.143
113.915
113.607
113.207
112.702
112.085
111.352
119.045
120.272
121.298
122.13
122.783
123.282
123.649
123.905
124.067
124.144
124.144
124.066
123.904
123.648
123.28
122.781
122.127
121.296
120.27
119.043
126.928
128.659
130.087
131.228
132.113
132.78
133.265
133.601
133.812
133.913
133.913
133.811
133.6
133.264
132.778
132.111
131.226
130.084
128.656
126.925
135.1
137.347
139.164
140.583
141.661
142.459
143.031
143.423
143.666
143.783
143.782
143.665
143.421
143.029
142.456
141.658
140.58
139.16
137.343
135.097
143.687
146.464
148.638
150.28
151.489
152.363
152.978
153.392
153.648
153.769
153.769
153.647
153.391
152.976
152.36
151.486
150.276
148.634
146.461
143.684
152.869
156.186
158.643
160.407
161.654
162.525
163.124
163.521
163.763
163.878
163.877
163.762
163.52
163.122
162.523
161.651
160.404
158.64
156.182
152.866
162.943
166.765
169.342
171.053
172.194
172.96
173.472
173.805
174.006
174.101
174.1
174.006
173.804
173.47
172.958
172.192
171.05
169.339
166.762
162.94
174.495
178.591
180.906
182.268
183.109
183.648
183.998
184.222
184.356
184.418
184.418
184.355
184.222
183.997
183.647
183.108
182.266
180.904
178.589
174.492
188.984
192.199
193.422
194.003
194.328
194.525
194.651
194.73
194.777
194.799
194.799
194.777
194.73
194.65
194.525
194.327
194.003
193.421
192.198
188.982
103.773
104.016
104.222
104.391
104.526
104.63
104.707
104.762
104.796
104.813
104.813
104.796
104.761
104.707
104.63
104.526
104.391
104.222
104.016
103.773
111.354
112.087
112.704
113.208
113.609
113.916
114.144
114.304
114.405
114.454
114.454
114.405
114.304
114.144
113.916
113.608
113.208
112.703
112.086
111.353
119.045
120.272
121.298
122.13
122.784
123.283
123.65
123.906
124.067
124.145
124.145
124.067
123.905
123.649
123.281
122.782
122.128
121.297
120.271
119.044
126.928
128.659
130.088
131.229
132.114
132.78
133.266
133.602
133.812
133.914
133.913
133.812
133.601
133.265
132.779
132.112
131.227
130.086
128.657
126.927
135.1
137.347
139.164
140.584
141.662
142.459
143.032
143.423
143.667
143.783
143.783
143.666
143.422
143.03
142.457
141.66
140.581
139.162
137.345
135.098
143.687
146.465
148.638
150.28
151.49
152.363
152.978
153.393
153.649
153.77
153.77
153.648
153.392
152.977
152.361
151.488
150.278
148.636
146.462
143.685
152.869
156.186
158.644
160.408
161.655
162.526
163.125
163.522
163.764
163.879
163.878
163.763
163.521
163.123
162.524
161.653
160.406
158.641
156.184
152.867
162.943
166.766
169.342
171.053
172.195
172.96
173.473
173.806
174.007
174.102
174.101
174.007
173.806
173.472
172.959
172.193
171.052
169.341
166.764
162.941
174.495
178.591
180.906
182.268
183.11
183.649
183.999
184.223
184.357
184.419
184.419
184.356
184.223
183.998
183.648
183.109
182.267
180.905
178.591
174.494
188.984
192.199
193.422
194.004
194.328
194.526
194.651
194.73
194.777
194.799
194.799
194.777
194.73
194.651
194.525
194.328
194.003
193.422
192.199
188.983
103.493
103.182
102.845
102.488
102.117
101.738
101.354
100.968
100.581
100.194
110.511
109.571
108.553
107.476
106.359
105.218
104.064
102.904
101.743
100.581
117.625
116.039
114.319
112.503
110.625
108.711
106.779
104.842
102.904
100.968
124.907
122.639
120.182
117.594
114.927
112.221
109.5
106.779
104.064
101.354
132.437
129.43
126.174
122.762
119.269
115.746
112.222
108.711
105.218
101.738
140.313
136.471
132.323
128.013
123.642
119.27
114.929
110.627
106.36
102.117
148.659
143.816
138.633
133.324
128.014
122.765
117.597
112.506
107.477
102.488
157.641
151.503
145.069
138.636
132.327
126.179
120.186
114.323
108.555
102.845
167.461
159.483
151.506
143.822
136.478
129.438
122.647
116.045
109.575
103.183
178.224
167.464
157.648
148.669
140.324
132.449
124.918
117.634
110.516
103.495
103.492
103.181
102.844
102.487
102.116
101.737
101.353
100.967
100.58
100.193
110.509
109.57
108.551
107.474
106.358
105.217
104.063
102.903
101.741
100.58
117.624
116.037
114.318
112.502
110.624
108.709
106.778
104.84
102.903
100.967
124.905
122.638
120.18
117.592
114.926
112.219
109.499
106.778
104.063
101.353
132.436
129.429
126.173
122.761
119.268
115.744
112.22
108.71
105.217
101.737
140.311
136.469
132.321
128.011
123.64
119.269
114.927
110.625
106.359
102.117
148.658
143.815
138.631
133.322
128.013
122.763
117.595
112.504
107.476
102.487
157.639
151.501
145.067
138.634
132.325
126.177
120.185
114.321
108.554
102.845
167.459
159.481
151.504
143.82
136.476
129.436
122.645
116.043
109.573
103.182
178.222
167.462
157.646
148.667
140.322
132.447
124.916
117.632
110.515
103.494
103.492
103.181
102.844
102.487
102.116
101.737
101.353
100.967
100.58
100.193
110.509
109.57
108.551
107.474
106.358
105.217
104.063
102.903
101.741
100.58
117.624
116.037
114.318
112.502
110.624
108.709
106.778
104.84
102.903
100.967
124.905
122.638
120.18
117.592
114.926
112.219
109.499
106.778
104.063
101.353
132.436
129.429
126.173
122.761
119.268
115.744
112.22
108.71
105.217
101.737
140.311
136.469
132.321
128.011
123.64
119.269
114.927
110.625
106.359
102.117
148.658
143.815
138.631
133.322
128.013
122.763
117.595
112.504
107.476
102.487
157.639
151.501
145.067
138.634
132.325
126.177
120.185
114.321
108.554
102.845
167.459
159.481
151.504
143.82
136.476
129.436
122.645
116.043
109.573
103.182
178.222
167.462
157.646
148.667
140.322
132.447
124.916
117.632
110.515
103.494
103.493
103.182
102.845
102.488
102.117
101.738
101.354
100.968
100.581
100.194
110.511
109.571
108.553
107.476
106.359
105.218
104.064
102.904
101.743
100.581
117.625
116.039
114.319
112.503
110.625
108.711
106.779
104.842
102.904
100.968
124.907
122.639
120.182
117.594
114.927
112.221
109.5
106.779
104.064
101.354
132.437
129.43
126.174
122.762
119.269
115.746
112.222
108.711
105.218
101.738
140.313
136.471
132.323
128.013
123.642
119.27
114.929
110.627
106.36
102.117
148.659
143.816
138.633
133.324
128.014
122.765
117.597
112.506
107.477
102.488
157.641
151.503
145.069
138.636
132.327
126.179
120.186
114.323
108.555
102.845
167.461
159.483
151.506
143.822
136.478
129.438
122.647
116.045
109.575
103.183
178.224
167.464
157.648
148.669
140.324
132.449
124.918
117.634
110.516
103.495
188.986
174.501
162.953
152.882
143.702
135.115
126.941
119.056
111.361
103.775
192.203
178.601
166.78
156.204
146.485
137.367
128.677
120.287
112.096
104.02
193.427
180.919
169.362
158.669
148.666
139.192
130.113
121.318
112.717
104.227
194.01
182.286
171.081
160.442
150.318
140.622
131.263
122.157
113.226
104.398
194.337
183.134
172.232
161.702
151.542
141.714
132.16
122.821
113.633
104.534
194.537
183.682
173.012
162.59
152.434
142.53
132.844
123.333
113.949
104.641
194.667
184.044
173.543
163.212
153.075
143.128
133.353
123.718
114.189
104.723
194.752
184.285
173.902
163.642
153.525
143.555
133.72
123.999
114.364
104.782
194.807
184.441
174.138
163.927
153.828
143.846
133.973
124.194
114.487
104.824
194.84
184.535
174.28
164.102
154.015
144.027
134.132
124.317
114.565
104.851
194.854
184.578
174.346
164.184
154.105
144.115
134.21
124.378
114.604
104.864
194.853
184.575
174.343
164.182
154.105
144.118
134.214
124.383
114.607
104.865
194.836
184.525
174.269
164.096
154.017
144.036
134.146
124.332
114.576
104.855
194.798
184.419
174.114
163.914
153.831
143.864
134.001
124.223
114.509
104.832
194.733
184.239
173.854
163.615
153.53
143.589
133.771
124.052
114.403
104.797
194.625
183.948
173.448
163.162
153.085
143.19
133.444
123.81
114.255
104.747
194.442
183.481
172.828
162.501
152.458
142.643
133.003
123.489
114.061
104.682
194.1
182.705
171.884
161.556
151.604
141.923
132.436
123.083
113.817
104.601
193.352
181.356
170.445
160.238
150.479
141.011
131.736
122.589
113.524
104.503
191.305
178.921
168.304
158.473
149.063
139.906
130.909
122.015
113.186
104.392
188.985
174.499
162.951
152.88
143.699
135.113
126.939
119.054
111.359
103.774
192.201
178.599
166.778
156.202
146.482
137.365
128.675
120.285
112.095
104.019
193.425
180.917
169.36
158.666
148.664
139.19
130.111
121.317
112.715
104.226
194.008
182.284
171.078
160.44
150.316
140.619
131.261
122.155
113.225
104.397
194.335
183.132
172.229
161.699
151.539
141.711
132.158
122.819
113.631
104.533
194.536
183.679
173.009
162.587
152.432
142.527
132.842
123.331
113.947
104.64
194.665
184.041
173.539
163.209
153.072
143.125
133.35
123.716
114.187
104.722
194.75
184.282
173.899
163.639
153.522
143.552
133.717
123.997
114.362
104.781
194.805
184.438
174.134
163.924
153.825
143.843
133.97
124.192
114.485
104.823
194.837
184.531
174.277
164.098
154.012
144.024
134.129
124.315
114.563
104.85
194.852
184.574
174.343
164.18
154.102
144.112
134.207
124.376
114.601
104.863
194.851
184.571
174.34
164.179
154.102
144.115
134.211
124.38
114.605
104.864
194.833
184.521
174.266
164.092
154.014
144.033
134.143
124.329
114.573
104.854
194.795
184.415
174.11
163.91
153.828
143.861
133.998
124.221
114.506
104.831
194.73
184.235
173.85
163.611
153.527
143.586
133.768
124.049
114.401
104.795
194.622
183.944
173.444
163.158
153.082
143.187
133.44
123.807
114.253
104.746
194.439
183.477
172.824
162.497
152.455
142.64
133
123.486
114.059
104.68
194.098
182.701
171.879
161.552
151.6
141.92
132.433
123.08
113.815
104.599
193.35
181.352
170.441
160.234
150.475
141.007
131.733
122.586
113.522
104.502
191.302
178.917
168.3
158.469
149.06
139.902
130.905
122.012
113.183
104.39
188.985
174.499
162.951
152.88
143.699
135.113
126.939
119.054
111.359
103.774
192.201
178.599
166.778
156.202
146.482
137.365
128.675
120.285
112.095
104.019
193.425
180.917
169.36
158.666
148.664
139.19
130.111
121.317
112.715
104.226
194.008
182.284
171.078
160.44
150.316
140.619
131.261
122.155
113.225
104.397
194.335
183.132
172.229
161.699
151.539
141.711
132.158
122.819
113.631
104.533
194.536
183.679
173.009
162.587
152.432
142.527
132.842
123.331
113.947
104.64
194.665
184.041
173.539
163.209
153.072
143.125
133.35
123.716
114.187
104.722
194.75
184.282
173.899
163.639
153.522
143.552
133.717
123.997
114.362
104.781
194.805
184.438
174.134
163.924
153.825
143.843
133.97
124.192
114.485
104.823
194.837
184.531
174.277
164.098
154.012
144.024
134.129
124.315
114.563
104.85
194.852
184.574
174.343
164.18
154.102
144.112
134.207
124.376
114.601
104.863
194.851
184.571
174.34
164.179
154.102
144.115
134.211
124.38
114.605
104.864
194.833
184.521
174.266
164.092
154.014
144.033
134.143
124.329
114.573
104.854
194.795
184.415
174.11
163.91
153.828
143.861
133.998
124.221
114.506
104.831
194.73
184.235
173.85
163.611
153.527
143.586
133.768
124.049
114.401
104.795
194.622
183.944
173.444
163.158
153.082
143.187
133.44
123.807
114.253
104.746
194.439
183.477
172.824
162.497
152.455
142.64
133
123.486
114.059
104.68
194.098
182.701
171.879
161.552
151.6
141.92
132.433
123.08
113.815
104.599
193.35
181.352
170.441
160.234
150.475
141.007
131.733
122.586
113.522
104.502
191.302
178.917
168.3
158.469
149.06
139.902
130.905
122.012
113.183
104.39
188.986
174.501
162.953
152.882
143.702
135.115
126.941
119.056
111.361
103.775
192.203
178.601
166.78
156.204
146.485
137.367
128.677
120.287
112.096
104.02
193.427
180.919
169.362
158.669
148.666
139.192
130.113
121.318
112.717
104.227
194.01
182.286
171.081
160.442
150.318
140.622
131.263
122.157
113.226
104.398
194.337
183.134
172.232
161.702
151.542
141.714
132.16
122.821
113.633
104.534
194.537
183.682
173.012
162.59
152.434
142.53
132.844
123.333
113.949
104.641
194.667
184.044
173.543
163.212
153.075
143.128
133.353
123.718
114.189
104.723
194.752
184.285
173.902
163.642
153.525
143.555
133.72
123.999
114.364
104.782
194.807
184.441
174.138
163.927
153.828
143.846
133.973
124.194
114.487
104.824
194.84
184.535
174.28
164.102
154.015
144.027
134.132
124.317
114.565
104.851
194.854
184.578
174.346
164.184
154.105
144.115
134.21
124.378
114.604
104.864
194.853
184.575
174.343
164.182
154.105
144.118
134.214
124.383
114.607
104.865
194.836
184.525
174.269
164.096
154.017
144.036
134.146
124.332
114.576
104.855
194.798
184.419
174.114
163.914
153.831
143.864
134.001
124.223
114.509
104.832
194.733
184.239
173.854
163.615
153.53
143.589
133.771
124.052
114.403
104.797
194.625
183.948
173.448
163.162
153.085
143.19
133.444
123.81
114.255
104.747
194.442
183.481
172.828
162.501
152.458
142.643
133.003
123.489
114.061
104.682
194.1
182.705
171.884
161.556
151.604
141.923
132.436
123.083
113.817
104.601
193.352
181.356
170.445
160.238
150.479
141.011
131.736
122.589
113.524
104.503
191.305
178.921
168.304
158.473
149.063
139.906
130.909
122.015
113.186
104.392
184.245
174.721
165.376
156.289
147.398
138.642
129.979
121.377
112.813
104.269
178.06
170.345
162.194
153.91
145.598
137.289
128.991
120.702
112.419
104.14
173.083
166.409
159.148
151.563
143.798
135.928
127.994
120.021
112.022
104.009
169.112
163.061
156.428
149.399
142.105
134.633
127.04
119.367
111.64
103.884
165.951
160.299
154.106
147.501
140.592
133.461
126.17
118.766
111.289
103.768
163.464
158.079
152.197
145.91
139.304
132.451
125.413
118.242
110.981
103.666
161.558
156.357
150.695
144.64
138.263
131.627
124.792
117.809
110.725
103.582
160.173
155.097
149.586
143.693
137.48
131.003
124.319
117.479
110.53
103.518
159.271
154.273
148.855
143.066
136.959
130.587
124.003
117.258
110.398
103.475
158.825
153.865
148.493
142.754
136.699
130.379
123.845
117.147
110.333
103.457
184.241
174.717
165.372
156.285
147.394
138.639
129.976
121.374
112.81
104.267
178.056
170.342
162.191
153.907
145.595
137.286
128.987
120.699
112.416
104.138
173.08
166.405
159.144
151.56
143.794
135.925
127.991
120.018
112.02
104.008
169.109
163.058
156.425
149.395
142.101
134.629
127.037
119.363
111.637
103.882
165.949
160.296
154.103
147.498
140.589
133.457
126.166
118.763
111.286
103.766
163.461
158.076
152.194
145.907
139.3
132.447
125.409
118.238
110.977
103.664
161.555
156.354
150.692
144.637
138.259
131.623
124.788
117.805
110.721
103.58
160.171
155.095
149.583
143.69
137.476
131
124.315
117.474
110.525
103.514
159.268
154.27
148.852
143.063
136.955
130.583
123.998
117.252
110.392
103.47
158.823
153.862
148.49
142.751
136.696
130.375
123.84
117.141
110.326
103.451
184.241
174.717
165.372
156.285
147.394
138.639
129.976
121.374
112.81
104.267
178.056
170.342
162.191
153.907
145.595
137.286
128.987
120.699
112.416
104.138
173.08
166.405
159.144
151.56
143.794
135.925
127.991
120.018
112.02
104.008
169.109
163.058
156.425
149.395
142.101
134.629
127.037
119.363
111.637
103.882
165.949
160.296
154.103
147.498
140.589
133.457
126.166
118.763
111.286
103.766
163.461
158.076
152.194
145.907
139.3
132.447
125.409
118.238
110.977
103.664
161.555
156.354
150.692
144.637
138.259
131.623
124.788
117.805
110.721
103.58
160.171
155.095
149.583
143.69
137.476
131
124.315
117.474
110.525
103.514
159.268
154.27
148.852
143.063
136.956
130.583
123.998
117.252
110.392
103.47
158.823
153.863
148.49
142.752
136.696
130.375
123.84
117.141
110.326
103.451
184.245
174.721
165.376
156.289
147.398
138.642
129.979
121.377
112.813
104.269
178.06
170.345
162.194
153.91
145.598
137.289
128.991
120.702
112.419
104.14
173.083
166.409
159.148
151.563
143.798
135.928
127.994
120.021
112.022
104.009
169.112
163.061
156.428
149.399
142.105
134.633
127.04
119.367
111.64
103.884
165.951
160.299
154.106
147.501
140.592
133.461
126.17
118.766
111.289
103.768
163.464
158.079
152.197
145.91
139.304
132.451
125.413
118.242
110.981
103.666
161.558
156.357
150.695
144.64
138.263
131.627
124.792
117.809
110.725
103.582
160.173
155.097
149.586
143.693
137.48
131.004
124.319
117.479
110.53
103.518
159.271
154.273
148.855
143.066
136.959
130.587
124.003
117.258
110.398
103.475
158.826
153.865
148.493
142.755
136.699
130.379
123.845
117.147
110.333
103.457
192.892
195.655
196.828
197.466
197.871
198.149
198.343
198.477
198.561
198.602
198.602
198.562
198.478
198.345
198.151
197.874
197.469
196.831
195.658
192.894
184.562
188.558
191.021
192.631
193.741
194.529
195.092
195.481
195.727
195.847
195.848
195.729
195.485
195.097
194.535
193.748
192.639
191.029
188.565
184.567
178.741
182.993
186.068
188.298
189.932
191.137
192.014
192.629
193.02
193.211
193.213
193.024
192.634
192.022
191.146
189.943
188.31
186.08
183.005
178.752
174.337
178.605
181.961
184.559
186.555
188.072
189.199
190
190.514
190.767
190.768
190.519
190.008
189.211
188.085
186.571
184.577
181.98
178.624
174.355
170.904
175.13
178.612
181.423
183.656
185.396
186.713
187.659
188.271
188.573
188.575
188.278
187.67
186.728
185.415
183.679
181.449
178.639
175.158
170.932
168.227
172.399
175.934
178.867
181.252
183.145
184.598
185.653
186.34
186.68
186.683
186.349
185.668
184.618
183.17
181.282
178.901
175.971
172.438
168.267
166.183
170.305
173.86
176.861
179.34
181.336
182.883
184.016
184.758
185.126
185.13
184.769
184.034
182.909
181.368
179.378
176.904
173.907
170.357
166.237
164.699
168.782
172.34
175.378
177.915
179.975
181.586
182.771
183.55
183.939
183.943
183.563
182.792
181.616
180.014
177.961
175.431
172.399
168.845
164.766
163.731
167.786
171.343
174.4
176.969
179.068
180.716
181.933
182.736
183.137
183.142
182.751
181.958
180.75
179.112
177.022
174.461
171.411
167.86
163.809
163.252
167.294
170.848
173.914
176.498
178.614
180.279
181.512
182.326
182.733
182.739
182.343
181.539
180.317
178.661
176.554
173.98
170.922
167.374
163.337
192.894
195.657
196.83
197.467
197.872
198.149
198.344
198.477
198.561
198.602
198.602
198.562
198.478
198.345
198.15
197.873
197.468
196.83
195.656
192.892
184.565
188.561
191.024
192.633
193.743
194.531
195.093
195.482
195.728
195.847
195.847
195.729
195.484
195.096
194.534
193.746
192.637
191.026
188.562
184.564
178.744
182.996
186.071
188.3
189.934
191.138
192.015
192.629
193.021
193.211
193.212
193.023
192.633
192.021
191.145
189.941
188.307
186.078
183.002
178.749
174.34
178.608
181.963
184.561
186.557
188.073
189.201
190.001
190.515
190.766
190.768
190.519
190.007
189.209
188.084
186.569
184.575
181.977
178.621
174.352
170.907
175.133
178.614
181.426
183.658
185.398
186.714
187.66
188.272
188.573
188.575
188.277
187.669
186.727
185.414
183.677
181.446
178.637
175.155
170.93
168.23
172.402
175.937
178.869
181.254
183.147
184.599
185.654
186.34
186.68
186.683
186.348
185.666
184.617
183.169
181.28
178.899
175.969
172.436
168.265
166.186
170.308
173.862
176.863
179.342
181.337
182.884
184.016
184.758
185.126
185.129
184.768
184.033
182.907
181.366
179.377
176.902
173.905
170.354
166.234
164.702
168.785
172.342
175.38
177.917
179.977
181.587
182.771
183.55
183.939
183.943
183.563
182.791
181.615
180.012
177.959
175.429
172.396
168.843
164.764
163.733
167.789
171.345
174.402
176.971
179.069
180.717
181.934
182.736
183.137
183.142
182.75
181.957
180.749
179.11
177.02
174.459
171.408
167.858
163.806
163.255
167.296
170.851
173.916
176.499
178.615
180.28
181.513
182.327
182.733
182.738
182.342
181.538
180.316
178.66
176.553
173.978
170.92
167.372
163.335
192.894
195.657
196.83
197.467
197.872
198.149
198.344
198.477
198.561
198.602
198.602
198.562
198.478
198.345
198.15
197.873
197.468
196.83
195.656
192.892
184.565
188.561
191.024
192.633
193.743
194.531
195.093
195.482
195.728
195.847
195.847
195.729
195.484
195.096
194.534
193.746
192.637
191.026
188.562
184.564
178.744
182.996
186.071
188.3
189.934
191.138
192.015
192.629
193.021
193.211
193.212
193.023
192.633
192.021
191.145
189.941
188.307
186.078
183.002
178.749
174.34
178.608
181.963
184.561
186.557
188.073
189.201
190.001
190.515
190.766
190.768
190.519
190.007
189.209
188.084
186.569
184.575
181.977
178.621
174.352
170.907
175.133
178.614
181.426
183.658
185.398
186.714
187.66
188.272
188.573
188.575
188.277
187.669
186.727
185.414
183.677
181.446
178.637
175.155
170.93
168.23
172.402
175.937
178.869
181.254
183.147
184.599
185.654
186.34
186.68
186.683
186.348
185.667
184.617
183.169
181.28
178.899
175.969
172.436
168.265
166.186
170.308
173.862
176.863
179.342
181.337
182.884
184.016
184.758
185.126
185.129
184.768
184.033
182.907
181.366
179.377
176.902
173.905
170.354
166.234
164.702
168.785
172.342
175.381
177.917
179.977
181.587
182.771
183.55
183.939
183.943
183.563
182.792
181.615
180.012
177.959
175.429
172.396
168.843
164.764
163.733
167.789
171.345
174.402
176.971
179.069
180.717
181.934
182.736
183.137
183.142
182.751
181.957
180.749
179.11
177.02
174.459
171.408
167.858
163.806
163.255
167.296
170.851
173.916
176.499
178.615
180.281
181.513
182.327
182.733
182.739
182.342
181.538
180.316
178.66
176.553
173.978
170.92
167.372
163.335
192.892
195.655
196.828
197.466
197.871
198.149
198.343
198.477
198.561
198.602
198.602
198.562
198.478
198.345
198.151
197.874
197.469
196.831
195.658
192.894
184.562
188.558
191.021
192.631
193.741
194.529
195.092
195.481
195.727
195.847
195.848
195.729
195.485
195.097
194.535
193.748
192.639
191.029
188.564
184.567
178.741
182.993
186.068
188.298
189.932
191.137
192.014
192.629
193.02
193.211
193.213
193.024
192.634
192.022
191.146
189.943
188.31
186.08
183.005
178.752
174.336
178.605
181.961
184.559
186.555
188.072
189.199
190
190.514
190.767
190.768
190.519
190.008
189.211
188.085
186.571
184.577
181.98
178.624
174.355
170.904
175.13
178.612
181.423
183.656
185.396
186.713
187.659
188.271
188.573
188.575
188.278
187.67
186.728
185.415
183.679
181.449
178.639
175.158
170.933
168.227
172.399
175.934
178.867
181.252
183.145
184.598
185.653
186.34
186.68
186.683
186.349
185.668
184.618
183.17
181.282
178.901
175.971
172.438
168.268
166.183
170.305
173.86
176.861
179.34
181.336
182.883
184.016
184.758
185.126
185.13
184.769
184.034
182.909
181.368
179.378
176.904
173.908
170.357
166.237
164.699
168.782
172.34
175.378
177.915
179.976
181.586
182.771
183.55
183.939
183.943
183.564
182.793
181.616
180.014
177.961
175.431
172.399
168.846
164.766
163.731
167.786
171.343
174.4
176.969
179.068
180.716
181.933
182.736
183.137
183.142
182.751
181.958
180.751
179.112
177.022
174.461
171.411
167.86
163.809
163.252
167.294
170.849
173.914
176.498
178.614
180.28
181.512
182.327
182.734
182.739
182.343
181.539
180.317
178.661
176.555
173.98
170.922
167.374
163.337
104.269
112.814
121.38
129.984
138.649
147.404
156.294
165.38
174.723
184.243
104.139
112.42
120.704
128.994
137.294
145.602
153.914
162.196
170.344
178.056
104.008
112.022
120.021
127.995
135.929
143.798
151.561
159.144
166.402
173.074
103.882
111.638
119.364
127.037
134.628
142.098
149.389
156.416
163.047
169.095
103.765
111.283
118.759
126.16
133.448
140.576
147.482
154.083
160.274
165.924
103.663
110.972
118.229
125.395
132.428
139.276
145.878
152.161
158.04
163.423
103.577
110.713
117.789
124.764
131.592
138.221
144.593
150.644
156.304
161.503
103.51
110.513
117.451
124.28
130.955
137.424
143.631
149.519
155.029
160.104
103.466
110.377
117.22
123.952
130.525
136.889
142.99
148.775
154.191
159.19