/*--------------------------------*- C++ -*----------------------------------*\
| =========                 |                                                 |
| \\      /  F ield         | OpenFOAM: The Open Source CFD Toolbox           |
|  \\    /   O peration     | Version:  2.4.0                                 |
|   \\  /    A nd           | Web:      www.OpenFOAM.org                      |
|    \\/     M anipulation  |                                                 |
\*---------------------------------------------------------------------------*/
FoamFile
{
    version     2.0;
    format      ascii;
    class       volScalarField;
    location    "0.0055";
    object      T;
}
// * * * * * * * * * * * * * * * * * * * * * * * * * * * * * * * * * * * * * //

dimensions      [0 0 0 1 0 0 0];

internalField   nonuniform List<scalar> 
4800
(
100.194
100.581
100.967
101.354
101.737
102.117
102.487
102.844
103.182
103.493
100.581
101.742
102.903
104.063
105.217
106.358
107.475
108.552
109.571
110.511
100.968
102.903
104.841
106.778
108.71
110.624
112.503
114.319
116.039
117.625
101.354
104.063
106.778
109.499
112.22
114.926
117.593
120.181
122.639
124.908
101.738
105.217
108.71
112.22
115.744
119.268
122.761
126.174
129.43
132.438
102.117
106.359
110.625
114.927
119.268
123.64
128.011
132.322
136.47
140.314
102.487
107.476
112.504
117.594
122.763
128.012
133.322
138.632
143.816
148.66
102.845
108.553
114.32
120.183
126.176
132.323
138.633
145.067
151.501
157.641
103.182
109.573
116.041
122.643
129.434
136.474
143.818
151.503
159.481
167.459
103.494
110.513
117.63
124.913
132.444
140.319
148.664
157.644
167.461
178.222
100.194
100.581
100.968
101.354
101.737
102.117
102.487
102.844
103.182
103.493
100.581
101.742
102.903
104.063
105.217
106.358
107.475
108.552
109.571
110.511
100.968
102.903
104.841
106.778
108.71
110.624
112.503
114.319
116.039
117.625
101.354
104.063
106.778
109.499
112.22
114.926
117.593
120.181
122.639
124.908
101.738
105.217
108.71
112.22
115.744
119.268
122.761
126.174
129.43
132.438
102.117
106.359
110.625
114.927
119.268
123.64
128.011
132.322
136.47
140.314
102.487
107.476
112.504
117.594
122.763
128.012
133.322
138.632
143.816
148.66
102.845
108.553
114.321
120.183
126.176
132.324
138.633
145.067
151.501
157.641
103.182
109.573
116.042
122.643
129.434
136.474
143.819
151.503
159.481
167.459
103.494
110.514
117.63
124.913
132.444
140.32
148.665
157.644
167.462
178.222
100.194
100.581
100.968
101.354
101.737
102.117
102.487
102.844
103.182
103.493
100.581
101.742
102.903
104.063
105.217
106.358
107.475
108.552
109.571
110.511
100.968
102.903
104.841
106.778
108.71
110.624
112.503
114.319
116.039
117.625
101.354
104.063
106.778
109.499
112.22
114.926
117.593
120.181
122.639
124.908
101.738
105.217
108.71
112.22
115.744
119.268
122.761
126.174
129.43
132.438
102.117
106.359
110.625
114.927
119.268
123.64
128.011
132.322
136.47
140.314
102.487
107.476
112.504
117.594
122.763
128.012
133.322
138.632
143.816
148.66
102.845
108.553
114.321
120.183
126.176
132.324
138.633
145.067
151.501
157.641
103.182
109.573
116.042
122.643
129.434
136.474
143.819
151.503
159.481
167.459
103.494
110.514
117.63
124.913
132.444
140.32
148.665
157.644
167.462
178.222
100.194
100.581
100.967
101.354
101.737
102.117
102.487
102.844
103.182
103.493
100.581
101.742
102.903
104.063
105.217
106.358
107.475
108.552
109.571
110.511
100.968
102.903
104.841
106.778
108.71
110.624
112.503
114.319
116.039
117.625
101.354
104.063
106.778
109.499
112.22
114.926
117.593
120.181
122.639
124.908
101.738
105.217
108.71
112.22
115.744
119.268
122.761
126.174
129.43
132.438
102.117
106.359
110.625
114.927
119.268
123.64
128.011
132.322
136.47
140.314
102.487
107.476
112.504
117.594
122.763
128.012
133.322
138.632
143.816
148.66
102.845
108.553
114.32
120.183
126.176
132.323
138.633
145.067
151.501
157.641
103.182
109.573
116.041
122.643
129.434
136.474
143.818
151.503
159.481
167.459
103.494
110.513
117.63
124.913
132.444
140.319
148.664
157.644
167.461
178.222
103.773
104.016
104.222
104.391
104.526
104.63
104.707
104.761
104.796
104.813
104.813
104.796
104.761
104.707
104.63
104.526
104.391
104.222
104.016
103.773
111.354
112.086
112.704
113.208
113.609
113.916
114.144
114.304
114.405
114.454
114.454
114.405
114.304
114.144
113.916
113.608
113.208
112.703
112.086
111.353
119.045
120.272
121.298
122.13
122.783
123.282
123.65
123.906
124.067
124.145
124.145
124.067
123.905
123.649
123.281
122.782
122.128
121.297
120.271
119.044
126.928
128.658
130.087
131.228
132.113
132.78
133.266
133.602
133.812
133.913
133.913
133.812
133.601
133.264
132.779
132.112
131.226
130.085
128.656
126.926
135.1
137.346
139.164
140.583
141.661
142.459
143.031
143.423
143.667
143.783
143.783
143.666
143.422
143.03
142.457
141.659
140.581
139.161
137.344
135.098
143.687
146.464
148.638
150.28
151.49
152.363
152.978
153.393
153.648
153.77
153.77
153.648
153.392
152.976
152.361
151.487
150.277
148.635
146.462
143.685
152.869
156.185
158.643
160.407
161.654
162.525
163.124
163.522
163.764
163.878
163.878
163.763
163.521
163.123
162.524
161.652
160.405
158.641
156.183
152.867
162.942
166.765
169.342
171.053
172.194
172.96
173.472
173.806
174.007
174.101
174.101
174.007
173.805
173.471
172.959
172.193
171.051
169.34
166.764
162.941
174.494
178.591
180.906
182.268
183.11
183.649
183.999
184.223
184.357
184.419
184.419
184.356
184.223
183.998
183.648
183.109
182.267
180.905
178.59
174.493
188.983
192.199
193.422
194.004
194.328
194.526
194.651
194.73
194.777
194.799
194.799
194.777
194.73
194.651
194.525
194.328
194.003
193.422
192.199
188.983
103.772
104.016
104.222
104.391
104.526
104.63
104.707
104.761
104.796
104.812
104.812
104.795
104.761
104.707
104.629
104.525
104.391
104.222
104.016
103.772
111.353
112.086
112.704
113.208
113.608
113.916
114.144
114.304
114.405
114.454
114.454
114.404
114.303
114.143
113.915
113.607
113.207
112.702
112.085
111.352
119.044
120.272
121.298
122.129
122.783
123.282
123.649
123.905
124.066
124.144
124.144
124.066
123.904
123.648
123.28
122.781
122.127
121.296
120.269
119.042
126.927
128.658
130.087
131.228
132.113
132.78
133.265
133.601
133.812
133.913
133.912
133.811
133.6
133.263
132.777
132.11
131.225
130.084
128.655
126.925
135.1
137.346
139.163
140.583
141.661
142.459
143.031
143.423
143.666
143.782
143.782
143.665
143.421
143.029
142.456
141.658
140.58
139.16
137.343
135.096
143.686
146.464
148.637
150.279
151.489
152.363
152.977
153.392
153.648
153.769
153.769
153.647
153.391
152.975
152.36
151.486
150.276
148.634
146.46
143.683
152.868
156.185
158.643
160.407
161.654
162.525
163.124
163.521
163.763
163.877
163.877
163.762
163.52
163.122
162.523
161.651
160.404
158.639
156.182
152.865
162.942
166.765
169.341
171.053
172.194
172.96
173.472
173.805
174.006
174.1
174.1
174.005
173.804
173.47
172.958
172.191
171.05
169.339
166.762
162.939
174.494
178.591
180.905
182.268
183.109
183.648
183.998
184.222
184.356
184.418
184.418
184.355
184.221
183.997
183.647
183.108
182.266
180.903
178.589
174.492
188.983
192.199
193.422
194.003
194.327
194.525
194.651
194.73
194.777
194.799
194.799
194.777
194.73
194.65
194.525
194.327
194.003
193.421
192.198
188.982
103.772
104.016
104.222
104.391
104.526
104.63
104.707
104.761
104.796
104.812
104.812
104.795
104.761
104.707
104.629
104.525
104.391
104.222
104.016
103.772
111.353
112.086
112.704
113.208
113.608
113.916
114.144
114.304
114.405
114.454
114.454
114.404
114.303
114.143
113.915
113.607
113.207
112.702
112.085
111.352
119.044
120.272
121.298
122.129
122.783
123.282
123.649
123.905
124.066
124.144
124.144
124.066
123.904
123.648
123.28
122.781
122.127
121.296
120.269
119.042
126.927
128.658
130.087
131.228
132.113
132.78
133.265
133.601
133.812
133.913
133.912
133.811
133.6
133.263
132.777
132.11
131.225
130.084
128.655
126.925
135.1
137.346
139.163
140.583
141.661
142.459
143.031
143.423
143.666
143.782
143.782
143.665
143.421
143.029
142.456
141.658
140.58
139.16
137.343
135.096
143.686
146.464
148.637
150.279
151.489
152.363
152.977
153.392
153.648
153.769
153.769
153.647
153.391
152.975
152.36
151.486
150.276
148.634
146.46
143.683
152.868
156.185
158.643
160.407
161.654
162.525
163.124
163.521
163.763
163.877
163.877
163.762
163.52
163.122
162.523
161.651
160.404
158.639
156.182
152.865
162.942
166.765
169.341
171.053
172.194
172.96
173.472
173.805
174.006
174.1
174.1
174.005
173.804
173.47
172.958
172.191
171.05
169.339
166.762
162.939
174.494
178.591
180.905
182.268
183.109
183.648
183.998
184.222
184.356
184.418
184.418
184.355
184.221
183.997
183.647
183.108
182.266
180.903
178.589
174.492
188.983
192.199
193.422
194.003
194.327
194.525
194.651
194.73
194.777
194.799
194.799
194.777
194.73
194.65
194.525
194.327
194.003
193.421
192.198
188.982
103.773
104.016
104.222
104.391
104.526
104.63
104.707
104.761
104.796
104.813
104.813
104.796
104.761
104.707
104.63
104.526
104.391
104.222
104.016
103.773
111.354
112.086
112.704
113.208
113.609
113.916
114.144
114.304
114.405
114.454
114.454
114.405
114.304
114.144
113.916
113.608
113.208
112.703
112.086
111.353
119.045
120.272
121.298
122.13
122.783
123.282
123.65
123.906
124.067
124.145
124.145
124.067
123.905
123.649
123.281
122.782
122.128
121.297
120.271
119.044
126.928
128.658
130.087
131.228
132.113
132.78
133.266
133.602
133.812
133.913
133.913
133.812
133.601
133.264
132.779
132.112
131.226
130.085
128.656
126.926
135.1
137.346
139.164
140.583
141.661
142.459
143.031
143.423
143.667
143.783
143.783
143.666
143.422
143.03
142.457
141.659
140.581
139.161
137.344
135.098
143.687
146.464
148.638
150.28
151.49
152.363
152.978
153.393
153.648
153.77
153.77
153.648
153.392
152.976
152.361
151.487
150.277
148.635
146.462
143.685
152.869
156.185
158.643
160.407
161.654
162.525
163.124
163.522
163.764
163.878
163.878
163.763
163.521
163.123
162.524
161.652
160.405
158.641
156.183
152.867
162.942
166.765
169.342
171.053
172.194
172.96
173.472
173.806
174.007
174.101
174.101
174.007
173.805
173.471
172.959
172.193
171.051
169.34
166.764
162.941
174.494
178.591
180.906
182.268
183.11
183.649
183.999
184.223
184.357
184.419
184.419
184.356
184.223
183.998
183.648
183.109
182.267
180.905
178.59
174.493
188.983
192.199
193.422
194.004
194.328
194.526
194.651
194.73
194.777
194.799
194.799
194.777
194.73
194.651
194.525
194.328
194.003
193.422
192.199
188.983
103.493
103.182
102.844
102.487
102.117
101.738
101.354
100.968
100.581
100.194
110.51
109.571
108.552
107.475
106.359
105.218
104.064
102.904
101.743
100.581
117.625
116.038
114.319
112.503
110.625
108.71
106.779
104.841
102.904
100.968
124.906
122.639
120.181
117.593
114.927
112.22
109.5
106.779
104.064
101.354
132.437
129.43
126.174
122.762
119.268
115.745
112.221
108.711
105.218
101.738
140.312
136.47
132.322
128.012
123.641
119.269
114.928
110.626
106.36
102.117
148.659
143.816
138.632
133.323
128.013
122.764
117.596
112.505
107.477
102.488
157.64
151.502
145.068
138.634
132.325
126.178
120.185
114.322
108.555
102.845
167.46
159.482
151.504
143.821
136.476
129.437
122.645
116.043
109.574
103.183
178.223
167.463
157.646
148.667
140.323
132.447
124.916
117.632
110.515
103.495
103.492
103.181
102.844
102.487
102.116
101.737
101.353
100.967
100.58
100.193
110.509
109.569
108.551
107.474
106.357
105.216
104.062
102.903
101.741
100.58
117.623
116.037
114.317
112.501
110.623
108.709
106.777
104.84
102.903
100.967
124.905
122.637
120.179
117.591
114.925
112.219
109.498
106.778
104.063
101.353
132.435
129.428
126.172
122.76
119.267
115.743
112.219
108.71
105.217
101.737
140.311
136.468
132.32
128.01
123.639
119.268
114.926
110.624
106.358
102.116
148.657
143.814
138.63
133.321
128.011
122.762
117.594
112.504
107.476
102.487
157.638
151.5
145.066
138.632
132.324
126.176
120.184
114.321
108.553
102.844
167.458
159.48
151.502
143.819
136.474
129.435
122.644
116.042
109.573
103.182
178.221
167.461
157.644
148.665
140.32
132.445
124.914
117.63
110.514
103.494
103.492
103.181
102.844
102.487
102.116
101.737
101.353
100.967
100.58
100.193
110.509
109.569
108.551
107.474
106.357
105.216
104.062
102.903
101.741
100.58
117.623
116.037
114.317
112.501
110.623
108.709
106.777
104.84
102.903
100.967
124.905
122.637
120.179
117.591
114.925
112.219
109.498
106.778
104.063
101.353
132.435
129.428
126.172
122.76
119.267
115.743
112.219
108.71
105.217
101.737
140.311
136.468
132.32
128.01
123.639
119.268
114.926
110.624
106.358
102.116
148.657
143.814
138.63
133.321
128.011
122.762
117.594
112.504
107.476
102.487
157.638
151.5
145.066
138.632
132.324
126.176
120.184
114.321
108.553
102.844
167.458
159.48
151.502
143.819
136.474
129.435
122.644
116.042
109.573
103.182
178.221
167.461
157.644
148.665
140.32
132.445
124.914
117.63
110.514
103.494
103.493
103.182
102.844
102.487
102.117
101.738
101.354
100.968
100.581
100.194
110.51
109.571
108.552
107.475
106.359
105.218
104.064
102.904
101.743
100.581
117.625
116.038
114.319
112.503
110.625
108.71
106.779
104.841
102.904
100.968
124.906
122.639
120.181
117.593
114.927
112.22
109.5
106.779
104.064
101.354
132.437
129.43
126.174
122.762
119.268
115.745
112.221
108.711
105.218
101.738
140.312
136.47
132.322
128.012
123.641
119.269
114.928
110.626
106.36
102.117
148.659
143.816
138.632
133.323
128.013
122.764
117.596
112.505
107.477
102.488
157.64
151.502
145.068
138.634
132.325
126.178
120.185
114.322
108.555
102.845
167.46
159.482
151.504
143.821
136.476
129.437
122.645
116.043
109.574
103.183
178.223
167.463
157.646
148.667
140.323
132.447
124.916
117.632
110.515
103.495
188.986
174.5
162.951
152.88
143.699
135.112
126.939
119.054
111.36
103.775
192.203
178.599
166.778
156.201
146.482
137.364
128.674
120.285
112.095
104.019
193.426
180.917
169.36
158.665
148.662
139.188
130.109
121.316
112.715
104.226
194.009
182.284
171.077
160.438
150.313
140.617
131.259
122.154
113.224
104.397
194.336
183.132
172.228
161.696
151.536
141.708
132.155
122.817
113.63
104.534
194.536
183.679
173.006
162.583
152.427
142.522
132.837
123.328
113.946
104.64
194.665
184.04
173.535
163.203
153.065
143.118
133.344
123.711
114.184
104.721
194.75
184.279
173.892
163.63
153.512
143.542
133.708
123.99
114.358
104.78
194.804
184.433
174.126
163.912
153.812
143.829
133.958
124.182
114.479
104.822
194.836
184.525
174.264
164.082
153.994
144.005
134.112
124.302
114.555
104.847
194.85
184.565
174.326
164.158
154.077
144.087
134.185
124.359
114.591
104.86
194.847
184.558
174.317
164.149
154.069
144.082
134.182
124.357
114.591
104.86
194.828
184.502
174.235
164.052
153.97
143.99
134.104
124.299
114.555
104.848
194.787
184.389
174.069
163.858
153.77
143.804
133.948
124.182
114.482
104.823
194.719
184.199
173.794
163.541
153.45
143.511
133.703
123.998
114.369
104.785
194.606
183.895
173.368
163.065
152.981
143.09
133.356
123.742
114.212
104.732
194.416
183.409
172.721
162.373
152.324
142.515
132.891
123.403
114.007
104.663
194.063
182.604
171.739
161.388
151.43
141.759
132.295
122.975
113.749
104.578
193.293
181.209
170.246
160.015
150.254
140.803
131.559
122.455
113.44
104.475
191.192
178.7
168.029
158.18
148.777
139.646
130.691
121.851
113.084
104.357
188.984
174.498
162.949
152.878
143.697
135.11
126.937
119.052
111.358
103.774
192.201
178.597
166.776
156.199
146.48
137.362
128.672
120.283
112.093
104.018
193.424
180.915
169.357
158.663
148.66
139.186
130.107
121.314
112.714
104.225
194.008
182.281
171.075
160.435
150.311
140.615
131.257
122.152
113.222
104.396
194.334
183.129
172.225
161.694
151.533
141.705
132.153
122.815
113.628
104.533
194.534
183.676
173.003
162.58
152.424
142.52
132.835
123.325
113.944
104.639
194.664
184.037
173.532
163.2
153.062
143.116
133.341
123.709
114.182
104.72
194.748
184.276
173.889
163.627
153.509
143.539
133.706
123.988
114.357
104.779
194.802
184.43
174.122
163.909
153.809
143.826
133.955
124.18
114.477
104.82
194.834
184.521
174.261
164.079
153.991
144.003
134.11
124.299
114.553
104.846
194.848
184.561
174.322
164.155
154.074
144.084
134.182
124.356
114.589
104.859
194.845
184.554
174.313
164.145
154.066
144.079
134.179
124.355
114.589
104.858
194.825
184.499
174.231
164.049
153.967
143.986
134.101
124.297
114.553
104.846
194.785
184.386
174.065
163.854
153.767
143.801
133.945
124.179
114.48
104.822
194.716
184.195
173.79
163.537
153.447
143.508
133.7
123.996
114.367
104.784
194.604
183.891
173.364
163.061
152.978
143.087
133.353
123.739
114.21
104.731
194.413
183.405
172.717
162.37
152.32
142.511
132.888
123.4
114.004
104.662
194.06
182.6
171.735
161.384
151.426
141.756
132.292
122.972
113.747
104.576
193.29
181.205
170.242
160.011
150.25
140.799
131.556
122.452
113.438
104.474
191.189
178.696
168.025
158.176
148.773
139.643
130.688
121.848
113.082
104.356
188.984
174.498
162.949
152.878
143.697
135.11
126.937
119.052
111.358
103.774
192.201
178.597
166.776
156.199
146.48
137.362
128.672
120.283
112.093
104.018
193.424
180.915
169.357
158.663
148.66
139.186
130.107
121.314
112.714
104.225
194.008
182.281
171.075
160.435
150.311
140.615
131.257
122.152
113.222
104.396
194.334
183.129
172.225
161.694
151.533
141.705
132.153
122.815
113.628
104.533
194.534
183.676
173.003
162.58
152.424
142.52
132.835
123.325
113.944
104.639
194.664
184.037
173.532
163.2
153.062
143.116
133.341
123.709
114.182
104.72
194.748
184.276
173.889
163.627
153.509
143.539
133.706
123.988
114.357
104.779
194.802
184.43
174.122
163.909
153.809
143.826
133.955
124.18
114.477
104.82
194.834
184.521
174.261
164.079
153.991
144.003
134.11
124.299
114.553
104.846
194.848
184.561
174.322
164.155
154.074
144.084
134.182
124.356
114.589
104.859
194.845
184.554
174.313
164.145
154.066
144.079
134.179
124.355
114.589
104.858
194.825
184.499
174.231
164.049
153.967
143.987
134.101
124.297
114.553
104.846
194.785
184.386
174.065
163.854
153.767
143.801
133.945
124.179
114.48
104.822
194.716
184.195
173.79
163.537
153.447
143.508
133.7
123.996
114.367
104.784
194.604
183.891
173.364
163.061
152.978
143.087
133.353
123.739
114.21
104.731
194.413
183.405
172.717
162.37
152.32
142.511
132.888
123.4
114.004
104.662
194.06
182.6
171.735
161.384
151.426
141.756
132.292
122.972
113.747
104.576
193.29
181.205
170.242
160.011
150.25
140.799
131.556
122.452
113.438
104.474
191.189
178.696
168.025
158.176
148.773
139.643
130.688
121.848
113.082
104.356
188.986
174.5
162.951
152.88
143.699
135.112
126.939
119.054
111.36
103.775
192.203
178.599
166.778
156.201
146.482
137.364
128.674
120.285
112.095
104.019
193.426
180.917
169.36
158.665
148.662
139.188
130.109
121.316
112.715
104.226
194.009
182.284
171.077
160.438
150.313
140.617
131.259
122.154
113.224
104.397
194.336
183.132
172.228
161.696
151.536
141.708
132.155
122.817
113.63
104.534
194.536
183.679
173.006
162.583
152.427
142.522
132.837
123.328
113.946
104.64
194.665
184.04
173.535
163.203
153.065
143.118
133.344
123.711
114.184
104.721
194.75
184.279
173.892
163.63
153.512
143.542
133.708
123.99
114.358
104.78
194.804
184.433
174.126
163.912
153.812
143.829
133.958
124.182
114.479
104.822
194.836
184.525
174.264
164.082
153.994
144.005
134.112
124.302
114.555
104.847
194.85
184.565
174.326
164.158
154.077
144.087
134.185
124.359
114.591
104.86
194.847
184.558
174.317
164.149
154.069
144.082
134.182
124.357
114.591
104.86
194.828
184.502
174.235
164.052
153.97
143.99
134.104
124.299
114.555
104.848
194.787
184.389
174.069
163.858
153.77
143.804
133.948
124.182
114.482
104.823
194.719
184.199
173.794
163.541
153.45
143.511
133.703
123.998
114.369
104.785
194.606
183.895
173.368
163.065
152.981
143.09
133.356
123.742
114.212
104.732
194.416
183.409
172.721
162.373
152.324
142.515
132.891
123.403
114.007
104.663
194.063
182.604
171.739
161.388
151.43
141.759
132.295
122.975
113.749
104.578
193.293
181.209
170.246
160.015
150.254
140.803
131.559
122.455
113.44
104.475
191.192
178.7
168.029
158.18
148.777
139.646
130.691
121.851
113.084
104.357
183.967
174.376
164.999
155.908
147.038
138.323
129.715
121.18
112.691
104.228
177.589
169.85
161.696
153.43
145.157
136.904
128.676
120.468
112.276
104.091
172.422
165.758
158.521
150.977
143.27
135.474
127.627
119.751
111.857
103.954
168.273
162.259
155.674
148.707
141.491
134.11
126.62
119.059
111.453
103.821
164.951
159.357
153.233
146.711
139.896
132.872
125.7
118.424
111.081
103.698
162.323
157.014
151.219
145.03
138.534
131.803
124.898
117.868
110.753
103.59
160.301
155.19
149.628
143.685
137.43
130.929
124.238
117.408
110.482
103.501
158.826
153.85
148.449
142.678
136.598
130.266
123.735
117.056
110.273
103.432
157.862
152.971
147.671
142.011
136.043
129.822
123.398
116.819
110.132
103.386
157.386
152.535
147.284
141.678
135.766
129.599
123.228
116.701
110.063
103.367
183.964
174.372
164.995
155.904
147.034
138.319
129.712
121.177
112.689
104.226
177.585
169.847
161.692
153.427
145.153
136.9
128.672
120.465
112.273
104.09
172.418
165.754
158.517
150.974
143.267
135.47
127.624
119.747
111.854
103.952
168.27
162.256
155.671
148.704
141.487
134.106
126.617
119.056
111.45
103.819
164.949
159.354
153.23
146.707
139.893
132.869
125.696
118.42
111.077
103.696
162.321
157.011
151.216
145.027
138.531
131.8
124.894
117.864
110.75
103.588
160.298
155.187
149.625
143.682
137.427
130.925
124.234
117.403
110.478
103.498
158.824
153.847
148.446
142.675
136.595
130.262
123.731
117.051
110.268
103.429
157.86
152.968
147.668
142.008
136.04
129.818
123.393
116.814
110.126
103.381
157.384
152.533
147.282
141.675
135.763
129.596
123.224
116.696
110.056
103.361
183.964
174.372
164.995
155.904
147.034
138.319
129.712
121.177
112.689
104.226
177.585
169.847
161.692
153.427
145.153
136.9
128.672
120.465
112.273
104.09
172.418
165.754
158.517
150.974
143.267
135.47
127.624
119.747
111.854
103.952
168.27
162.256
155.671
148.704
141.487
134.106
126.617
119.056
111.45
103.819
164.949
159.354
153.23
146.707
139.893
132.869
125.696
118.42
111.077
103.696
162.321
157.011
151.216
145.027
138.531
131.8
124.894
117.864
110.75
103.588
160.298
155.187
149.625
143.682
137.427
130.925
124.234
117.403
110.478
103.498
158.824
153.847
148.446
142.675
136.595
130.262
123.731
117.051
110.268
103.429
157.86
152.968
147.668
142.008
136.04
129.818
123.393
116.814
110.126
103.381
157.384
152.533
147.282
141.675
135.763
129.596
123.224
116.696
110.056
103.361
183.967
174.376
164.999
155.908
147.038
138.323
129.715
121.18
112.691
104.228
177.589
169.85
161.696
153.43
145.157
136.904
128.676
120.468
112.276
104.091
172.422
165.757
158.521
150.977
143.27
135.474
127.627
119.751
111.857
103.954
168.273
162.259
155.674
148.707
141.491
134.11
126.62
119.059
111.453
103.821
164.951
159.357
153.233
146.711
139.896
132.872
125.7
118.424
111.081
103.698
162.323
157.014
151.219
145.03
138.534
131.803
124.898
117.868
110.753
103.59
160.301
155.189
149.627
143.684
137.43
130.929
124.238
117.408
110.482
103.501
158.826
153.85
148.448
142.678
136.598
130.266
123.735
117.056
110.273
103.432
157.862
152.971
147.671
142.011
136.043
129.822
123.398
116.819
110.132
103.386
157.386
152.535
147.284
141.678
135.766
129.6
123.229
116.701
110.063
103.367
192.719
195.507
196.684
197.321
197.724
197.999
198.192
198.324
198.407
198.447
198.447
198.408
198.325
198.194
198.002
197.727
197.324
196.687
195.509
192.72
184.127
188.136
190.6
192.204
193.306
194.086
194.642
195.026
195.268
195.386
195.387
195.27
195.029
194.646
194.092
193.312
192.21
190.606
188.142
184.131
178.079
182.324
185.387
187.601
189.221
190.412
191.277
191.883
192.268
192.456
192.457
192.271
191.888
191.285
190.421
189.231
187.612
185.397
182.334
178.088
173.471
177.712
181.042
183.615
185.588
187.084
188.195
188.983
189.488
189.736
189.737
189.493
188.99
188.205
187.097
185.602
183.631
181.059
177.729
173.486
169.858
174.039
177.481
180.257
182.459
184.172
185.466
186.396
186.997
187.293
187.295
187.003
186.406
185.481
184.189
182.479
180.28
177.506
174.064
169.883
167.024
171.138
174.621
177.509
179.854
181.714
183.141
184.175
184.849
185.182
185.185
184.857
184.189
183.159
181.738
179.882
177.54
174.655
171.173
167.061
164.852
168.904
172.396
175.344
177.777
179.734
181.251
182.36
183.086
183.447
183.45
183.096
182.377
181.274
179.764
177.812
175.384
172.441
168.951
164.901
163.269
167.273
170.761
173.739
176.225
178.242
179.818
180.977
181.74
182.119
182.123
181.752
180.998
179.846
178.278
176.268
173.788
170.816
167.331
163.331
162.233
166.204
169.686
172.678
175.193
177.245
178.856
180.046
180.831
181.222
181.227
180.845
180.069
178.889
177.286
175.242
172.735
169.749
166.272
162.306
161.72
165.674
169.152
172.15
174.677
176.746
178.374
179.578
180.373
180.771
180.776
180.388
179.603
178.408
176.79
174.73
172.212
169.221
165.749
161.8
192.721
195.509
196.686
197.323
197.725
198
198.193
198.324
198.407
198.447
198.447
198.407
198.325
198.193
198.001
197.726
197.323
196.686
195.507
192.718
184.13
188.139
190.602
192.206
193.307
194.088
194.643
195.027
195.269
195.386
195.386
195.27
195.028
194.645
194.09
193.31
192.208
190.604
188.139
184.128
178.082
182.326
185.389
187.604
189.223
190.413
191.279
191.884
192.269
192.456
192.457
192.271
191.887
191.283
190.419
189.229
187.61
185.395
182.331
178.085
173.474
177.715
181.045
183.617
185.59
187.086
188.196
188.984
189.489
189.736
189.737
189.492
188.989
188.204
187.095
185.6
183.629
181.056
177.726
173.484
169.861
174.042
177.484
180.26
182.461
184.173
185.468
186.397
186.997
187.293
187.294
187.002
186.405
185.479
184.188
182.477
180.278
177.504
174.062
169.88
167.028
171.141
174.624
177.511
179.856
181.716
183.142
184.176
184.849
185.182
185.184
184.856
184.188
183.158
181.736
179.88
177.538
174.653
171.171
167.059
164.855
168.907
172.399
175.346
177.779
179.735
181.252
182.36
183.086
183.447
183.45
183.096
182.376
181.273
179.762
177.811
175.382
172.438
168.949
164.899
163.272
167.275
170.764
173.742
176.227
178.244
179.819
180.978
181.74
182.119
182.123
181.751
180.997
179.845
178.276
176.266
173.787
170.814
167.329
163.328
162.236
166.206
169.688
172.681
175.194
177.247
178.857
180.047
180.831
181.222
181.227
180.844
180.069
178.888
177.285
175.24
172.733
169.747
166.27
162.303
161.723
165.677
169.154
172.152
174.679
176.747
178.375
179.578
180.373
180.771
180.775
180.388
179.602
178.407
176.789
174.729
172.21
169.219
165.747
161.797
192.721
195.509
196.686
197.323
197.725
198
198.193
198.324
198.407
198.447
198.447
198.407
198.325
198.193
198.001
197.726
197.323
196.686
195.507
192.718
184.13
188.139
190.602
192.206
193.307
194.088
194.643
195.027
195.269
195.386
195.386
195.27
195.028
194.645
194.09
193.31
192.208
190.604
188.139
184.128
178.082
182.326
185.389
187.604
189.223
190.413
191.279
191.884
192.269
192.456
192.457
192.271
191.887
191.283
190.419
189.229
187.61
185.395
182.331
178.085
173.474
177.715
181.045
183.617
185.59
187.086
188.196
188.984
189.489
189.736
189.737
189.492
188.989
188.204
187.095
185.6
183.629
181.056
177.726
173.483
169.861
174.042
177.484
180.26
182.461
184.173
185.468
186.397
186.997
187.293
187.294
187.002
186.405
185.479
184.188
182.477
180.278
177.504
174.062
169.88
167.027
171.141
174.624
177.511
179.856
181.716
183.142
184.176
184.849
185.182
185.184
184.856
184.188
183.158
181.736
179.88
177.538
174.653
171.171
167.058
164.855
168.907
172.399
175.346
177.779
179.735
181.252
182.36
183.086
183.446
183.45
183.096
182.376
181.273
179.762
177.811
175.382
172.438
168.949
164.898
163.272
167.275
170.764
173.742
176.227
178.244
179.819
180.978
181.74
182.119
182.123
181.751
180.997
179.845
178.276
176.266
173.786
170.814
167.329
163.328
162.235
166.206
169.688
172.681
175.194
177.247
178.858
180.047
180.831
181.222
181.227
180.844
180.069
178.888
177.285
175.24
172.733
169.747
166.27
162.303
161.723
165.677
169.154
172.153
174.679
176.747
178.375
179.579
180.374
180.771
180.775
180.388
179.602
178.407
176.789
174.729
172.21
169.219
165.747
161.797
192.719
195.507
196.684
197.321
197.724
197.999
198.192
198.324
198.407
198.447
198.447
198.408
198.325
198.194
198.002
197.727
197.324
196.687
195.509
192.72
184.127
188.136
190.599
192.204
193.306
194.086
194.642
195.026
195.268
195.386
195.387
195.27
195.029
194.646
194.092
193.312
192.21
190.606
188.142
184.131
178.079
182.324
185.387
187.601
189.221
190.412
191.277
191.883
192.268
192.456
192.457
192.271
191.888
191.285
190.421
189.231
187.612
185.397
182.334
178.088
173.471
177.712
181.042
183.615
185.588
187.084
188.195
188.983
189.488
189.736
189.737
189.493
188.99
188.205
187.097
185.602
183.631
181.059
177.729
173.486
169.858
174.039
177.481
180.257
182.459
184.172
185.466
186.396
186.997
187.293
187.295
187.003
186.406
185.481
184.189
182.479
180.28
177.506
174.064
169.883
167.024
171.138
174.621
177.509
179.854
181.714
183.141
184.175
184.849
185.182
185.184
184.857
184.188
183.159
181.738
179.882
177.54
174.655
171.173
167.061
164.852
168.904
172.396
175.344
177.777
179.734
181.251
182.36
183.086
183.446
183.45
183.096
182.376
181.274
179.763
177.812
175.384
172.44
168.951
164.901
163.269
167.272
170.761
173.739
176.225
178.242
179.818
180.977
181.739
182.119
182.123
181.752
180.998
179.846
178.278
176.267
173.788
170.816
167.331
163.331
162.233
166.204
169.686
172.678
175.193
177.245
178.856
180.046
180.831
181.222
181.227
180.845
180.069
178.889
177.286
175.242
172.735
169.749
166.273
162.306
161.72
165.674
169.152
172.15
174.677
176.746
178.374
179.578
180.373
180.771
180.776
180.388
179.603
178.408
176.79
174.73
172.212
169.221
165.749
161.8
104.228
112.693
121.184
129.721
138.33
147.046
155.915
165.004
174.379
183.967
104.091
112.277
120.472
128.681
136.91
145.163
153.435
161.699
169.851
177.587
103.953
111.857
119.752
127.629
135.477
143.272
150.978
158.519
165.754
172.415
103.819
111.451
119.058
126.619
134.107
141.487
148.701
155.665
162.247
168.259
103.696
111.076
118.418
125.692
132.862
139.883
146.694
153.214
159.335
164.927
103.587
110.746
117.856
124.883
131.783
138.51
145.002
151.187
156.979
162.287
103.496
110.47
117.39
124.213
130.897
137.392
143.642
149.581
155.14
160.251
103.425
110.258
117.03
123.699
130.221
136.546
142.621
148.387
153.786
158.763
103.377
110.113
116.784
123.35
129.764
135.978
141.939
147.596
152.894
157.787
103.349
110.04
116.66