/*--------------------------------*- C++ -*----------------------------------*\
| =========                 |                                                 |
| \\      /  F ield         | OpenFOAM: The Open Source CFD Toolbox           |
|  \\    /   O peration     | Version:  2.4.0                                 |
|   \\  /    A nd           | Web:      www.OpenFOAM.org                      |
|    \\/     M anipulation  |                                                 |
\*---------------------------------------------------------------------------*/
FoamFile
{
    version     2.0;
    format      ascii;
    class       volScalarField;
    location    "0.0072";
    object      T;
}
// * * * * * * * * * * * * * * * * * * * * * * * * * * * * * * * * * * * * * //

dimensions      [0 0 0 1 0 0 0];

internalField   nonuniform List<scalar> 
4800
(
100.194
100.581
100.968
101.354
101.738
102.117
102.487
102.844
103.182
103.493
100.581
101.742
102.903
104.063
105.217
106.359
107.475
108.552
109.571
110.511
100.968
102.903
104.841
106.778
108.71
110.625
112.503
114.319
116.039
117.626
101.354
104.063
106.779
109.499
112.22
114.927
117.593
120.182
122.64
124.908
101.738
105.218
108.71
112.22
115.745
119.269
122.762
126.174
129.431
132.438
102.117
106.359
110.625
114.927
119.269
123.641
128.012
132.323
136.471
140.314
102.488
107.476
112.504
117.595
122.763
128.013
133.323
138.633
143.817
148.66
102.845
108.554
114.321
120.184
126.177
132.325
138.634
145.068
151.502
157.641
103.182
109.573
116.042
122.644
129.435
136.475
143.819
151.504
159.482
167.46
103.494
110.514
117.631
124.914
132.445
140.321
148.666
157.645
167.462
178.222
100.194
100.581
100.968
101.354
101.738
102.117
102.487
102.844
103.182
103.493
100.581
101.742
102.903
104.063
105.217
106.359
107.475
108.552
109.571
110.511
100.968
102.903
104.841
106.778
108.71
110.625
112.503
114.319
116.039
117.626
101.354
104.063
106.779
109.499
112.22
114.927
117.593
120.182
122.64
124.908
101.738
105.218
108.711
112.221
115.745
119.269
122.762
126.174
129.431
132.438
102.117
106.359
110.625
114.927
119.269
123.641
128.012
132.323
136.471
140.314
102.488
107.476
112.504
117.595
122.764
128.013
133.323
138.633
143.817
148.66
102.845
108.554
114.321
120.184
126.177
132.325
138.634
145.068
151.502
157.641
103.183
109.573
116.043
122.644
129.436
136.475
143.82
151.504
159.482
167.46
103.494
110.514
117.631
124.915
132.446
140.321
148.666
157.646
167.463
178.223
100.194
100.581
100.968
101.354
101.738
102.117
102.487
102.844
103.182
103.493
100.581
101.742
102.903
104.063
105.217
106.359
107.475
108.552
109.571
110.511
100.968
102.903
104.841
106.778
108.71
110.625
112.503
114.319
116.039
117.626
101.354
104.063
106.779
109.499
112.22
114.927
117.593
120.182
122.64
124.908
101.738
105.218
108.711
112.221
115.745
119.269
122.762
126.174
129.431
132.438
102.117
106.359
110.625
114.927
119.269
123.641
128.012
132.323
136.471
140.314
102.488
107.476
112.504
117.595
122.764
128.013
133.323
138.633
143.817
148.66
102.845
108.554
114.321
120.184
126.177
132.325
138.634
145.068
151.502
157.641
103.183
109.573
116.043
122.644
129.436
136.475
143.82
151.504
159.482
167.46
103.494
110.514
117.631
124.915
132.446
140.321
148.666
157.646
167.463
178.223
100.194
100.581
100.968
101.354
101.738
102.117
102.487
102.844
103.182
103.493
100.581
101.742
102.903
104.063
105.217
106.359
107.475
108.552
109.571
110.511
100.968
102.903
104.841
106.778
108.71
110.625
112.503
114.319
116.039
117.626
101.354
104.063
106.779
109.499
112.22
114.927
117.593
120.182
122.64
124.908
101.738
105.218
108.71
112.22
115.745
119.269
122.762
126.174
129.431
132.438
102.117
106.359
110.625
114.927
119.269
123.641
128.012
132.323
136.471
140.314
102.488
107.476
112.504
117.595
122.763
128.013
133.323
138.633
143.817
148.66
102.845
108.554
114.321
120.184
126.177
132.325
138.634
145.068
151.502
157.641
103.182
109.573
116.042
122.644
129.435
136.475
143.819
151.504
159.482
167.46
103.494
110.514
117.631
124.914
132.445
140.321
148.666
157.645
167.462
178.222
103.773
104.016
104.222
104.391
104.526
104.63
104.707
104.762
104.796
104.813
104.813
104.796
104.761
104.707
104.63
104.526
104.391
104.222
104.016
103.773
111.354
112.087
112.704
113.208
113.609
113.916
114.144
114.304
114.405
114.454
114.454
114.405
114.304
114.144
113.916
113.608
113.208
112.703
112.086
111.353
119.045
120.272
121.298
122.13
122.784
123.283
123.65
123.906
124.067
124.145
124.145
124.067
123.905
123.649
123.281
122.782
122.128
121.297
120.271
119.044
126.928
128.659
130.087
131.229
132.114
132.78
133.266
133.602
133.812
133.914
133.913
133.812
133.601
133.265
132.779
132.112
131.227
130.086
128.657
126.926
135.1
137.347
139.164
140.584
141.662
142.459
143.032
143.423
143.667
143.783
143.783
143.666
143.422
143.03
142.457
141.66
140.581
139.162
137.345
135.098
143.687
146.465
148.638
150.28
151.49
152.363
152.978
153.393
153.649
153.77
153.77
153.648
153.392
152.977
152.361
151.488
150.278
148.636
146.462
143.685
152.869
156.186
158.643
160.408
161.655
162.526
163.125
163.522
163.764
163.878
163.878
163.763
163.521
163.123
162.524
161.653
160.406
158.641
156.184
152.867
162.943
166.766
169.342
171.053
172.194
172.96
173.473
173.806
174.007
174.102
174.101
174.007
173.805
173.472
172.959
172.193
171.052
169.34
166.764
162.941
174.494
178.591
180.906
182.268
183.11
183.649
183.999
184.223
184.357
184.419
184.419
184.356
184.223
183.998
183.648
183.109
182.267
180.905
178.591
174.494
188.984
192.199
193.422
194.004
194.328
194.526
194.651
194.73
194.777
194.799
194.799
194.777
194.73
194.651
194.525
194.328
194.003
193.422
192.199
188.983
103.773
104.016
104.222
104.391
104.526
104.63
104.707
104.761
104.796
104.812
104.812
104.796
104.761
104.707
104.629
104.525
104.391
104.222
104.016
103.772
111.354
112.086
112.704
113.208
113.608
113.916
114.144
114.304
114.405
114.454
114.454
114.405
114.303
114.143
113.915
113.607
113.207
112.702
112.085
111.352
119.045
120.272
121.298
122.13
122.783
123.282
123.649
123.905
124.067
124.144
124.144
124.066
123.904
123.648
123.28
122.781
122.127
121.296
120.27
119.043
126.928
128.658
130.087
131.228
132.113
132.78
133.265
133.601
133.812
133.913
133.913
133.811
133.6
133.264
132.778
132.111
131.225
130.084
128.655
126.925
135.1
137.347
139.164
140.583
141.661
142.459
143.031
143.423
143.666
143.783
143.782
143.665
143.421
143.029
142.456
141.658
140.58
139.16
137.343
135.097
143.687
146.464
148.638
150.28
151.489
152.363
152.978
153.392
153.648
153.769
153.769
153.647
153.391
152.976
152.36
151.486
150.276
148.634
146.461
143.684
152.869
156.186
158.643
160.407
161.654
162.525
163.124
163.521
163.763
163.878
163.877
163.762
163.52
163.122
162.523
161.651
160.404
158.64
156.182
152.866
162.943
166.765
169.342
171.053
172.194
172.96
173.472
173.805
174.006
174.101
174.1
174.006
173.804
173.47
172.958
172.192
171.05
169.339
166.762
162.94
174.494
178.591
180.906
182.268
183.109
183.648
183.998
184.222
184.356
184.418
184.418
184.355
184.222
183.997
183.647
183.108
182.266
180.904
178.589
174.492
188.984
192.199
193.422
194.003
194.328
194.525
194.651
194.73
194.777
194.799
194.799
194.777
194.73
194.65
194.525
194.327
194.003
193.421
192.198
188.982
103.773
104.016
104.222
104.391
104.526
104.63
104.707
104.761
104.796
104.812
104.812
104.796
104.761
104.707
104.629
104.525
104.391
104.222
104.016
103.772
111.354
112.086
112.704
113.208
113.608
113.916
114.144
114.304
114.405
114.454
114.454
114.405
114.303
114.143
113.915
113.607
113.207
112.702
112.085
111.352
119.045
120.272
121.298
122.13
122.783
123.282
123.649
123.905
124.067
124.144
124.144
124.066
123.904
123.648
123.28
122.781
122.127
121.296
120.27
119.043
126.928
128.658
130.087
131.228
132.113
132.78
133.265
133.601
133.812
133.913
133.913
133.811
133.6
133.264
132.778
132.111
131.225
130.084
128.655
126.925
135.1
137.347
139.164
140.583
141.661
142.459
143.031
143.423
143.666
143.783
143.782
143.665
143.421
143.029
142.456
141.658
140.58
139.16
137.343
135.097
143.687
146.464
148.638
150.28
151.489
152.363
152.978
153.392
153.648
153.769
153.769
153.647
153.391
152.976
152.36
151.486
150.276
148.634
146.461
143.684
152.869
156.186
158.643
160.407
161.654
162.525
163.124
163.521
163.763
163.878
163.877
163.762
163.52
163.122
162.523
161.651
160.404
158.64
156.182
152.866
162.943
166.765
169.342
171.053
172.194
172.96
173.472
173.805
174.006
174.101
174.1
174.006
173.804
173.47
172.958
172.192
171.05
169.339
166.762
162.94
174.494
178.591
180.906
182.268
183.109
183.648
183.998
184.222
184.356
184.418
184.418
184.355
184.222
183.997
183.647
183.108
182.266
180.904
178.589
174.492
188.984
192.199
193.422
194.003
194.328
194.525
194.651
194.73
194.777
194.799
194.799
194.777
194.73
194.65
194.525
194.327
194.003
193.421
192.198
188.982
103.773
104.016
104.222
104.391
104.526
104.63
104.707
104.762
104.796
104.813
104.813
104.796
104.761
104.707
104.63
104.526
104.391
104.222
104.016
103.773
111.354
112.087
112.704
113.208
113.609
113.916
114.144
114.304
114.405
114.454
114.454
114.405
114.304
114.144
113.916
113.608
113.208
112.703
112.086
111.353
119.045
120.272
121.298
122.13
122.784
123.283
123.65
123.906
124.067
124.145
124.145
124.067
123.905
123.649
123.281
122.782
122.128
121.297
120.271
119.044
126.928
128.659
130.087
131.229
132.114
132.78
133.266
133.602
133.812
133.914
133.913
133.812
133.601
133.265
132.779
132.112
131.227
130.086
128.657
126.926
135.1
137.347
139.164
140.584
141.662
142.459
143.032
143.423
143.667
143.783
143.783
143.666
143.422
143.03
142.457
141.66
140.581
139.162
137.345
135.098
143.687
146.465
148.638
150.28
151.49
152.363
152.978
153.393
153.649
153.77
153.77
153.648
153.392
152.977
152.361
151.488
150.278
148.636
146.462
143.685
152.869
156.186
158.643
160.408
161.655
162.526
163.125
163.522
163.764
163.878
163.878
163.763
163.521
163.123
162.524
161.653
160.406
158.641
156.184
152.867
162.943
166.766
169.342
171.053
172.194
172.96
173.473
173.806
174.007
174.102
174.101
174.007
173.805
173.472
172.959
172.193
171.052
169.34
166.764
162.941
174.494
178.591
180.906
182.268
183.11
183.649
183.999
184.223
184.357
184.419
184.419
184.356
184.223
183.998
183.648
183.109
182.267
180.905
178.591
174.494
188.984
192.199
193.422
194.004
194.328
194.526
194.651
194.73
194.777
194.799
194.799
194.777
194.73
194.651
194.525
194.328
194.003
193.422
192.199
188.983
103.493
103.182
102.845
102.488
102.117
101.738
101.354
100.968
100.581
100.194
110.511
109.571
108.553
107.476
106.359
105.218
104.064
102.904
101.743
100.581
117.625
116.039
114.319
112.503
110.625
108.711
106.779
104.842
102.904
100.968
124.907
122.639
120.182
117.594
114.927
112.221
109.5
106.779
104.064
101.354
132.437
129.43
126.174
122.762
119.269
115.745
112.221
108.711
105.218
101.738
140.313
136.471
132.323
128.013
123.642
119.27
114.929
110.626
106.36
102.117
148.659
143.816
138.633
133.324
128.014
122.765
117.596
112.506
107.477
102.488
157.641
151.502
145.069
138.635
132.327
126.179
120.186
114.323
108.555
102.845
167.461
159.483
151.506
143.822
136.478
129.438
122.646
116.044
109.575
103.183
178.223
167.464
157.648
148.669
140.324
132.448
124.917
117.633
110.516
103.495
103.492
103.181
102.844
102.487
102.116
101.737
101.353
100.967
100.58
100.193
110.509
109.57
108.551
107.474
106.358
105.217
104.063
102.903
101.741
100.58
117.624
116.037
114.317
112.502
110.624
108.709
106.778
104.84
102.903
100.967
124.905
122.638
120.18
117.592
114.926
112.219
109.499
106.778
104.063
101.353
132.435
129.429
126.173
122.761
119.267
115.744
112.22
108.71
105.217
101.737
140.311
136.469
132.321
128.011
123.64
119.268
114.927
110.625
106.359
102.117
148.658
143.815
138.631
133.322
128.012
122.763
117.595
112.504
107.476
102.487
157.639
151.501
145.067
138.633
132.325
126.177
120.184
114.321
108.554
102.845
167.459
159.481
151.503
143.82
136.476
129.436
122.645
116.043
109.573
103.182
178.222
167.462
157.646
148.667
140.322
132.447
124.915
117.632
110.514
103.494
103.492
103.181
102.844
102.487
102.116
101.737
101.353
100.967
100.58
100.193
110.509
109.57
108.551
107.474
106.358
105.217
104.063
102.903
101.741
100.58
117.624
116.037
114.317
112.502
110.624
108.709
106.778
104.84
102.903
100.967
124.905
122.638
120.18
117.592
114.926
112.219
109.499
106.778
104.063
101.353
132.435
129.429
126.173
122.761
119.267
115.744
112.22
108.71
105.217
101.737
140.311
136.469
132.321
128.011
123.64
119.268
114.927
110.625
106.359
102.117
148.658
143.815
138.631
133.322
128.012
122.763
117.595
112.504
107.476
102.487
157.639
151.501
145.067
138.633
132.325
126.177
120.184
114.321
108.554
102.845
167.459
159.481
151.503
143.82
136.476
129.436
122.645
116.043
109.573
103.182
178.222
167.462
157.646
148.667
140.322
132.447
124.915
117.632
110.514
103.494
103.493
103.182
102.845
102.488
102.117
101.738
101.354
100.968
100.581
100.194
110.511
109.571
108.553
107.476
106.359
105.218
104.064
102.904
101.743
100.581
117.625
116.039
114.319
112.503
110.625
108.711
106.779
104.842
102.904
100.968
124.907
122.639
120.182
117.594
114.927
112.221
109.5
106.779
104.064
101.354
132.437
129.43
126.174
122.762
119.269
115.745
112.221
108.711
105.218
101.738
140.313
136.471
132.323
128.013
123.642
119.27
114.929
110.626
106.36
102.117
148.659
143.816
138.633
133.324
128.014
122.765
117.596
112.506
107.477
102.488
157.641
151.502
145.069
138.635
132.327
126.179
120.186
114.323
108.555
102.845
167.461
159.483
151.506
143.822
136.478
129.438
122.646
116.044
109.575
103.183
178.223
167.464
157.648
148.669
140.324
132.448
124.917
117.633
110.516
103.495
188.986
174.501
162.953
152.882
143.701
135.114
126.941
119.055
111.361
103.775
192.203
178.601
166.78
156.204
146.484
137.367
128.677
120.287
112.096
104.02
193.427
180.919
169.362
158.668
148.665
139.191
130.112
121.318
112.717
104.227
194.01
182.286
171.08
160.442
150.317
140.621
131.262
122.157
113.226
104.398
194.337
183.134
172.231
161.701
151.541
141.712
132.159
122.82
113.632
104.534
194.537
183.681
173.011
162.589
152.433
142.529
132.843
123.332
113.948
104.641
194.667
184.043
173.541
163.211
153.073
143.126
133.351
123.717
114.188
104.722
194.752
184.284
173.9
163.639
153.522
143.552
133.718
123.997
114.363
104.782
194.806
184.44
174.135
163.924
153.825
143.843
133.97
124.192
114.485
104.824
194.839
184.533
174.277
164.098
154.011
144.023
134.128
124.314
114.563
104.85
194.854
184.575
174.342
164.179
154.099
144.109
134.205
124.375
114.601
104.863
194.852
184.572
174.338
164.176
154.098
144.111
134.208
124.378
114.604
104.864
194.834
184.521
174.263
164.087
154.008
144.027
134.138
124.326
114.572
104.853
194.796
184.413
174.105
163.903
153.82
143.853
133.991
124.215
114.504
104.83
194.73
184.231
173.842
163.601
153.515
143.574
133.758
124.042
114.397
104.794
194.621
183.938
173.433
163.144
153.065
143.171
133.427
123.797
114.247
104.744
194.437
183.467
172.808
162.477
152.432
142.619
132.982
123.473
114.05
104.678
194.093
182.686
171.856
161.524
151.571
141.892
132.409
123.062
113.804
104.596
193.341
181.328
170.407
160.195
150.436
140.971
131.702
122.564
113.508
104.498
191.283
178.879
168.251
158.417
149.008
139.856
130.867
121.984
113.166
104.385
188.985
174.499
162.95
152.879
143.699
135.112
126.939
119.054
111.359
103.774
192.201
178.598
166.777
156.201
146.482
137.364
128.675
120.285
112.094
104.019
193.425
180.916
169.359
158.666
148.663
139.189
130.11
121.316
112.715
104.226
194.008
182.283
171.078
160.439
150.315
140.618
131.26
122.155
113.224
104.397
194.335
183.131
172.229
161.698
151.538
141.71
132.157
122.818
113.63
104.533
194.535
183.679
173.008
162.586
152.43
142.526
132.84
123.33
113.947
104.64
194.665
184.04
173.538
163.208
153.07
143.124
133.349
123.715
114.186
104.721
194.75
184.281
173.897
163.636
153.52
143.55
133.715
123.995
114.361
104.781
194.804
184.437
174.132
163.921
153.822
143.84
133.967
124.189
114.483
104.822
194.837
184.53
174.274
164.095
154.008
144.02
134.125
124.312
114.561
104.849
194.851
184.572
174.339
164.175
154.096
144.106
134.202
124.372
114.599
104.862
194.85
184.568
174.335
164.172
154.095
144.108
134.205
124.375
114.602
104.863
194.832
184.517
174.259
164.084
154.005
144.024
134.135
124.323
114.569
104.852
194.793
184.41
174.102
163.9
153.816
143.85
133.988
124.213
114.501
104.829
194.728
184.227
173.839
163.597
153.511
143.571
133.755
124.039
114.394
104.793
194.619
183.934
173.429
163.14
153.062
143.168
133.424
123.794
114.245
104.743
194.434
183.463
172.804
162.473
152.429
142.616
132.978
123.47
114.048
104.677
194.09
182.682
171.852
161.52
151.567
141.888
132.406
123.059
113.802
104.595
193.338
181.324
170.403
160.191
150.432
140.967
131.699
122.561
113.506
104.497
191.28
178.875
168.247
158.413
149.005
139.853
130.864
121.981
113.164
104.384
188.985
174.499
162.95
152.879
143.699
135.112
126.939
119.054
111.359
103.774
192.201
178.598
166.777
156.201
146.482
137.364
128.675
120.285
112.094
104.019
193.425
180.916
169.359
158.666
148.663
139.189
130.11
121.316
112.715
104.226
194.008
182.283
171.078
160.439
150.315
140.618
131.26
122.155
113.224
104.397
194.335
183.131
172.229
161.698
151.538
141.71
132.157
122.818
113.63
104.533
194.535
183.679
173.008
162.586
152.43
142.526
132.84
123.33
113.947
104.64
194.665
184.04
173.538
163.208
153.07
143.124
133.349
123.715
114.186
104.721
194.75
184.281
173.897
163.636
153.52
143.55
133.715
123.995
114.361
104.781
194.804
184.437
174.132
163.921
153.822
143.84
133.967
124.189
114.483
104.822
194.837
184.53
174.274
164.095
154.008
144.02
134.125
124.312
114.561
104.849
194.851
184.572
174.339
164.175
154.096
144.106
134.202
124.372
114.599
104.862
194.85
184.568
174.335
164.172
154.095
144.108
134.205
124.375
114.602
104.863
194.832
184.517
174.259
164.084
154.005
144.024
134.135
124.323
114.569
104.852
194.793
184.41
174.102
163.9
153.816
143.85
133.988
124.213
114.501
104.829
194.728
184.227
173.839
163.597
153.511
143.571
133.755
124.039
114.394
104.793
194.619
183.934
173.429
163.14
153.062
143.168
133.424
123.794
114.245
104.743
194.434
183.463
172.804
162.473
152.429
142.616
132.978
123.47
114.048
104.677
194.09
182.682
171.852
161.52
151.567
141.888
132.406
123.059
113.802
104.595
193.338
181.324
170.403
160.191
150.432
140.967
131.699
122.561
113.506
104.497
191.28
178.875
168.247
158.413
149.005
139.853
130.864
121.981
113.164
104.384
188.986
174.501
162.953
152.882
143.701
135.114
126.941
119.055
111.361
103.775
192.203
178.601
166.78
156.204
146.484
137.367
128.677
120.287
112.096
104.02
193.427
180.919
169.362
158.668
148.665
139.191
130.112
121.318
112.717
104.227
194.01
182.286
171.08
160.442
150.317
140.621
131.262
122.157
113.226
104.398
194.337
183.134
172.231
161.701
151.541
141.712
132.159
122.82
113.632
104.534
194.537
183.681
173.011
162.589
152.433
142.529
132.843
123.332
113.948
104.641
194.667
184.043
173.541
163.211
153.073
143.126
133.351
123.717
114.188
104.722
194.752
184.284
173.9
163.639
153.522
143.552
133.718
123.997
114.363
104.782
194.806
184.44
174.135
163.924
153.825
143.843
133.97
124.192
114.485
104.824
194.839
184.533
174.277
164.098
154.011
144.023
134.128
124.314
114.563
104.85
194.854
184.575
174.342
164.179
154.099
144.109
134.205
124.375
114.601
104.863
194.852
184.572
174.338
164.176
154.098
144.111
134.208
124.378
114.604
104.864
194.834
184.521
174.263
164.087
154.008
144.027
134.138
124.326
114.572
104.853
194.796
184.413
174.105
163.903
153.82
143.853
133.991
124.215
114.504
104.83
194.73
184.231
173.842
163.601
153.515
143.574
133.758
124.042
114.397
104.794
194.621
183.938
173.433
163.144
153.065
143.171
133.427
123.797
114.247
104.744
194.437
183.467
172.808
162.477
152.432
142.619
132.982
123.473
114.05
104.678
194.093
182.686
171.856
161.524
151.571
141.892
132.409
123.062
113.804
104.596
193.341
181.328
170.407
160.195
150.436
140.971
131.702
122.564
113.508
104.498
191.283
178.879
168.251
158.417
149.008
139.856
130.867
121.984
113.166
104.385
184.192
174.655
165.304
156.216
147.329
138.581
129.929
121.339
112.789
104.261
177.97
170.251
162.099
153.818
145.514
137.215
128.93
120.657
112.392
104.13
172.956
166.284
159.028
151.451
143.697
135.841
127.924
119.969
111.991
103.999
168.951
162.908
156.283
149.266
141.987
134.533
126.96
119.308
111.605
103.872
165.76
160.119
153.939
147.35
140.459
133.348
126.08
118.701
111.249
103.754
163.245
157.875
152.01
145.742
139.156
132.327
125.315
118.17
110.937
103.652
161.317
156.134
150.491
144.457
138.103
131.493
124.686
117.732
110.679
103.567
159.915
154.859
149.368
143.499
137.311
130.862
124.208
117.398
110.481
103.502
159.001
154.024
148.628
142.864
136.784
130.441
123.887
117.174
110.347
103.458
158.55
153.611
148.262
142.548
136.52
130.229
123.727
117.062
110.281
103.44
184.188
174.651
165.3
156.212
147.325
138.578
129.925
121.336
112.787
104.26
177.966
170.247
162.095
153.815
145.51
137.212
128.927
120.654
112.389
104.129
172.953
166.281
159.024
151.447
143.693
135.838
127.921
119.966
111.988
103.997
168.949
162.905
156.28
149.263
141.984
134.529
126.957
119.305
111.602
103.87
165.757
160.116
153.936
147.347
140.456
133.345
126.076
118.697
111.246
103.753
163.243
157.872
152.007
145.739
139.153
132.323
125.311
118.167
110.934
103.65
161.315
156.131
150.488
144.454
138.1
131.49
124.682
117.728
110.675
103.564
159.913
154.856
149.365
143.496
137.308
130.858
124.203
117.393
110.476
103.498
158.999
154.021
148.626
142.861
136.78
130.436
123.882
117.168
110.341
103.453
158.547
153.608
148.259
142.545
136.517
130.225
123.722
117.056
110.274
103.434
184.188
174.651
165.3
156.212
147.325
138.578
129.925
121.336
112.787
104.26
177.966
170.247
162.095
153.815
145.51
137.212
128.927
120.654
112.389
104.129
172.953
166.281
159.024
151.447
143.693
135.838
127.921
119.966
111.988
103.997
168.949
162.905
156.28
149.263
141.984
134.529
126.957
119.305
111.602
103.87
165.757
160.116
153.936
147.347
140.456
133.345
126.076
118.697
111.246
103.753
163.243
157.872
152.007
145.739
139.153
132.323
125.311
118.167
110.934
103.65
161.315
156.131
150.488
144.454
138.1
131.49
124.682
117.728
110.675
103.564
159.913
154.856
149.365
143.496
137.308
130.858
124.203
117.393
110.476
103.498
158.998
154.021
148.626
142.861
136.78
130.436
123.882
117.168
110.341
103.453
158.547
153.608
148.259
142.545
136.517
130.225
123.722
117.056
110.274
103.434
184.192
174.655
165.304
156.216
147.329
138.581
129.929
121.339
112.789
104.261
177.97
170.251
162.099
153.818
145.514
137.215
128.93
120.657
112.392
104.13
172.956
166.284
159.028
151.451
143.697
135.841
127.924
119.969
111.991
103.999
168.951
162.908
156.283
149.266
141.987
134.533
126.96
119.308
111.605
103.872
165.76
160.119
153.939
147.35
140.459
133.348
126.08
118.701
111.249
103.754
163.245
157.875
152.01
145.742
139.156
132.327
125.315
118.17
110.937
103.652
161.317
156.134
150.491
144.457
138.103
131.493
124.686
117.732
110.679
103.567
159.915
154.859
149.368
143.499
137.311
130.862
124.207
117.398
110.481
103.501
159.001
154.023
148.628
142.864
136.784
130.44
123.887
117.174
110.347
103.458
158.55
153.611
148.262
142.548
136.52
130.229
123.727
117.062
110.281
103.44
192.858
195.627
196.801
197.438
197.843
198.12
198.314
198.448
198.532
198.572
198.573
198.533
198.449
198.316
198.122
197.845
197.441
196.804
195.629
192.861
184.478
188.477
190.94
192.549
193.657
194.444
195.006
195.394
195.639
195.759
195.759
195.642
195.397
195.01
194.45
193.664
192.557
190.948
188.484
184.484
178.614
182.865
185.938
188.164
189.796
190.998
191.873
192.486
192.876
193.067
193.068
192.88
192.492
191.881
191.007
189.807
188.176
185.95
182.876
178.625
174.171
178.434
181.785
184.378
186.369
187.882
189.007
189.805
190.318
190.569
190.571
190.323
189.814
189.018
187.896
186.385
184.396
181.803
178.452
174.188
170.704
174.921
178.395
181.2
183.427
185.162
186.474
187.417
188.027
188.328
188.33
188.034
187.428
186.49
185.181
183.449
181.225
178.422
174.949
170.732
167.997
172.157
175.683
178.607
180.984
182.871
184.319
185.37
186.055
186.394
186.397
186.064
185.385
184.339
182.896
181.014
178.641
175.719
172.196
168.037
165.929
170.037
173.579
176.571
179.041
181.029
182.571
183.699
184.438
184.805
184.809
184.449
183.717
182.596
181.061
179.079
176.613
173.627
170.088
165.981
164.426
168.493
172.038
175.065
177.592
179.644
181.247
182.427
183.204
183.591
183.595
183.217
182.449
181.278
179.682
177.637
175.117
172.096
168.556
164.492
163.444
167.483
171.025
174.071
176.629
178.719
180.36
181.572
182.372
182.771
182.776
182.386
181.597
180.394
178.762
176.681
174.131
171.093
167.556
163.521
162.959
166.984
170.524
173.576
176.149
178.256
179.914
181.142
181.952
182.358
182.363
181.968
181.168
179.951
178.303
176.205
173.641
170.596
167.063
163.043
192.861
195.629
196.802
197.44
197.844
198.121
198.315
198.448
198.532
198.572
198.573
198.532
198.449
198.316
198.121
197.844
197.44
196.802
195.628
192.858
184.482
188.48
190.943
192.552
193.659
194.446
195.007
195.395
195.64
195.759
195.759
195.641
195.397
195.009
194.449
193.663
192.555
190.946
188.481
184.481
178.618
182.868
185.94
188.167
189.798
190.999
191.874
192.487
192.877
193.067
193.068
192.879
192.491
191.879
191.006
189.805
188.174
185.947
182.874
178.622
174.174
178.437
181.788
184.381
186.371
187.884
189.008
189.806
190.318
190.569
190.57
190.322
189.813
189.017
187.895
186.384
184.394
181.801
178.45
174.186
170.707
174.924
178.398
181.202
183.429
185.163
186.476
187.418
188.028
188.328
188.33
188.033
187.427
186.488
185.179
183.447
181.223
178.42
174.946
170.729
168
172.16
175.685
178.61
180.986
182.873
184.32
185.371
186.055
186.394
186.396
186.063
185.384
184.338
182.895
181.012
178.639
175.717
172.194
168.034
165.932
170.04
173.582
176.573
179.043
181.031
182.572
183.7
184.438
184.805
184.808
184.448
183.716
182.595
181.059
179.077
176.611
173.625
170.086
165.979
164.429
168.496
172.04
175.067
177.594
179.645
181.249
182.428
183.204
183.591
183.595
183.216
182.448
181.276
179.68
177.635
175.115
172.094
168.553
164.489
163.447
167.486
171.028
174.073
176.631
178.72
180.361
181.573
182.372
182.771
182.775
182.386
181.596
180.393
178.761
176.68
174.129
171.09
167.554
163.519
162.961
166.986
170.526
173.578
176.151
178.257
179.916
181.142
181.953
182.358
182.363
181.968
181.167
179.95
178.301
176.203
173.639
170.594
167.06
163.04
192.861
195.629
196.802
197.44
197.844
198.121
198.315
198.448
198.532
198.572
198.573
198.532
198.449
198.316
198.121
197.844
197.44
196.802
195.628
192.858
184.482
188.48
190.943
192.552
193.659
194.446
195.007
195.395
195.64
195.759
195.759
195.641
195.397
195.009
194.449
193.663
192.555
190.946
188.481
184.481
178.618
182.868
185.94
188.167
189.798
190.999
191.874
192.487
192.877
193.067
193.068
192.879
192.491
191.879
191.006
189.805
188.174
185.947
182.874
178.622
174.174
178.437
181.788
184.381
186.371
187.884
189.008
189.806
190.318
190.569
190.57
190.322
189.813
189.017
187.895
186.384
184.394
181.801
178.45
174.186
170.707
174.924
178.398
181.202
183.429
185.163
186.476
187.418
188.028
188.328
188.33
188.033
187.427
186.488
185.179
183.447
181.223
178.42
174.946
170.729
168
172.16
175.685
178.61
180.986
182.873
184.32
185.371
186.055
186.394
186.396
186.063
185.384
184.338
182.895
181.012
178.639
175.717
172.194
168.034
165.932
170.04
173.582
176.573
179.043
181.031
182.572
183.7
184.438
184.805
184.808
184.448
183.716
182.595
181.059
179.077
176.611
173.625
170.086
165.979
164.429
168.496
172.04
175.067
177.594
179.645
181.248
182.428
183.204
183.59
183.594
183.216
182.448
181.276
179.68
177.635
175.115
172.093
168.553
164.489
163.447
167.486
171.028
174.073
176.631
178.72
180.361
181.572
182.372
182.77
182.775
182.386
181.595
180.393
178.761
176.679
174.128
171.09
167.554
163.519
162.961
166.986
170.526
173.578
176.151
178.257
179.915
181.142
181.953
182.357
182.363
181.968
181.167
179.95
178.301
176.203
173.639
170.594
167.06
163.04
192.858
195.627
196.801
197.438
197.843
198.12
198.314
198.448
198.532
198.572
198.573
198.533
198.449
198.316
198.122
197.845
197.441
196.804
195.629
192.861
184.479
188.477
190.941
192.549
193.657
194.445
195.006
195.394
195.639
195.759
195.76
195.642
195.397
195.01
194.45
193.664
192.557
190.948
188.484
184.484
178.615
182.865
185.938
188.164
189.796
190.998
191.873
192.486
192.876
193.067
193.068
192.88
192.492
191.881
191.007
189.807
188.176
185.95
182.876
178.625
174.171
178.434
181.785
184.378
186.369
187.883
189.007
189.805
190.318
190.569
190.571
190.323
189.814
189.018
187.896
186.385
184.396
181.803
178.452
174.188
170.704
174.921
178.395
181.2
183.427
185.162
186.474
187.417
188.027
188.328
188.33
188.034
187.428
186.49
185.181
183.449
181.225
178.422
174.949
170.732
167.997
172.157
175.683
178.607
180.984
182.871
184.319
185.37
186.055
186.394
186.397
186.064
185.385
184.339
182.896
181.014
178.641
175.719
172.196
168.037
165.929
170.037
173.58
176.571
179.041
181.029
182.571
183.699
184.438
184.805
184.809
184.449
183.717
182.596
181.061
179.079
176.613
173.627
170.088
165.981
164.426
168.493
172.038
175.065
177.592
179.644
181.247
182.427
183.204
183.59
183.595
183.217
182.449
181.277
179.682
177.637
175.117
172.096
168.556
164.491
163.444
167.483
171.025
174.07
176.629
178.719
180.36
181.572
182.371
182.771
182.775
182.386
181.596
180.394
178.762
176.681
174.13
171.092
167.556
163.521
162.959
166.984
170.524
173.576
176.149
178.256
179.914
181.142
181.952
182.357
182.363
181.968
181.168
179.951
178.303
176.205
173.641
170.596
167.063
163.043
104.261
112.791
121.343
129.934
138.588
147.335
156.222
165.308
174.657
184.19
104.13
112.392
120.659
128.934
137.22
145.518
153.822
162.101
170.25
177.966
103.998
111.99
119.97
127.925
135.842
143.697
151.45
159.024
166.278
172.948
103.87
111.602
119.305
126.957
134.528
141.981
149.258
156.272
162.894
168.935
103.752
111.244
118.694
126.07
133.336
140.443
147.331
153.917
160.094
165.733
103.648
110.928
118.158
125.297
132.305
139.129
145.71
151.975
157.837
163.206
103.561
110.666
117.713
124.659
131.459
138.062
144.411
150.441
156.081
161.264
103.494
110.464
117.37
124.169
130.815
137.256
143.438
149.302
154.791
159.848
103.449
110.327
117.136
123.837
130.379
136.714
142.789
148.549