/*--------------------------------*- C++ -*----------------------------------*\
| =========                 |                                                 |
| \\      /  F ield         | OpenFOAM: The Open Source CFD Toolbox           |
|  \\    /   O peration     | Version:  2.4.0                                 |
|   \\  /    A nd           | Web:      www.OpenFOAM.org                      |
|    \\/     M anipulation  |                                                 |
\*---------------------------------------------------------------------------*/
FoamFile
{
    version     2.0;
    format      ascii;
    class       volScalarField;
    location    "0.0032";
    object      T;
}
// * * * * * * * * * * * * * * * * * * * * * * * * * * * * * * * * * * * * * //

dimensions      [0 0 0 1 0 0 0];

internalField   nonuniform List<scalar> 
4800
(
100.193
100.578
100.963
101.347
101.73
102.108
102.478
102.834
103.171
103.483
100.578
101.733
102.889
104.044
105.194
106.333
107.447
108.523
109.541
110.481
100.963
102.889
104.818
106.748
108.673
110.583
112.458
114.272
115.991
117.579
101.347
104.044
106.748
109.458
112.171
114.871
117.534
120.12
122.578
124.847
101.73
105.194
108.673
112.171
115.685
119.201
122.691
126.101
129.358
132.367
102.108
106.332
110.582
114.871
119.201
123.565
127.932
132.242
136.392
140.238
102.478
107.447
112.457
117.533
122.69
127.932
133.238
138.548
143.736
148.585
102.834
108.522
114.271
120.119
126.1
132.241
138.548
144.984
151.425
157.572
103.171
109.54
115.99
122.576
129.356
136.39
143.735
151.424
159.412
167.403
103.483
110.48
117.577
124.845
132.365
140.236
148.583
157.571
167.402
178.182
100.193
100.578
100.963
101.347
101.73
102.108
102.478
102.834
103.171
103.483
100.578
101.733
102.889
104.044
105.195
106.333
107.447
108.523
109.541
110.481
100.963
102.889
104.818
106.748
108.673
110.583
112.458
114.272
115.991
117.579
101.347
104.044
106.748
109.458
112.171
114.871
117.534
120.12
122.578
124.847
101.73
105.194
108.673
112.171
115.685
119.201
122.691
126.101
129.358
132.367
102.108
106.332
110.582
114.871
119.201
123.565
127.932
132.242
136.392
140.238
102.478
107.447
112.457
117.533
122.69
127.932
133.238
138.548
143.736
148.585
102.834
108.522
114.271
120.119
126.1
132.241
138.548
144.985
151.425
157.573
103.171
109.541
115.99
122.576
129.357
136.391
143.735
151.424
159.412
167.403
103.483
110.481
117.578
124.845
132.366
140.237
148.584
157.572
167.403
178.182
100.193
100.578
100.963
101.347
101.73
102.108
102.478
102.834
103.171
103.483
100.578
101.733
102.889
104.044
105.195
106.333
107.447
108.523
109.541
110.481
100.963
102.889
104.818
106.748
108.673
110.583
112.458
114.272
115.991
117.579
101.347
104.044
106.748
109.458
112.171
114.871
117.534
120.12
122.578
124.847
101.73
105.194
108.673
112.171
115.685
119.201
122.691
126.101
129.358
132.367
102.108
106.332
110.582
114.871
119.201
123.565
127.932
132.242
136.392
140.238
102.478
107.447
112.457
117.533
122.69
127.932
133.238
138.548
143.736
148.585
102.834
108.522
114.271
120.119
126.1
132.241
138.548
144.985
151.425
157.573
103.171
109.541
115.99
122.576
129.357
136.391
143.735
151.424
159.412
167.403
103.483
110.481
117.578
124.845
132.366
140.237
148.584
157.572
167.403
178.182
100.193
100.578
100.963
101.347
101.73
102.108
102.478
102.834
103.171
103.483
100.578
101.733
102.889
104.044
105.194
106.333
107.447
108.523
109.541
110.481
100.963
102.889
104.818
106.748
108.673
110.583
112.458
114.272
115.991
117.579
101.347
104.044
106.748
109.458
112.171
114.871
117.534
120.12
122.578
124.847
101.73
105.194
108.673
112.171
115.685
119.201
122.691
126.101
129.358
132.367
102.108
106.332
110.582
114.871
119.201
123.565
127.932
132.242
136.392
140.238
102.478
107.447
112.457
117.533
122.69
127.932
133.238
138.548
143.736
148.585
102.834
108.522
114.271
120.119
126.1
132.241
138.548
144.984
151.425
157.572
103.171
109.54
115.99
122.576
129.356
136.39
143.735
151.424
159.412
167.403
103.483
110.48
117.577
124.845
132.365
140.236
148.583
157.571
167.402
178.182
103.763
104.007
104.213
104.382
104.517
104.622
104.699
104.754
104.788
104.805
104.805
104.788
104.754
104.699
104.622
104.517
104.382
104.213
104.007
103.763
111.325
112.058
112.677
113.183
113.584
113.892
114.121
114.282
114.383
114.432
114.432
114.383
114.281
114.121
113.892
113.583
113.182
112.676
112.058
111.324
118.999
120.228
121.256
122.089
122.745
123.245
123.613
123.871
124.033
124.111
124.11
124.032
123.87
123.613
123.244
122.743
122.088
121.255
120.227
118.998
126.869
128.602
130.033
131.177
132.064
132.733
133.22
133.557
133.769
133.87
133.87
133.768
133.556
133.219
132.731
132.063
131.175
130.031
128.6
126.867
135.032
137.282
139.103
140.526
141.607
142.407
142.981
143.374
143.618
143.735
143.735
143.618
143.373
142.979
142.405
141.604
140.523
139.101
137.28
135.03
143.616
146.398
148.576
150.221
151.434
152.31
152.927
153.343
153.6
153.722
153.722
153.599
153.342
152.926
152.308
151.432
150.219
148.573
146.395
143.614
152.8
156.123
158.585
160.354
161.604
162.478
163.078
163.477
163.72
163.835
163.835
163.72
163.476
163.077
162.476
161.602
160.352
158.583
156.121
152.798
162.883
166.713
169.295
171.01
172.154
172.922
173.436
173.771
173.972
174.067
174.067
173.972
173.77
173.435
172.921
172.152
171.008
169.293
166.711
162.881
174.45
178.555
180.874
182.24
183.083
183.624
183.975
184.2
184.334
184.397
184.397
184.334
184.2
183.975
183.623
183.083
182.239
180.874
178.554
174.45
188.964
192.186
193.411
193.994
194.319
194.517
194.643
194.722
194.77
194.792
194.792
194.77
194.722
194.643
194.517
194.319
193.994
193.41
192.185
188.963
103.763
104.007
104.213
104.382
104.517
104.622
104.699
104.753
104.788
104.805
104.805
104.788
104.753
104.699
104.621
104.517
104.382
104.212
104.006
103.762
111.325
112.058
112.677
113.182
113.583
113.892
114.121
114.281
114.383
114.432
114.432
114.382
114.281
114.12
113.891
113.582
113.181
112.675
112.057
111.323
118.999
120.228
121.256
122.089
122.744
123.245
123.613
123.87
124.032
124.11
124.11
124.031
123.869
123.612
123.243
122.742
122.087
121.253
120.225
118.997
126.869
128.602
130.033
131.177
132.064
132.733
133.22
133.557
133.768
133.869
133.869
133.767
133.555
133.218
132.73
132.061
131.174
130.03
128.599
126.866
135.032
137.282
139.103
140.525
141.606
142.406
142.98
143.373
143.618
143.735
143.734
143.617
143.372
142.978
142.404
141.603
140.522
139.099
137.279
135.029
143.616
146.398
148.575
150.221
151.434
152.31
152.927
153.343
153.599
153.721
153.721
153.598
153.341
152.925
152.307
151.431
150.217
148.572
146.394
143.612
152.8
156.123
158.585
160.354
161.603
162.477
163.078
163.476
163.719
163.834
163.834
163.718
163.475
163.076
162.475
161.601
160.35
158.582
156.119
152.797
162.883
166.713
169.294
171.009
172.153
172.921
173.435
173.77
173.971
174.066
174.066
173.971
173.769
173.434
172.919
172.151
171.007
169.291
166.71
162.88
174.45
178.555
180.874
182.239
183.083
183.623
183.975
184.199
184.333
184.396
184.396
184.333
184.199
183.973
183.622
183.081
182.237
180.872
178.553
174.448
188.964
192.185
193.41
193.993
194.318
194.517
194.642
194.722
194.769
194.791
194.791
194.769
194.722
194.642
194.516
194.318
193.993
193.41
192.185
188.962
103.763
104.007
104.213
104.382
104.517
104.622
104.699
104.753
104.788
104.805
104.805
104.788
104.753
104.699
104.621
104.517
104.382
104.212
104.006
103.762
111.325
112.058
112.677
113.182
113.583
113.892
114.121
114.281
114.383
114.432
114.432
114.382
114.281
114.12
113.891
113.582
113.181
112.675
112.057
111.323
118.999
120.228
121.256
122.089
122.744
123.245
123.613
123.87
124.032
124.11
124.11
124.031
123.869
123.612
123.243
122.742
122.087
121.253
120.225
118.997
126.869
128.602
130.033
131.177
132.064
132.733
133.22
133.557
133.768
133.869
133.869
133.767
133.555
133.218
132.73
132.061
131.174
130.03
128.599
126.866
135.032
137.282
139.103
140.525
141.606
142.406
142.98
143.373
143.618
143.735
143.734
143.617
143.372
142.978
142.404
141.603
140.522
139.099
137.279
135.029
143.616
146.398
148.575
150.221
151.434
152.31
152.927
153.343
153.599
153.721
153.721
153.598
153.341
152.925
152.307
151.431
150.217
148.572
146.394
143.612
152.8
156.123
158.585
160.354
161.603
162.477
163.078
163.476
163.719
163.834
163.834
163.718
163.475
163.076
162.475
161.601
160.35
158.582
156.119
152.797
162.883
166.713
169.294
171.009
172.153
172.921
173.435
173.77
173.971
174.066
174.066
173.971
173.769
173.434
172.919
172.151
171.007
169.291
166.71
162.88
174.45
178.555
180.874
182.239
183.083
183.623
183.975
184.199
184.333
184.396
184.396
184.333
184.199
183.973
183.622
183.081
182.237
180.872
178.553
174.448
188.964
192.185
193.41
193.993
194.318
194.517
194.642
194.722
194.769
194.791
194.791
194.769
194.722
194.642
194.516
194.318
193.993
193.41
192.185
188.962
103.763
104.007
104.213
104.382
104.517
104.622
104.699
104.754
104.788
104.805
104.805
104.788
104.754
104.699
104.622
104.517
104.382
104.213
104.007
103.763
111.325
112.058
112.677
113.183
113.584
113.892
114.121
114.282
114.383
114.432
114.432
114.383
114.281
114.121
113.892
113.583
113.182
112.676
112.058
111.324
118.999
120.228
121.256
122.089
122.745
123.245
123.613
123.871
124.033
124.111
124.11
124.032
123.87
123.613
123.244
122.743
122.088
121.255
120.227
118.998
126.869
128.602
130.033
131.177
132.064
132.733
133.22
133.557
133.769
133.87
133.87
133.768
133.556
133.219
132.731
132.063
131.175
130.031
128.6
126.867
135.032
137.282
139.103
140.526
141.607
142.407
142.981
143.374
143.618
143.735
143.735
143.618
143.373
142.979
142.405
141.604
140.523
139.101
137.28
135.03
143.616
146.398
148.576
150.221
151.434
152.31
152.927
153.343
153.6
153.722
153.722
153.599
153.342
152.926
152.308
151.432
150.219
148.573
146.395
143.614
152.8
156.123
158.585
160.354
161.604
162.478
163.078
163.477
163.72
163.835
163.835
163.72
163.476
163.077
162.476
161.602
160.352
158.583
156.121
152.798
162.883
166.713
169.295
171.01
172.154
172.922
173.436
173.771
173.972
174.067
174.067
173.972
173.77
173.435
172.921
172.152
171.008
169.293
166.711
162.881
174.45
178.555
180.874
182.24
183.083
183.624
183.975
184.2
184.334
184.397
184.397
184.334
184.2
183.975
183.623
183.083
182.239
180.874
178.554
174.45
188.964
192.186
193.411
193.994
194.319
194.517
194.643
194.722
194.77
194.792
194.792
194.77
194.722
194.643
194.517
194.319
193.994
193.41
192.185
188.963
103.483
103.172
102.835
102.478
102.108
101.73
101.348
100.963
100.578
100.193
110.481
109.541
108.523
107.447
106.333
105.195
104.045
102.89
101.734
100.578
117.578
115.991
114.272
112.458
110.583
108.674
106.749
104.819
102.89
100.963
124.846
122.577
120.119
117.534
114.871
112.171
109.459
106.749
104.045
101.348
132.366
129.357
126.101
122.691
119.202
115.686
112.172
108.674
105.195
101.73
140.237
136.391
132.242
127.933
123.566
119.202
114.872
110.583
106.333
102.108
148.584
143.736
138.549
133.239
127.933
122.691
117.534
112.459
107.448
102.478
157.572
151.425
144.986
138.549
132.243
126.102
120.121
114.273
108.524
102.835
167.404
159.413
151.426
143.737
136.393
129.359
122.579
115.992
109.542
103.172
178.183
167.404
157.574
148.587
140.24
132.369
124.848
117.58
110.482
103.483
103.482
103.171
102.834
102.477
102.107
101.729
101.347
100.962
100.577
100.192
110.48
109.54
108.522
107.446
106.332
105.194
104.044
102.889
101.733
100.577
117.576
115.989
114.27
112.457
110.582
108.672
106.747
104.817
102.889
100.962
124.844
122.575
120.118
117.532
114.87
112.17
109.458
106.747
104.044
101.347
132.364
129.355
126.099
122.689
119.2
115.684
112.17
108.672
105.194
101.729
140.235
136.389
132.24
127.931
123.564
119.201
114.87
110.582
106.332
102.107
148.582
143.734
138.547
133.237
127.931
122.69
117.533
112.457
107.446
102.477
157.57
151.423
144.984
138.547
132.241
126.1
120.119
114.271
108.522
102.834
167.402
159.411
151.424
143.735
136.391
129.357
122.577
115.99
109.54
103.171
178.181
167.402
157.572
148.584
140.238
132.367
124.846
117.578
110.481
103.482
103.482
103.171
102.834
102.477
102.107
101.729
101.347
100.962
100.577
100.192
110.48
109.54
108.522
107.446
106.332
105.194
104.044
102.889
101.733
100.577
117.576
115.989
114.27
112.457
110.582
108.672
106.747
104.817
102.889
100.962
124.844
122.575
120.118
117.532
114.87
112.17
109.458
106.747
104.044
101.347
132.364
129.355
126.099
122.689
119.2
115.684
112.17
108.672
105.194
101.729
140.235
136.389
132.24
127.931
123.564
119.201
114.87
110.582
106.332
102.107
148.582
143.734
138.547
133.237
127.931
122.69
117.533
112.457
107.446
102.477
157.57
151.423
144.984
138.547
132.241
126.1
120.119
114.271
108.522
102.834
167.402
159.411
151.424
143.735
136.391
129.357
122.577
115.99
109.54
103.171
178.181
167.402
157.572
148.584
140.238
132.367
124.846
117.578
110.481
103.482
103.483
103.172
102.835
102.478
102.108
101.73
101.348
100.963
100.578
100.193
110.481
109.541
108.523
107.447
106.333
105.195
104.045
102.89
101.734
100.578
117.578
115.991
114.272
112.458
110.583
108.674
106.749
104.819
102.89
100.963
124.846
122.577
120.119
117.534
114.871
112.171
109.459
106.749
104.045
101.348
132.366
129.357
126.101
122.691
119.202
115.686
112.172
108.674
105.195
101.73
140.237
136.391
132.242
127.933
123.566
119.202
114.872
110.583
106.333
102.108
148.584
143.736
138.549
133.239
127.933
122.691
117.534
112.459
107.448
102.478
157.572
151.425
144.986
138.549
132.243
126.102
120.121
114.273
108.524
102.835
167.404
159.413
151.426
143.737
136.393
129.359
122.579
115.992
109.542
103.172
178.183
167.404
157.574
148.587
140.24
132.369
124.848
117.58
110.482
103.483
188.965
174.452
162.884
152.802
143.617
135.034
126.87
119
111.326
103.763
192.187
178.557
166.715
156.125
146.4
137.285
128.604
120.23
112.06
104.007
193.412
180.877
169.298
158.589
148.579
139.107
130.037
121.259
112.679
104.214
193.995
182.243
171.014
160.36
150.227
140.532
131.183
122.094
113.186
104.384
194.321
183.089
172.161
161.613
151.444
141.616
132.073
122.752
113.588
104.519
194.52
183.632
172.933
162.491
152.325
142.422
132.746
123.256
113.9
104.624
194.647
183.987
173.453
163.1
152.95
143.004
133.241
123.63
114.132
104.703
194.729
184.217
173.797
163.51
153.379
143.409
133.589
123.895
114.298
104.759
194.779
184.36
174.012
163.769
153.653
143.671
133.816
124.07
114.407
104.797
194.805
184.436
174.126
163.908
153.802
143.814
133.941
124.166
114.468
104.817
194.812
184.454
174.155
163.944
153.84
143.852
133.974
124.192
114.484
104.823
194.8
184.419
174.102
163.881
153.774
143.789
133.92
124.151
114.459
104.814
194.767
184.326
173.963
163.713
153.598
143.622
133.777
124.041
114.39
104.791
194.709
184.162
173.719
163.425
153.298
143.34
133.535
123.858
114.276
104.752
194.616
183.903
173.341
162.984
152.848
142.922
133.182
123.592
114.111
104.696
194.468
183.503
172.775
162.343
152.208
142.341
132.698
123.231
113.889
104.622
194.226
182.878
171.934
161.432
151.33
141.564
132.063
122.764
113.604
104.526
193.79
181.868
170.681
160.154
150.153
140.554
131.258
122.18
113.251
104.408
192.862
180.15
168.804
158.394
148.619
139.287
130.27
121.476
112.829
104.267
190.385
177.104
166.044
156.056
146.699
137.759
129.107
120.658
112.344
104.106
188.963
174.449
162.882
152.8
143.615
135.032
126.868
118.999
111.324
103.762
192.185
178.554
166.712
156.123
146.398
137.283
128.602
120.228
112.058
104.006
193.41
180.874
169.295
158.587
148.577
139.105
130.035
121.257
112.677
104.213
193.993
182.24
171.012
160.357
150.225
140.529
131.18
122.092
113.184
104.383
194.319
183.086
172.158
161.61
151.441
141.614
132.071
122.75
113.587
104.518
194.518
183.629
172.93
162.489
152.323
142.419
132.744
123.254
113.898
104.623
194.645
183.984
173.45
163.097
152.948
143.001
133.238
123.628
114.13
104.702
194.727
184.214
173.794
163.507
153.376
143.406
133.586
123.893
114.296
104.758
194.777
184.357
174.008
163.766
153.65
143.669
133.813
124.068
114.405
104.796
194.803
184.432
174.123
163.905
153.799
143.812
133.938
124.164
114.466
104.816
194.81
184.451
174.151
163.94
153.837
143.849
133.971
124.19
114.482
104.822
194.797
184.416
174.099
163.877
153.771
143.786
133.917
124.148
114.457
104.813
194.764
184.323
173.959
163.71
153.595
143.619
133.774
124.039
114.388
104.79
194.706
184.159
173.716
163.421
153.295
143.337
133.532
123.855
114.274
104.751
194.613
183.899
173.337
162.98
152.844
142.919
133.179
123.589
114.109
104.695
194.466
183.499
172.771
162.339
152.205
142.338
132.695
123.228
113.887
104.62
194.224
182.874
171.93
161.428
151.327
141.56
132.06
122.761
113.601
104.524
193.787
181.864
170.677
160.15
150.149
140.551
131.254
122.177
113.248
104.406
192.86
180.146
168.8
158.39
148.615
139.283
130.267
121.473
112.827
104.266
190.382
177.1
166.04
156.052
146.696
137.755
129.104
120.655
112.341
104.105
188.963
174.449
162.882
152.8
143.615
135.032
126.868
118.999
111.324
103.762
192.185
178.554
166.712
156.123
146.398
137.283
128.602
120.228
112.058
104.006
193.41
180.874
169.295
158.587
148.577
139.105
130.035
121.257
112.677
104.213
193.993
182.24
171.012
160.357
150.225
140.529
131.18
122.092
113.184
104.383
194.319
183.086
172.158
161.61
151.441
141.614
132.071
122.75
113.587
104.518
194.518
183.629
172.93
162.489
152.323
142.419
132.744
123.254
113.898
104.623
194.645
183.984
173.45
163.097
152.948
143.001
133.238
123.628
114.13
104.702
194.727
184.214
173.794
163.507
153.376
143.406
133.586
123.893
114.296
104.758
194.777
184.357
174.008
163.766
153.65
143.669
133.813
124.068
114.405
104.796
194.803
184.432
174.123
163.905
153.799
143.812
133.938
124.164
114.466
104.816
194.81
184.451
174.151
163.94
153.837
143.849
133.971
124.19
114.482
104.822
194.797
184.416
174.099
163.877
153.771
143.786
133.917
124.148
114.457
104.813
194.764
184.323
173.959
163.71
153.595
143.619
133.774
124.039
114.388
104.79
194.706
184.159
173.716
163.421
153.295
143.337
133.532
123.855
114.274
104.751
194.613
183.899
173.337
162.98
152.844
142.919
133.179
123.589
114.109
104.695
194.466
183.499
172.771
162.339
152.205
142.338
132.695
123.228
113.887
104.62
194.224
182.874
171.93
161.428
151.327
141.56
132.06
122.761
113.601
104.524
193.787
181.864
170.677
160.15
150.149
140.551
131.254
122.177
113.248
104.406
192.86
180.146
168.8
158.39
148.615
139.283
130.267
121.473
112.827
104.266
190.382
177.1
166.04
156.052
146.696
137.755
129.104
120.655
112.341
104.105
188.965
174.452
162.884
152.802
143.617
135.034
126.87
119
111.326
103.763
192.187
178.557
166.715
156.125
146.4
137.285
128.604
120.23
112.06
104.007
193.412
180.877
169.298
158.589
148.579
139.107
130.037
121.259
112.679
104.214
193.995
182.243
171.014
160.36
150.227
140.532
131.183
122.094
113.186
104.384
194.321
183.089
172.161
161.613
151.444
141.616
132.073
122.752
113.588
104.519
194.52
183.632
172.933
162.491
152.325
142.422
132.746
123.256
113.9
104.624
194.647
183.987
173.453
163.1
152.95
143.004
133.241
123.63
114.132
104.703
194.729
184.217
173.797
163.51
153.379
143.409
133.589
123.895
114.298
104.759
194.779
184.36
174.012
163.769
153.653
143.671
133.816
124.07
114.407
104.797
194.805
184.436
174.126
163.908
153.802
143.814
133.941
124.166
114.468
104.817
194.812
184.454
174.155
163.944
153.84
143.852
133.974
124.192
114.484
104.823
194.8
184.419
174.102
163.881
153.774
143.789
133.92
124.151
114.459
104.814
194.767
184.326
173.963
163.713
153.598
143.622
133.777
124.041
114.39
104.791
194.709
184.162
173.719
163.425
153.298
143.34
133.535
123.858
114.276
104.752
194.616
183.903
173.341
162.984
152.848
142.922
133.182
123.592
114.111
104.696
194.468
183.503
172.775
162.343
152.208
142.341
132.698
123.231
113.889
104.622
194.226
182.878
171.934
161.432
151.33
141.564
132.063
122.764
113.604
104.526
193.79
181.868
170.681
160.154
150.153
140.554
131.258
122.18
113.251
104.408
192.862
180.15
168.804
158.394
148.619
139.287
130.27
121.476
112.829
104.267
190.385
177.104
166.044
156.056
146.699
137.759
129.107
120.658
112.344
104.106
181.979
171.894
162.28
153.163
144.438
136.008
127.799
119.749
111.808
103.929
174.223
166.301
158.113
149.974
141.972
134.12
126.398
118.781
111.239
103.742
167.701
161.097
154.024
146.767
139.471
132.198
124.973
117.797
110.662
103.551
162.287
156.523
150.274
143.747
137.077
130.344
123.592
116.842
110.1
103.366
157.822
152.629
146.988
141.041
134.899
128.641
122.315
115.955
109.579
103.194
154.198
149.411
144.22
138.724
133.011
127.15
121.191
115.172
109.116
103.041
151.349
146.856
141.996
136.841
131.461
125.917
120.256
114.517
108.729
102.913
149.238
144.951
140.324
135.414
130.279
124.971
119.537
114.012
108.429
102.814
147.841
143.687
139.209
134.458
129.484
124.333
119.05
113.67
108.225
102.747
147.146
143.056
138.652
133.979
129.084
124.012
118.804
113.498
108.123
102.717
181.975
171.89
162.276
153.159
144.434
136.005
127.795
119.746
111.805
103.928
174.219
166.298
158.11
149.97
141.969
134.116
126.395
118.778
111.236
103.74
167.699
161.094
154.021
146.764
139.467
132.195
124.97
117.794
110.659
103.55
162.285
156.52
150.271
143.744
137.074
130.341
123.589
116.839
110.098
103.364
157.819
152.626
146.985
141.038
134.896
128.637
122.312
115.952
109.575
103.192
154.195
149.409
144.217
138.722
133.008
127.147
121.188
115.168
109.112
103.039
151.347
146.854
141.993
136.838
131.458
125.913
120.252
114.513
108.725
102.911
149.236
144.949
140.321
135.411
130.276
124.968
119.532
114.007
108.424
102.811
147.839
143.684
139.207
134.455
129.48
124.329
119.045
113.665
108.219
102.742
147.143
143.053
138.649
133.976
129.08
124.008
118.8
113.492
108.116
102.711
181.975
171.89
162.276
153.159
144.434
136.005
127.795
119.746
111.805
103.928
174.219
166.298
158.11
149.97
141.969
134.116
126.395
118.778
111.236
103.74
167.698
161.094
154.021
146.764
139.467
132.195
124.97
117.794
110.659
103.55
162.285
156.52
150.271
143.744
137.074
130.341
123.589
116.839
110.098
103.364
157.819
152.626
146.985
141.038
134.896
128.637
122.312
115.952
109.575
103.192
154.195
149.409
144.218
138.722
133.008
127.147
121.188
115.168
109.112
103.039
151.347
146.854
141.993
136.838
131.458
125.913
120.252
114.513
108.725
102.911
149.236
144.949
140.322
135.411
130.276
124.968
119.532
114.007
108.424
102.811
147.839
143.684
139.207
134.455
129.48
124.329
119.045
113.665
108.219
102.742
147.143
143.053
138.649
133.976
129.08
124.008
118.8
113.492
108.116
102.711
181.979
171.894
162.28
153.163
144.438
136.008
127.799
119.749
111.808
103.929
174.223
166.301
158.113
149.974
141.972
134.12
126.398
118.781
111.239
103.742
167.702
161.097
154.024
146.767
139.471
132.198
124.973
117.797
110.662
103.551
162.287
156.523
150.274
143.747
137.077
130.344
123.592
116.842
110.1
103.366
157.822
152.629
146.988
141.041
134.899
128.641
122.315
115.955
109.579
103.194
154.198
149.411
144.22
138.725
133.011
127.15
121.191
115.172
109.116
103.041
151.349
146.857
141.996
136.841
131.461
125.917
120.256
114.517
108.729
102.913
149.238
144.952
140.324
135.414
130.279
124.972
119.537
114.012
108.429
102.814
147.841
143.687
139.209
134.458
129.484
124.333
119.05
113.67
108.225
102.747
147.146
143.056
138.652
133.979
129.084
124.012
118.804
113.498
108.123
102.717
191.483
194.45
195.665
196.3
196.689
196.949
197.128
197.248
197.323
197.359
197.359
197.323
197.249
197.128
196.95
196.691
196.301
195.666
194.45
191.482
181.027
185.138
187.609
189.18
190.233
190.965
191.476
191.825
192.043
192.149
192.149
192.044
191.827
191.478
190.967
190.236
189.182
187.611
185.138
181.024
173.361
177.566
180.555
182.678
184.202
185.304
186.094
186.64
186.984
187.151
187.151
186.985
186.642
186.097
185.308
184.206
182.681
180.558
177.567
173.36
167.305
171.37
174.53
176.94
178.762
180.126
181.127
181.83
182.278
182.496
182.496
182.28
181.833
181.132
180.131
178.767
176.945
174.535
171.374
167.307
162.407
166.293
169.472
172.012
174.006
175.543
176.694
177.513
178.04
178.298
178.299
178.043
177.518
176.7
175.551
174.016
172.022
169.482
166.303
162.415
158.467
162.184
165.321
167.906
169.991
171.633
172.883
173.785
174.369
174.657
174.658
174.373
173.792
172.893
171.645
170.005
167.921
165.337
162.201
158.483
155.381
158.957
162.034
164.622
166.749
168.451
169.763
170.719
171.343
171.651
171.653
171.349
170.729
169.777
168.467
166.768
164.644
162.058
158.982
155.407
153.097
156.563
159.584
162.158
164.3
166.034
167.384
168.373
169.022
169.344
169.347
169.029
168.385
167.4
166.055
164.326
162.187
159.616
156.598
153.132
151.585
154.978
157.956
160.514
162.66
164.409
165.778
166.787
167.451
167.781
167.784
167.459
166.801
165.798
164.434
162.691
160.549
157.995
155.02
151.63
150.832
154.188
157.144
159.692
161.838
163.592
164.97
165.988
166.658
166.992
166.996
166.668
166.003
164.992
163.62
161.871
159.731
157.187
154.235
150.882
191.485
194.452
195.666
196.301
196.691
196.95
197.128
197.248
197.323
197.359
197.359
197.323
197.248
197.128
196.949
196.69
196.3
195.664
194.448
191.48
181.03
185.141
187.612
189.182
190.235
190.966
191.478
191.826
192.044
192.149
192.149
192.044
191.826
191.477
190.966
190.234
189.18
187.609
185.135
181.021
173.365
177.569
180.558
182.68
184.204
185.306
186.095
186.64
186.984
187.151
187.151
186.985
186.641
186.096
185.306
184.204
182.68
180.556
177.565
173.357
167.308
171.373
174.532
176.942
178.764
180.127
181.128
181.831
182.278
182.496
182.496
182.279
181.832
181.13
180.13
178.766
176.943
174.533
171.372
167.304
162.41
166.296
169.474
172.014
174.008
175.544
176.695
177.514
178.04
178.298
178.299
178.043
177.517
176.699
175.549
174.014
172.02
169.48
166.3
162.413
158.47
162.187
165.323
167.908
169.993
171.634
172.884
173.785
174.369
174.657
174.658
174.373
173.791
172.892
171.643
170.003
167.92
165.335
162.199
158.48
155.384
158.959
162.036
164.624
166.751
168.452
169.765
170.72
171.343
171.651
171.653
171.348
170.728
169.775
168.466
166.767
164.642
162.056
158.98
155.405
153.1
156.566
159.586
162.16
164.302
166.035
167.385
168.374
169.022
169.344
169.346
169.029
168.384
167.399
166.054
164.324
162.185
159.614
156.596
153.13
151.588
154.981
157.958
160.516
162.662
164.41
165.779
166.788
167.451
167.781
167.784
167.459
166.8
165.797
164.433
162.689
160.547
157.993
155.018
151.628
150.835
154.191
157.146
159.694
161.84
163.594
164.971
165.988
166.658
166.992
166.995
166.667
166.002
164.991
163.619
161.87
159.729
157.185
154.233
150.88
191.485
194.452
195.666
196.301
196.691
196.95
197.128
197.248
197.323
197.359
197.359
197.323
197.248
197.128
196.949
196.69
196.3
195.664
194.448
191.48
181.03
185.141
187.612
189.182
190.235
190.966
191.478
191.826
192.044
192.149
192.149
192.044
191.826
191.477
190.966
190.234
189.18
187.609
185.135
181.021
173.365
177.569
180.558
182.68
184.204
185.306
186.095
186.64
186.984
187.151
187.151
186.985
186.641
186.096
185.306
184.204
182.68
180.556
177.565
173.357
167.308
171.373
174.532
176.942
178.763
180.127
181.128
181.831
182.278
182.496
182.496
182.279
181.832
181.13
180.13
178.766
176.943
174.533
171.372
167.304
162.41
166.296
169.474
172.014
174.008
175.544
176.695
177.514
178.04
178.298
178.299
178.043
177.517
176.699
175.549
174.014
172.02
169.48
166.3
162.413
158.47
162.187
165.323
167.908
169.993
171.634
172.884
173.785
174.369
174.657
174.658
174.373
173.791
172.892
171.643
170.003
167.92
165.335
162.199
158.48
155.384
158.959
162.036
164.624
166.751
168.452
169.765
170.72
171.343
171.651
171.653
171.348
170.728
169.775
168.466
166.767
164.642
162.056
158.98
155.405
153.1
156.566
159.586
162.16
164.302
166.035
167.385
168.374
169.022
169.344
169.346
169.029
168.384
167.399
166.054
164.324
162.185
159.614
156.596
153.13
151.588
154.981
157.958
160.516
162.662
164.41
165.779
166.788
167.451
167.781
167.784
167.459
166.8
165.797
164.433
162.689
160.547
157.993
155.018
151.628
150.835
154.191
157.146
159.694
161.84
163.594
164.971
165.988
166.658
166.992
166.995
166.667
166.002
164.991
163.619
161.87
159.729
157.185
154.233
150.88
191.483
194.45
195.665
196.3
196.689
196.949
197.128
197.248
197.323
197.359
197.359
197.323
197.249
197.129
196.95
196.691
196.301
195.666
194.45
191.482
181.027
185.138
187.609
189.18
190.233
190.965
191.476
191.825
192.043
192.149
192.149
192.044
191.827
191.478
190.967
190.236
189.182
187.611
185.138
181.024
173.362
177.566
180.556
182.678
184.202
185.304
186.094
186.64
186.984
187.151
187.152
186.986
186.642
186.097
185.308
184.206
182.681
180.558
177.567
173.36
167.305
171.37
174.53
176.94
178.762
180.126
181.127
181.83
182.278
182.496
182.496
182.28
181.833
181.131
180.131
178.767
176.945
174.535
171.374
167.307
162.407
166.293
169.472
172.012
174.006
175.543
176.694
177.513
178.04
178.298
178.299
178.043
177.518
176.7
175.551
174.016
172.022
169.482
166.303
162.415
158.467
162.184
165.321
167.906
169.991
171.633
172.883
173.785
174.369
174.657
174.658
174.374
173.792
172.893
171.645
170.005
167.922
165.337
162.201
158.483
155.381
158.957
162.034
164.622
166.749
168.451
169.764
170.719
171.343
171.651
171.653
171.349
170.729
169.777
168.467
166.768
164.644
162.058
158.982
155.407
153.097
156.564
159.584
162.158
164.3
166.034
167.384
168.373
169.022
169.344
169.347
169.029
168.385
167.4
166.055
164.326
162.187
159.616
156.598
153.133
151.585
154.978
157.956
160.514
162.66
164.409
165.778
166.787
167.451
167.781
167.784
167.459
166.801
165.798
164.434
162.69
160.549
157.995
155.02
151.63
150.832
154.188
157.144
159.692
161.838
163.592
164.97
165.987
166.658
166.992
166.995
166.667
166.003
164.992
163.62
161.871
159.73
157.186
154.235
150.882
103.93
111.812
119.758
127.811
136.024
144.454
153.178
162.293
171.904
181.984
103.743
111.244
118.79
126.411
134.135
141.989
149.99
158.127
166.312
174.229
103.552
110.666
117.805
124.985
132.212
139.485
146.781
154.036
161.106
167.706
103.366
110.103
116.848
123.601
130.354
137.087
143.756
150.281
156.527
162.288
103.193
109.579
115.958
122.32
128.645
134.903
141.042
146.987
152.625
157.816
103.04
109.114
115.17
121.189
127.147
133.006
138.716
144.209
149.398
154.183
102.91
108.724
114.511
120.247
125.904
131.445
136.821
141.974
146.832
151.324
102.81
108.421
113.999
119.518
124.948
130.251
135.383
140.29
144.916
149.202
102.741
108.215
113.649
119.021
124.299
129.445
134.416
139.164
143.641
147.795
102.702
108.11
113.472
118.77
123.971
129.038
133.93
138.601
143.004
147.094