/*--------------------------------*- C++ -*----------------------------------*\
| =========                 |                                                 |
| \\      /  F ield         | OpenFOAM: The Open Source CFD Toolbox           |
|  \\    /   O peration     | Version:  2.4.0                                 |
|   \\  /    A nd           | Web:      www.OpenFOAM.org                      |
|    \\/     M anipulation  |                                                 |
\*---------------------------------------------------------------------------*/
FoamFile
{
    version     2.0;
    format      ascii;
    class       volScalarField;
    location    "2.5";
    object      p;
}
// * * * * * * * * * * * * * * * * * * * * * * * * * * * * * * * * * * * * * //

dimensions      [0 2 -2 0 0 0 0];

internalField   nonuniform List<scalar> 
4800
(
-1.38739e-06
-0.00158696
-0.0032373
-0.00444591
-0.0048924
-0.00442773
-0.00300612
-0.000632374
0.00264776
0.00673787
0.00157731
-3.78264e-05
-0.00120771
-0.00188893
-0.00195975
-0.00131141
0.000102617
0.00229756
0.00526235
0.00894916
0.00326381
0.00108314
-9.38705e-05
-0.000621511
-0.000567845
0.000125338
0.0014889
0.00354861
0.00632449
0.00981129
0.00439083
0.00156581
0.000217791
-0.00032438
-0.000284934
0.000351177
0.00160363
0.00351635
0.00615285
0.00956671
0.00441542
0.00108097
-0.000448014
-0.00107708
-0.00114358
-0.000657925
0.000405792
0.00212959
0.00464784
0.00811952
0.0029794
-0.000656958
-0.00233399
-0.00309923
-0.00335713
-0.00312427
-0.00234644
-0.000876863
0.00153074
0.00524401
-8.90224e-05
-0.00379114
-0.00556165
-0.00649805
-0.00702944
-0.00716366
-0.00679813
-0.00569557
-0.00345208
0.000724846
-0.00479064
-0.00832314
-0.0101242
-0.0112561
-0.0121382
-0.0127649
-0.0129757
-0.0124313
-0.0105542
-0.00571644
-0.0109623
-0.0141173
-0.015885
-0.0172207
-0.0185103
-0.0197436
-0.0207081
-0.0209671
-0.0198463
-0.0141745
-0.0182947
-0.0209181
-0.0225906
-0.02411
-0.0258206
-0.0277423
-0.0296788
-0.0311985
-0.0320637
-0.0275956
-3.85553e-06
-0.00160857
-0.0032688
-0.00448609
-0.00493776
-0.00447521
-0.00305369
-0.000678041
0.00260632
0.00670326
0.00159408
-4.2752e-05
-0.00119062
-0.00186173
-0.0019275
-0.00127598
0.000138149
0.00233059
0.00529133
0.00897415
0.00329373
0.00105711
-9.52089e-05
-0.000620537
-0.000569267
0.000124013
0.00148745
0.00354651
0.00632162
0.00980954
0.00443449
0.00152939
0.000217848
-0.000321257
-0.000286008
0.000349615
0.00160161
0.00351313
0.00614737
0.00956189
0.00446879
0.00103831
-0.000443206
-0.00106664
-0.00113732
-0.000651965
0.000411097
0.00213267
0.00464433
0.00811276
0.00303753
-0.000704094
-0.00232767
-0.00308594
-0.00334796
-0.00311518
-0.00233756
-0.000869746
0.00152474
0.00522531
-3.07965e-05
-0.00383944
-0.00555489
-0.00648352
-0.00701839
-0.00715221
-0.00678543
-0.00568034
-0.00345995
0.000677468
-0.004737
-0.00836947
-0.010118
-0.0112419
-0.0121266
-0.0127532
-0.0129624
-0.0124077
-0.0105773
-0.00588151
-0.0109175
-0.0141592
-0.0158807
-0.0172088
-0.0184994
-0.0197317
-0.0206921
-0.0209112
-0.0198299
-0.0145451
-0.0182623
-0.0209543
-0.0225898
-0.0241032
-0.0258133
-0.0277316
-0.0296558
-0.0310587
-0.0317376
-0.0277057
-4.44659e-06
-0.00160887
-0.00326894
-0.00448616
-0.00493779
-0.00447523
-0.0030537
-0.000678049
0.00260631
0.00670325
0.0015938
-4.29422e-05
-0.00119073
-0.00186178
-0.00192753
-0.001276
0.00013814
0.00233059
0.00529132
0.00897415
0.00329358
0.00105699
-9.52768e-05
-0.000620575
-0.000569291
0.000123998
0.00148744
0.0035465
0.00632162
0.00980953
0.0044344
0.00152933
0.000217809
-0.000321283
-0.000286029
0.000349601
0.0016016
0.00351313
0.00614737
0.00956189
0.00446874
0.00103827
-0.00044323
-0.00106666
-0.00113733
-0.000651978
0.000411089
0.00213266
0.00464432
0.00811276
0.0030375
-0.00070412
-0.00232769
-0.00308596
-0.00334798
-0.00311519
-0.00233757
-0.000869756
0.00152473
0.0052253
-3.08191e-05
-0.00383947
-0.00555491
-0.00648354
-0.00701841
-0.00715222
-0.00678545
-0.00568035
-0.00345996
0.00067746
-0.00473702
-0.00836949
-0.010118
-0.0112419
-0.0121267
-0.0127532
-0.0129624
-0.0124077
-0.0105773
-0.00588152
-0.0109175
-0.0141593
-0.0158807
-0.0172088
-0.0184994
-0.0197317
-0.0206921
-0.0209112
-0.0198299
-0.0145451
-0.0182623
-0.0209543
-0.0225898
-0.0241032
-0.0258133
-0.0277316
-0.0296559
-0.0310587
-0.0317376
-0.0277057
-3.40293e-06
-0.00158778
-0.00323767
-0.00444608
-0.00489248
-0.00442777
-0.00300614
-0.000632387
0.00264774
0.00673786
0.00157652
-3.83094e-05
-0.00120798
-0.00188906
-0.00195982
-0.00131145
0.000102591
0.00229754
0.00526234
0.00894915
0.00326344
0.00108287
-9.40389e-05
-0.000621602
-0.000567899
0.0001253
0.00148887
0.00354859
0.00632447
0.00981127
0.00439063
0.00156566
0.000217689
-0.000324444
-0.000284983
0.000351137
0.0016036
0.00351633
0.00615283
0.00956669
0.00441531
0.00108089
-0.00044808
-0.00107713
-0.00114362
-0.000657963
0.000405765
0.00212957
0.00464782
0.00811951
0.00297933
-0.000657017
-0.00233404
-0.00309927
-0.00335717
-0.00312431
-0.00234646
-0.000876884
0.00153072
0.00524399
-8.90869e-05
-0.0037912
-0.0055617
-0.0064981
-0.00702948
-0.0071637
-0.00679815
-0.00569559
-0.0034521
0.000724827
-0.0047907
-0.00832319
-0.0101242
-0.0112561
-0.0121382
-0.0127649
-0.0129757
-0.0124313
-0.0105542
-0.00571645
-0.0109623
-0.0141173
-0.015885
-0.0172207
-0.0185104
-0.0197436
-0.0207082
-0.0209671
-0.0198463
-0.0141745
-0.0182948
-0.0209181
-0.0225906
-0.02411
-0.0258206
-0.0277424
-0.0296788
-0.0311985
-0.0320637
-0.0275956
0.011485
0.0167025
0.0222217
0.0279156
0.0337001
0.039526
0.0453702
0.051227
0.0571043
0.0630217
0.0690108
0.0751162
0.0813955
0.087918
0.0947578
0.101982
0.109628
0.117677
0.126014
0.134405
0.0132606
0.0180586
0.0232137
0.0286186
0.0341913
0.0398743
0.0456319
0.0514459
0.0573124
0.0632405
0.0692509
0.0753751
0.0816544
0.0881368
0.0948708
0.101896
0.109229
0.116836
0.124622
0.132395
0.0139425
0.0185795
0.0235992
0.028899
0.0343955
0.0400274
0.0457534
0.0515493
0.0574053
0.0633236
0.0693172
0.0754087
0.0816286
0.0880134
0.0946017
0.101428
0.10851
0.115837
0.123342
0.130881
0.0137156
0.0183978
0.023468
0.0288156
0.034352
0.0400146
0.0457621
0.0515699
0.0574262
0.0633293
0.069286
0.0753106
0.0814243
0.0876549
0.0940362
0.100607
0.107406
0.11446
0.121765
0.129249
0.01254
0.0175132
0.0228388
0.0283937
0.0340858
0.0398584
0.0456789
0.0515292
0.0574006
0.0632903
0.0691998
0.075135
0.0811064
0.0871314
0.0932385
0.0994734
0.105901
0.112607
0.119683
0.127194
0.0103682
0.0159797
0.021802
0.0277261
0.0336752
0.0396185
0.0455471
0.0514593
0.0573549
0.0632327
0.06909
0.0749233
0.0807299
0.0865129
0.0922893
0.0981052
0.104053
0.110284
0.117022
0.124602
0.00732963
0.0140602
0.0206237
0.027033
0.0332827
0.0394066
0.045441
0.0514102
0.0573261
0.0631906
0.0689961
0.074728
0.0803676
0.0858975
0.0913126
0.0966428
0.101997
0.107583
0.113787
0.121444
0.00383161
0.0122722
0.0197264
0.0266171
0.0331054
0.0393436
0.0454334
0.051427
0.0573466
0.0631938
0.0689542
0.0746003
0.0800942
0.085392
0.0904542
0.0952761
0.0999611
0.104731
0.110098
0.117696
0.00189661
0.0122734
0.0200353
0.0269501
0.0333756
0.0395424
0.0455821
0.0515467
0.0574496
0.0632828
0.0690203
0.0746191
0.0800189
0.0851416
0.0898947
0.0942031
0.0981175
0.101655
0.105165
0.111525
0.00643209
0.0175514
0.0231716
0.0286929
0.0343496
0.0401038
0.0459354
0.0518074
0.0576834
0.0635269
0.0692931
0.07492
0.0803192
0.0853629
0.0898683
0.0935783
0.0961443
0.0972796
0.0961942
0.0979042
0.011459
0.0166843
0.0222097
0.0279081
0.0336954
0.0395231
0.0453682
0.0512253
0.0571025
0.0630195
0.0690079
0.0751123
0.0813907
0.0879122
0.0947516
0.101976
0.109624
0.117678
0.126022
0.134424
0.0132827
0.018077
0.0232283
0.0286297
0.0341996
0.0398806
0.0456369
0.0514501
0.0573165
0.0632448
0.0692557
0.0753804
0.0816599
0.0881417
0.094874
0.101896
0.109223
0.116823
0.1246
0.132365
0.0139453
0.0185842
0.0236044
0.028904
0.0343998
0.0400308
0.045756
0.0515513
0.0574068
0.0633248
0.0693183
0.0754095
0.0816292
0.0880136
0.0946013
0.101426
0.108507
0.115832
0.123336
0.130876
0.0137199
0.0184048
0.023475
0.0288217
0.0343569
0.0400182
0.0457647
0.0515717
0.0574274
0.0633301
0.0692865
0.075311
0.0814246
0.0876551
0.0940361
0.100606
0.107404
0.114457
0.121759
0.129244
0.0125518
0.0175264
0.0228495
0.0284021
0.0340916
0.0398622
0.0456813
0.0515308
0.0574017
0.063291
0.0692004
0.0751356
0.0811071
0.0871323
0.0932392
0.0994733
0.1059
0.112604
0.119673
0.127179
0.0103934
0.0160012
0.0218154
0.027735
0.0336805
0.0396213
0.0455485
0.05146
0.0573552
0.0632328
0.0690902
0.0749235
0.0807304
0.0865138
0.0922904
0.0981058
0.104053
0.110283
0.117005
0.124565
0.00739669
0.0141044
0.020644
0.0270436
0.0332872
0.039408
0.0454412
0.0514099
0.0573259
0.0631904
0.0689961
0.0747284
0.0803684
0.0858988
0.0913143
0.0966437
0.101996
0.107578
0.113745
0.121342
0.00394559
0.0123183
0.0197357
0.0266206
0.033105
0.0393417
0.0454316
0.0514255
0.0573454
0.0631928
0.0689533
0.0745996
0.0800938
0.0853924
0.0904557
0.0952767
0.0999597
0.104736
0.11006
0.117533
0.00203913
0.0122103
0.0199649
0.0269202
0.0333601
0.039533
0.0455763
0.0515422
0.0574454
0.063278
0.0690145
0.0746123
0.0800112
0.0851343
0.0898907
0.0942043
0.0981365
0.101742
0.105283
0.111348
0.00726507
0.0176922
0.0231815
0.0287156
0.0343643
0.0401106
0.0459393
0.0518102
0.0576858
0.0635296
0.0692964
0.0749242
0.0803242
0.0853684
0.0898725
0.0935756
0.0961348
0.0973102
0.0961327
0.0968537
0.011459
0.0166843
0.0222097
0.0279081
0.0336954
0.0395231
0.0453682
0.0512253
0.0571025
0.0630195
0.0690079
0.0751123
0.0813907
0.0879122
0.0947516
0.101976
0.109624
0.117678
0.126022
0.134424
0.0132827
0.018077
0.0232283
0.0286297
0.0341996
0.0398806
0.0456369
0.0514501
0.0573165
0.0632448
0.0692557
0.0753804
0.0816599
0.0881416
0.094874
0.101896
0.109223
0.116823
0.1246
0.132365
0.0139453
0.0185842
0.0236044
0.028904
0.0343998
0.0400308
0.045756
0.0515513
0.0574068
0.0633248
0.0693183
0.0754095
0.0816292
0.0880136
0.0946013
0.101426
0.108507
0.115832
0.123336
0.130876
0.0137199
0.0184048
0.023475
0.0288217
0.0343569
0.0400182
0.0457647
0.0515717
0.0574274
0.0633301
0.0692865
0.075311
0.0814246
0.0876551
0.0940361
0.100606
0.107404
0.114457
0.121759
0.129244
0.0125518
0.0175264
0.0228495
0.0284021
0.0340916
0.0398622
0.0456813
0.0515308
0.0574017
0.063291
0.0692004
0.0751356
0.0811071
0.0871323
0.0932392
0.0994733
0.1059
0.112604
0.119673
0.127179
0.0103934
0.0160011
0.0218154
0.027735
0.0336805
0.0396213
0.0455485
0.05146
0.0573552
0.0632328
0.0690902
0.0749235
0.0807304
0.0865138
0.0922904
0.0981058
0.104053
0.110283
0.117005
0.124565
0.00739669
0.0141044
0.020644
0.0270436
0.0332872
0.039408
0.0454412
0.0514099
0.0573259
0.0631904
0.0689961
0.0747284
0.0803684
0.0858988
0.0913143
0.0966438
0.101996
0.107578
0.113745
0.121342
0.00394559
0.0123183
0.0197357
0.0266206
0.033105
0.0393417
0.0454316
0.0514255
0.0573454
0.0631928
0.0689533
0.0745996
0.0800938
0.0853924
0.0904557
0.0952767
0.0999597
0.104736
0.11006
0.117533
0.00203913
0.0122103
0.0199649
0.0269202
0.0333601
0.039533
0.0455763
0.0515422
0.0574454
0.063278
0.0690145
0.0746123
0.0800112
0.0851343
0.0898907
0.0942043
0.0981365
0.101742
0.105283
0.111348
0.00726507
0.0176922
0.0231815
0.0287156
0.0343643
0.0401106
0.0459393
0.0518102
0.0576858
0.0635296
0.0692964
0.0749242
0.0803242
0.0853684
0.0898725
0.0935756
0.0961348
0.0973102
0.0961327
0.0968538
0.011485
0.0167025
0.0222217
0.0279156
0.0337001
0.039526
0.0453702
0.051227
0.0571043
0.0630217
0.0690109
0.0751162
0.0813955
0.087918
0.0947578
0.101982
0.109628
0.117677
0.126014
0.134405
0.0132606
0.0180586
0.0232137
0.0286186
0.0341912
0.0398743
0.0456319
0.0514459
0.0573124
0.0632405
0.0692509
0.0753751
0.0816544
0.0881368
0.0948708
0.101896
0.109229
0.116836
0.124622
0.132395
0.0139425
0.0185795
0.0235992
0.028899
0.0343955
0.0400274
0.0457534
0.0515493
0.0574053
0.0633236
0.0693172
0.0754087
0.0816286
0.0880134
0.0946017
0.101428
0.10851
0.115837
0.123342
0.130881
0.0137156
0.0183978
0.023468
0.0288156
0.034352
0.0400146
0.0457621
0.0515699
0.0574262
0.0633293
0.069286
0.0753106
0.0814243
0.0876549
0.0940362
0.100607
0.107406
0.11446
0.121765
0.129249
0.01254
0.0175132
0.0228388
0.0283937
0.0340858
0.0398584
0.0456789
0.0515292
0.0574006
0.0632903
0.0691998
0.075135
0.0811064
0.0871314
0.0932385
0.0994734
0.105901
0.112607
0.119683
0.127194
0.0103682
0.0159797
0.021802
0.0277261
0.0336752
0.0396185
0.0455471
0.0514593
0.0573549
0.0632327
0.06909
0.0749233
0.0807299
0.0865129
0.0922893
0.0981052
0.104053
0.110284
0.117022
0.124602
0.00732961
0.0140602
0.0206237
0.027033
0.0332827
0.0394066
0.045441
0.0514102
0.0573261
0.0631906
0.0689961
0.074728
0.0803676
0.0858975
0.0913126
0.0966428
0.101997
0.107583
0.113787
0.121444
0.00383159
0.0122722
0.0197264
0.0266171
0.0331054
0.0393436
0.0454333
0.051427
0.0573466
0.0631938
0.0689542
0.0746003
0.0800942
0.085392
0.0904542
0.0952761
0.0999611
0.104731
0.110098
0.117696
0.0018966
0.0122734
0.0200353
0.0269501
0.0333756
0.0395424
0.0455821
0.0515467
0.0574496
0.0632828
0.0690203
0.0746191
0.0800189
0.0851416
0.0898948
0.0942031
0.0981175
0.101655
0.105165
0.111525
0.00643208
0.0175514
0.0231716
0.0286929
0.0343496
0.0401038
0.0459354
0.0518074
0.0576834
0.0635269
0.0692931
0.07492
0.0803192
0.0853629
0.0898683
0.0935783
0.0961443
0.0972797
0.0961943
0.0979042
0.142486
0.14982
0.155994
0.1607
0.163772
0.165211
0.165189
0.164062
0.162375
0.160793
0.139865
0.146667
0.152463
0.156998
0.160135
0.161876
0.162362
0.16188
0.160759
0.159208
0.138193
0.144899
0.150662
0.155227
0.158458
0.160346
0.161014
0.160703
0.159589
0.157557
0.136673
0.143563
0.149529
0.15429
0.157692
0.159718
0.160473
0.160177
0.158909
0.156349
0.134962
0.142272
0.148646
0.153758
0.157434
0.159652
0.160513
0.160232
0.15884
0.155903
0.133039
0.141037
0.148017
0.153622
0.157667
0.160138
0.161152
0.160928
0.159492
0.156371
0.131102
0.14007
0.147804
0.153985
0.158444
0.161203
0.162407
0.162297
0.160911
0.157798
0.12958
0.139807
0.148344
0.155085
0.159912
0.162929
0.164325
0.164364
0.163115
0.160181
0.128713
0.140922
0.150214
0.157323
0.162319
0.16545
0.166968
0.16715
0.166093
0.163476
0.133176
0.146581
0.15504
0.161493
0.16603
0.168925
0.170391
0.17065
0.169797
0.167587
0.142519
0.149865
0.156048
0.160758
0.16383
0.165264
0.165232
0.164092
0.162392
0.160792
0.139828
0.146625
0.152417
0.156949
0.160088
0.161833
0.162326
0.161854
0.160754
0.159186
0.138193
0.144903
0.150668
0.155234
0.158464
0.160351
0.161014
0.160702
0.159606
0.157526
0.13668
0.143575
0.149543
0.154305
0.157706
0.159728
0.160476
0.160178
0.158936
0.156308
0.134969
0.142283
0.148657
0.153769
0.157443
0.159658
0.160512
0.160231
0.158872
0.155858
0.13305
0.141049
0.148029
0.153634
0.157676
0.160144
0.16115
0.160927
0.159527
0.156324
0.131125
0.140086
0.147817
0.153998
0.158453
0.161208
0.162405
0.162295
0.160947
0.157751
0.12972
0.139863
0.148367
0.1551
0.159919
0.162932
0.164322
0.164362
0.163148
0.160135
0.129039
0.140938
0.150191
0.157316
0.162313
0.165446
0.166962
0.167147
0.166122
0.163434
0.133066
0.146211
0.154875
0.161446
0.166011
0.168918
0.170386
0.170649
0.169822
0.167552
0.142519
0.149865
0.156048
0.160758
0.16383
0.165264
0.165232
0.164092
0.162392
0.160792
0.139828
0.146625
0.152417
0.156949
0.160088
0.161833
0.162326
0.161854
0.160754
0.159186
0.138193
0.144903
0.150668
0.155234
0.158464
0.160351
0.161014
0.160702
0.159606
0.157526
0.13668
0.143575
0.149543
0.154305
0.157706
0.159728
0.160476
0.160178
0.158936
0.156308
0.134969
0.142283
0.148657
0.153769
0.157443
0.159658
0.160512
0.160231
0.158872
0.155858
0.13305
0.141049
0.148029
0.153634
0.157676
0.160144
0.16115
0.160927
0.159527
0.156324
0.131125
0.140086
0.147817
0.153998
0.158453
0.161208
0.162405
0.162295
0.160947
0.157751
0.12972
0.139863
0.148367
0.1551
0.159919
0.162932
0.164322
0.164362
0.163148
0.160135
0.129039
0.140938
0.150191
0.157316
0.162313
0.165446
0.166962
0.167147
0.166122
0.163434
0.133066
0.146211
0.154875
0.161446
0.166011
0.168918
0.170386
0.170649
0.169822
0.167552
0.142486
0.14982
0.155994
0.1607
0.163772
0.165211
0.165189
0.164062
0.162375
0.160793
0.139865
0.146667
0.152463
0.156998
0.160135
0.161876
0.162362
0.16188
0.160759
0.159208
0.138193
0.144899
0.150662
0.155227
0.158458
0.160346
0.161014
0.160703
0.159589
0.157557
0.136673
0.143563
0.149529
0.15429
0.157692
0.159718
0.160473
0.160177
0.158909
0.156349
0.134962
0.142272
0.148646
0.153758
0.157434
0.159652
0.160513
0.160232
0.15884
0.155903
0.133039
0.141037
0.148017
0.153622
0.157666
0.160138
0.161152
0.160928
0.159492
0.156371
0.131102
0.14007
0.147804
0.153985
0.158444
0.161203
0.162407
0.162297
0.160911
0.157798
0.12958
0.139807
0.148344
0.155085
0.159912
0.162929
0.164325
0.164364
0.163115
0.160181
0.128713
0.140922
0.150214
0.157323
0.162319
0.16545
0.166968
0.16715
0.166093
0.163476
0.133176
0.146581
0.15504
0.161493
0.16603
0.168925
0.170391
0.17065
0.169797
0.167587
0.167158
0.162622
0.164567
0.168086
0.171151
0.17335
0.174552
0.1748
0.174133
0.172365
0.178218
0.172959
0.172981
0.174801
0.176758
0.178329
0.179249
0.17946
0.178962
0.177625
0.183776
0.180677
0.180406
0.181347
0.182575
0.183661
0.184335
0.184505
0.184154
0.183198
0.189227
0.187548
0.187268
0.18774
0.188494
0.189221
0.189698
0.18983
0.189599
0.188957
0.19481
0.193936
0.193736
0.19398
0.19444
0.194917
0.195244
0.195346
0.195207
0.194813
0.200496
0.200082
0.199973
0.200107
0.200385
0.200688
0.200904
0.20098
0.200909
0.200704
0.206288
0.206138
0.206097
0.206169
0.206324
0.206499
0.206626
0.206674
0.206651
0.206589
0.212169
0.212195
0.212187
0.212206
0.212261
0.212325
0.212368
0.212378
0.21238
0.212432
0.21817
0.218302
0.2183
0.218255
0.218204
0.218149
0.218095
0.21805
0.218054
0.218187
0.224327
0.22452
0.224488
0.224347
0.224159
0.223958
0.223776
0.223646
0.223622
0.223805
0.230704
0.230908
0.230797
0.23051
0.230135
0.229737
0.229381
0.229122
0.229032
0.229223
0.237396
0.237535
0.237276
0.236772
0.236139
0.235475
0.234881
0.234438
0.234227
0.234365
0.24452
0.24447
0.243964
0.243153
0.242171
0.241157
0.24025
0.239554
0.239153
0.239144
0.252221
0.251772
0.250886
0.249656
0.248226
0.246774
0.245474
0.244449
0.24377
0.243476
0.260681
0.259453
0.258017
0.25625
0.254278
0.252315
0.250554
0.249128
0.248067
0.24729
0.270012
0.267488
0.265243
0.262828
0.260259
0.257762
0.255518
0.253639
0.252074
0.250569
0.280282
0.275543
0.272223
0.269124
0.26601
0.26307
0.260417
0.258093
0.255913
0.253357
0.291162
0.282856
0.278252
0.274618
0.271214
0.26813
0.265317
0.262676
0.259809
0.255824
0.30261
0.28844
0.28216
0.278367
0.275262
0.272677
0.27026
0.267651
0.264136
0.258315
0.313752
0.288775
0.28076
0.278202
0.276895
0.276143
0.275199
0.273361
0.269461
0.261429
0.16799
0.162764
0.164681
0.168153
0.171176
0.173362
0.174556
0.174803
0.174155
0.172339
0.178359
0.172896
0.173027
0.174845
0.176779
0.178342
0.179255
0.179464
0.17898
0.177607
0.183786
0.180607
0.180415
0.181367
0.182588
0.183671
0.184342
0.18451
0.184168
0.183186
0.18925
0.187519
0.187272
0.187751
0.188503
0.189229
0.189704
0.189835
0.189609
0.18895
0.194824
0.193922
0.193736
0.193984
0.194446
0.194922
0.195249
0.19535
0.195214
0.194809
0.200502
0.200075
0.199972
0.200108
0.200388
0.200692
0.200908
0.200982
0.200913
0.200703
0.206289
0.206136
0.206096
0.206169
0.206326
0.206501
0.206628
0.206675
0.206652
0.206589
0.212169
0.212196
0.212186
0.212206
0.212262
0.212326
0.212369
0.212379
0.212379
0.212433
0.218168
0.218305
0.2183
0.218255
0.218204
0.21815
0.218096
0.218051
0.218051
0.218189
0.224323
0.224524
0.224487
0.224346
0.224159
0.223958
0.223777
0.223646
0.223618
0.223809
0.2307
0.230914
0.230797
0.230509
0.230135
0.229737
0.229382
0.229123
0.229027
0.229228
0.23739
0.23754
0.237275
0.236771
0.236138
0.235474
0.234881
0.234438
0.234223
0.23437
0.244514
0.244471
0.243962
0.243151
0.24217
0.241156
0.24025
0.239555
0.239151
0.239149
0.252216
0.251767
0.250882
0.249653
0.248224
0.246773
0.245473
0.244451
0.243772
0.24348
0.26068
0.259435
0.25801
0.256246
0.254275
0.252313
0.250554
0.249131
0.248076
0.247291
0.270025
0.26745
0.265236
0.262825
0.260255
0.25776
0.255518
0.253644
0.252095
0.250564
0.280334
0.275474
0.272217
0.269123
0.266004
0.263069
0.260417
0.258101
0.255952
0.253342
0.29123
0.282683
0.278228
0.274616
0.271206
0.268129
0.265319
0.262689
0.259873
0.255795
0.302728
0.288114
0.282164
0.278409
0.275276
0.272689
0.270268
0.267673
0.264234
0.258266
0.315086
0.288879
0.281054
0.278387
0.276963
0.276176
0.275215
0.273391
0.269603
0.261353
0.16799
0.162764
0.164681
0.168153
0.171176
0.173362
0.174556
0.174803
0.174155
0.172339
0.178359
0.172896
0.173027
0.174845
0.176779
0.178342
0.179255
0.179464
0.17898
0.177607
0.183786
0.180607
0.180415
0.181367
0.182588
0.183671
0.184342
0.18451
0.184168
0.183186
0.18925
0.187519
0.187272
0.187751
0.188503
0.189229
0.189704
0.189835
0.189609
0.18895
0.194824
0.193922
0.193736
0.193984
0.194446
0.194922
0.195249
0.19535
0.195214
0.194809
0.200502
0.200075
0.199972
0.200108
0.200388
0.200692
0.200908
0.200982
0.200913
0.200703
0.206289
0.206136
0.206096
0.206169
0.206326
0.206501
0.206628
0.206675
0.206652
0.206589
0.212169
0.212196
0.212186
0.212206
0.212262
0.212326
0.212369
0.212379
0.212379
0.212433
0.218168
0.218305
0.2183
0.218255
0.218204
0.21815
0.218096
0.218051
0.218051
0.218189
0.224323
0.224524
0.224487
0.224346
0.224159
0.223958
0.223777
0.223646
0.223618
0.223809
0.2307
0.230914
0.230797
0.230509
0.230135
0.229737
0.229382
0.229123
0.229027
0.229228
0.23739
0.23754
0.237275
0.236771
0.236138
0.235474
0.234881
0.234438
0.234223
0.23437
0.244514
0.244471
0.243962
0.243151
0.24217
0.241156
0.24025
0.239555
0.239151
0.239149
0.252216
0.251767
0.250882
0.249653
0.248224
0.246773
0.245473
0.244451
0.243772
0.24348
0.26068
0.259435
0.25801
0.256246
0.254275
0.252313
0.250554
0.249131
0.248076
0.247291
0.270025
0.26745
0.265236
0.262825
0.260255
0.25776
0.255518
0.253644
0.252095
0.250564
0.280334
0.275474
0.272217
0.269123
0.266004
0.263069
0.260417
0.258101
0.255952
0.253342
0.29123
0.282683
0.278228
0.274616
0.271206
0.268129
0.265319
0.262689
0.259873
0.255795
0.302728
0.288114
0.282164
0.278409
0.275276
0.272689
0.270268
0.267673
0.264234
0.258266
0.315086
0.288879
0.281054
0.278387
0.276963
0.276176
0.275215
0.273391
0.269603
0.261353
0.167158
0.162622
0.164567
0.168086
0.171151
0.17335
0.174552
0.1748
0.174133
0.172365
0.178218
0.172959
0.172981
0.174801
0.176758
0.178329
0.179249
0.17946
0.178962
0.177625
0.183776
0.180677
0.180406
0.181347
0.182575
0.183661
0.184335
0.184505
0.184154
0.183198
0.189227
0.187548
0.187268
0.18774
0.188494
0.189221
0.189698
0.18983
0.189599
0.188957
0.19481
0.193936
0.193736
0.19398
0.19444
0.194917
0.195244
0.195346
0.195207
0.194813
0.200496
0.200082
0.199973
0.200107
0.200385
0.200688
0.200904
0.20098
0.200909
0.200704
0.206288
0.206138
0.206097
0.206169
0.206324
0.206499
0.206626
0.206674
0.206651
0.206589
0.212169
0.212195
0.212187
0.212206
0.212261
0.212325
0.212368
0.212378
0.21238
0.212432
0.21817
0.218302
0.2183
0.218255
0.218204
0.218149
0.218095
0.21805
0.218054
0.218187
0.224327
0.22452
0.224488
0.224347
0.224159
0.223958
0.223776
0.223646
0.223622
0.223805
0.230704
0.230908
0.230797
0.23051
0.230135
0.229737
0.229381
0.229122
0.229032
0.229223
0.237396
0.237535
0.237276
0.236772
0.236139
0.235475
0.234881
0.234438
0.234227
0.234365
0.24452
0.24447
0.243964
0.243153
0.242171
0.241157
0.24025
0.239554
0.239153
0.239144
0.252221
0.251772
0.250886
0.249656
0.248226
0.246774
0.245474
0.244449
0.24377
0.243476
0.260681
0.259453
0.258017
0.25625
0.254278
0.252315
0.250554
0.249128
0.248067
0.24729
0.270012
0.267488
0.265243
0.262828
0.260259
0.257762
0.255518
0.253639
0.252074
0.250569
0.280282
0.275543
0.272223
0.269124
0.26601
0.26307
0.260417
0.258093
0.255913
0.253357
0.291162
0.282856
0.278252
0.274618
0.271214
0.26813
0.265317
0.262676
0.259809
0.255824
0.30261
0.28844
0.28216
0.278367
0.275262
0.272677
0.27026
0.267652
0.264136
0.258315
0.313752
0.288775
0.28076
0.278202
0.276895
0.276143
0.275199
0.273361
0.269461
0.261429
0.253034
0.261672
0.266984
0.271108
0.274674
0.277919
0.280124
0.280289
0.276632
0.266153
0.223915
0.239796
0.251059
0.260622
0.269704
0.278347
0.285409
0.289222
0.286915
0.274053
0.206468
0.221834
0.235213
0.248714
0.263167
0.278123
0.291752
0.301305
0.302138
0.287583
0.192962
0.206808
0.220998
0.237407
0.256822
0.278625
0.300454
0.318297
0.324994
0.310687
0.183115
0.195748
0.210388
0.229108
0.253068
0.281994
0.313564
0.342769
0.35946
0.34983
0.177188
0.189481
0.204926
0.225943
0.254329
0.290671
0.333579
0.378023
0.411126
0.415132
0.175007
0.188024
0.20504
0.228848
0.262005
0.306393
0.362592
0.427288
0.486517
0.520931
0.175698
0.190184
0.209348
0.236377
0.274737
0.328079
0.400078
0.490815
0.590621
0.694418
0.177618
0.193238
0.213843
0.242918
0.284894
0.345676
0.433583
0.556853
0.725667
1.0055
0.179009
0.194128
0.213548
0.240647
0.280124
0.339341
0.432301
0.586533
0.872862
1.48996
0.253371
0.2612
0.266855
0.271097
0.274672
0.277927
0.280128
0.280323
0.276828
0.266041
0.224339
0.239731
0.250996
0.260589
0.269682
0.278342
0.285401
0.289258
0.287177
0.2739
0.206724
0.221853
0.235182
0.248674
0.263127
0.278096
0.291721
0.301339
0.302479
0.287388
0.193053
0.206793
0.220946
0.237339
0.256749
0.278558
0.30038
0.318313
0.325405
0.310448
0.183142
0.195715
0.210318
0.229011
0.252953
0.281872
0.313426
0.342746
0.359894
0.349575
0.177196
0.189444
0.204846
0.225823
0.25417
0.290472
0.333336
0.377905
0.411483
0.415084
0.175022
0.188002
0.204972
0.228725
0.261808
0.30608
0.36216
0.426955
0.486493
0.521419
0.175742
0.190218
0.20937
0.236378
0.274684
0.327878
0.399702
0.490477
0.589311
0.694097
0.177687
0.193351
0.214027
0.243208
0.285324
0.346236
0.434326
0.557456
0.722432
1.00321
0.179059
0.194167
0.213567
0.240651
0.280138
0.339417
0.432659
0.586968
0.869173
1.49921
0.253371
0.2612
0.266855
0.271097
0.274672
0.277927
0.280128
0.280323
0.276828
0.266041
0.224339
0.239731
0.250996
0.260589
0.269682
0.278342
0.285401
0.289258
0.287178
0.2739
0.206724
0.221853
0.235182
0.248674
0.263127
0.278096
0.291721
0.301339
0.302479
0.287388
0.193053
0.206793
0.220946
0.237339
0.256749
0.278558
0.30038
0.318313
0.325405
0.310448
0.183142
0.195715
0.210318
0.229011
0.252954
0.281872
0.313426
0.342746
0.359894
0.349575
0.177196
0.189444
0.204846
0.225823
0.25417
0.290472
0.333336
0.377905
0.411483
0.415084
0.175022
0.188002
0.204972
0.228725
0.261808
0.30608
0.36216
0.426955
0.486493
0.521419
0.175742
0.190218
0.20937
0.236378
0.274684
0.327878
0.399702
0.490477
0.589311
0.694097
0.177687
0.193351
0.214027
0.243208
0.285324
0.346236
0.434326
0.557456
0.722432
1.00321
0.179059
0.194167
0.213567
0.240651
0.280138
0.339417
0.432659
0.586968
0.869173
1.49921
0.253034
0.261672
0.266984
0.271108
0.274674
0.277919
0.280124
0.280289
0.276632
0.266153
0.223915
0.239796
0.251059
0.260622
0.269704
0.278347
0.285409
0.289222
0.286915
0.274053
0.206468
0.221834
0.235213
0.248714
0.263167
0.278123
0.291752
0.301305
0.302138
0.287583
0.192962
0.206808
0.220998
0.237407
0.256822
0.278625
0.300454
0.318297
0.324994
0.310687
0.183115
0.195748
0.210388
0.229108
0.253068
0.281994
0.313564
0.342769
0.35946
0.34983
0.177188
0.189481
0.204926
0.225943
0.254329
0.290671
0.333579
0.378023
0.411126
0.415132
0.175007
0.188024
0.20504
0.228848
0.262005
0.306393
0.362592
0.427288
0.486517
0.520931
0.175698
0.190184
0.209348
0.236377
0.274737
0.328079
0.400078
0.490815
0.590621
0.694418
0.177618
0.193238
0.213843
0.242918
0.284894
0.345676
0.433583
0.556853
0.725667
1.0055
0.179009
0.194128
0.213548
0.240647
0.280124
0.339342
0.432301
0.586533
0.872862
1.48996
-0.153224
-0.132595
-0.114605
-0.0979997
-0.0814066
-0.064623
-0.0476435
-0.0305047
-0.0132684
0.00399319
0.0212026
0.0382882
0.0551795
0.0718284
0.0882591
0.104657
0.121504
0.139835
0.162948
0.200674
-0.139375
-0.125898
-0.111393
-0.0961552
-0.0802368
-0.0638474
-0.0471221
-0.0301582
-0.0130403
0.00415641
0.0213661
0.0385284
0.0556048
0.0725962
0.0895738
0.106744
0.124504
0.143478
0.16518
0.193095
-0.136219
-0.124217
-0.110518
-0.0956647
-0.0799759
-0.0637146
-0.0470531
-0.0301133
-0.0129888
0.00424516
0.0215276
0.0388088
0.0560551
0.0732591
0.0904593
0.107773
0.125413
0.143678
0.163129
0.184685
-0.137444
-0.125126
-0.111242
-0.0962499
-0.080454
-0.0640933
-0.0473361
-0.030302
-0.0130785
0.00426772
0.0216836
0.0391238
0.0565474
0.0739188
0.0912107
0.108411
0.125523
0.142547
0.159546
0.176627
-0.140185
-0.127179
-0.112796
-0.0974174
-0.0813244
-0.0647309
-0.0477871
-0.0305966
-0.0132317
0.00425449
0.0218184
0.0394165
0.0569961
0.0744862
0.0917889
0.108772
0.125265
0.141061
0.155988
0.170009
-0.142671
-0.129034
-0.114172
-0.0984222
-0.0820475
-0.0652399
-0.0481308
-0.0308074
-0.0133276
0.00426642
0.0219373
0.0396394
0.0573061
0.0748338
0.0920681
0.108793
0.124743
0.13961
0.153191
0.165542
-0.143234
-0.129344
-0.114335
-0.0984979
-0.08207
-0.0652288
-0.0480959
-0.0307519
-0.0132508
0.00436713
0.0220624
0.0397826
0.0574467
0.0749289
0.0920436
0.10854
0.124122
0.138498
0.151526
0.163421
-0.140989
-0.127446
-0.112811
-0.0973142
-0.0811723
-0.0645578
-0.0475978
-0.0303824
-0.012976
0.00457016
0.0222055
0.0398654
0.0574566
0.0748421
0.0918291
0.108171
0.123597
0.13788
0.150984
0.163262
-0.135946
-0.123528
-0.10986
-0.0951454
-0.0796087
-0.063447
-0.0468178
-0.0298412
-0.0126077
0.00481027
0.0223473
0.0399231
0.0574358
0.0747468
0.0916704
0.10798
0.123442
0.137886
0.151344
0.164241
-0.127743
-0.117611
-0.105689
-0.0922667
-0.0776573
-0.0621452
-0.0459628
-0.0292896
-0.0122603
0.00502111
0.0224659
0.0399929
0.0574996
0.0748502
0.0918695
0.108343
0.124041
0.138784
0.152556
0.165677
-0.153598
-0.132476
-0.11459
-0.0980218
-0.0814192
-0.0646306
-0.0476487
-0.030508
-0.0132701
0.00399285
0.0212032
0.0382891
0.0551795
0.0718255
0.0882494
0.104637
0.121481
0.139787
0.162617
0.200063
-0.139318
-0.125729
-0.111316
-0.0961185
-0.0802104
-0.063829
-0.0471096
-0.0301496
-0.0130348
0.00415978
0.0213685
0.0385311
0.05561
0.0726069
0.089593
0.106776
0.124564
0.14355
0.165081
0.192836
-0.136279
-0.124192
-0.110494
-0.0956464
-0.0799611
-0.063704
-0.0470458
-0.0301081
-0.0129853
0.00424754
0.0215291
0.0388097
0.0560558
0.0732594