/*--------------------------------*- C++ -*----------------------------------*\
| =========                 |                                                 |
| \\      /  F ield         | OpenFOAM: The Open Source CFD Toolbox           |
|  \\    /   O peration     | Version:  2.4.0                                 |
|   \\  /    A nd           | Web:      www.OpenFOAM.org                      |
|    \\/     M anipulation  |                                                 |
\*---------------------------------------------------------------------------*/
FoamFile
{
    version     2.0;
    format      ascii;
    class       surfaceScalarField;
    location    "2.5";
    object      phi;
}
// * * * * * * * * * * * * * * * * * * * * * * * * * * * * * * * * * * * * * //

dimensions      [0 3 -1 0 0 0 0];

internalField   nonuniform List<scalar> 
12720
(
1.47747e-07
-1.47623e-07
2.1697e-10
-5.48168e-07
6.94136e-07
1.77841e-09
-2.06668e-06
1.51592e-06
2.59171e-09
-4.162e-06
2.09202e-06
3.30624e-09
-6.60019e-06
2.43445e-06
3.73291e-09
-9.18878e-06
2.58468e-06
3.90754e-09
-1.17693e-05
2.57665e-06
3.91508e-09
-1.42046e-05
2.43149e-06
3.75808e-09
-1.63746e-05
2.16663e-06
3.41028e-09
1.81062e-06
2.84834e-09
-1.81881e-05
-7.25035e-07
5.78791e-07
-1.37965e-09
-3.2781e-06
3.24677e-06
4.279e-10
-7.4441e-06
5.6834e-06
-1.4841e-09
-1.2802e-05
7.4523e-06
-2.36287e-09
-1.89082e-05
8.54345e-06
-2.80213e-09
-2.53487e-05
9.02824e-06
-3.07735e-09
-3.17484e-05
8.97941e-06
-3.08679e-09
-3.77689e-05
8.45493e-06
-2.86984e-09
-4.31188e-05
7.51897e-06
-2.51701e-09
6.27866e-06
-2.17131e-09
-4.75846e-05
-1.6798e-06
2.26105e-06
-2.46262e-09
-6.07448e-06
7.6392e-06
2.26148e-09
-1.2591e-05
1.21998e-05
1.16269e-10
-2.06395e-05
1.55009e-05
-8.45702e-11
-2.96408e-05
1.75445e-05
1.23568e-10
-3.90437e-05
1.84311e-05
1.1505e-10
-4.83277e-05
1.82633e-05
1.25439e-10
-5.70056e-05
1.71326e-05
1.82487e-10
-6.46479e-05
1.5161e-05
2.48768e-10
1.2569e-05
1.52118e-10
-7.09383e-05
-2.46042e-06
4.72507e-06
-3.59281e-09
-8.40877e-06
1.35844e-05
3.1633e-09
-1.68696e-05
2.06606e-05
-5.00275e-12
-2.70684e-05
2.57e-05
-2.71268e-10
-3.83143e-05
2.87904e-05
9.33426e-11
-4.99616e-05
3.00782e-05
1.35766e-10
-6.13856e-05
2.96871e-05
1.75657e-10
-7.19787e-05
2.77255e-05
2.79714e-10
-8.11804e-05
2.43623e-05
4.76063e-10
1.99464e-05
4.18143e-10
-8.85583e-05
-3.00999e-06
7.73945e-06
-4.39203e-09
-1.00898e-05
2.06605e-05
3.70649e-09
-1.99677e-05
3.05389e-05
-4.1768e-10
-3.17151e-05
3.74483e-05
-9.07187e-10
-4.45546e-05
4.16304e-05
-5.44153e-10
-5.77747e-05
4.32989e-05
-5.17744e-10
-7.06749e-05
4.25877e-05
-4.60844e-10
-8.25415e-05
3.95924e-05
-2.669e-10
-9.26688e-05
3.44892e-05
3.05246e-10
2.77311e-05
5.87533e-10
-0.000100454
-3.30638e-06
1.10506e-05
-4.78338e-09
-1.10179e-05
2.83679e-05
4.09488e-09
-2.16947e-05
4.12163e-05
-5.48473e-10
-3.43134e-05
5.00682e-05
-1.15443e-09
-4.80457e-05
5.53635e-05
-7.96633e-10
-6.21455e-05
5.73995e-05
-7.90015e-10
-7.58655e-05
5.63085e-05
-7.71412e-10
-8.84031e-05
5.21306e-05
-6.18264e-10
-9.88844e-05
4.49699e-05
5.2181e-10
3.52746e-05
1.62432e-09
-0.000106429
-3.34179e-06
1.43972e-05
-4.79163e-09
-1.11468e-05
3.61688e-05
4.19602e-09
-2.19441e-05
5.20141e-05
-5.86944e-10
-3.46849e-05
6.28102e-05
-1.26283e-09
-4.85295e-05
6.92091e-05
-9.59605e-10
-6.27314e-05
7.16023e-05
-9.95154e-10
-7.65365e-05
7.01148e-05
-1.10266e-09
-8.90925e-05
6.46879e-05
-1.32332e-09
-9.93599e-05
5.52366e-05
6.84118e-10
4.19316e-05
4.11582e-09
-0.000106021
-3.12338e-06
1.7525e-05
-4.41475e-09
-1.04847e-05
4.35261e-05
4.02476e-09
-2.07047e-05
6.22346e-05
-5.3594e-10
-3.27683e-05
7.48751e-05
-1.22847e-09
-4.58531e-05
8.22949e-05
-1.00323e-09
-5.92365e-05
8.49867e-05
-1.0208e-09
-7.22002e-05
8.30796e-05
-1.15596e-09
-8.39138e-05
7.64036e-05
-2.05244e-09
-9.32579e-05
6.45788e-05
2.00777e-09
4.69594e-05
1.43404e-08
-9.83e-05
-2.68174e-06
2.02104e-05
-3.68092e-09
-9.11554e-06
4.99562e-05
3.64555e-09
-1.81048e-05
7.12242e-05
-3.71665e-10
-2.87014e-05
8.54727e-05
-1.03098e-09
-4.00979e-05
9.36923e-05
-9.4798e-10
-5.15784e-05
9.64683e-05
-1.03238e-09
-6.24601e-05
9.39626e-05
-1.39282e-09
-7.19873e-05
8.59357e-05
-4.85345e-09
-7.91784e-05
7.17713e-05
-1.4253e-09
4.92729e-05
3.21913e-08
-8.15241e-05
-2.07986e-06
-2.6733e-09
2.2293e-05
-7.22496e-06
3.1481e-09
5.50982e-05
-1.44712e-05
-6.48696e-11
7.84705e-05
-2.29401e-05
-5.88775e-10
9.39423e-05
-3.17942e-05
-6.30118e-10
0.000102547
-4.02224e-05
-9.35075e-10
0.000104897
-4.74188e-05
-1.99548e-09
0.000101161
-5.24763e-05
-1.21433e-08
9.10054e-05
-5.4291e-05
-2.83321e-08
7.36143e-05
9.56882e-09
-5.16792e-05
4.66515e-05
1.49059e-07
-1.48889e-07
4.68739e-11
-5.48816e-07
6.99628e-07
2.50868e-11
-2.06743e-06
1.5212e-06
1.17534e-11
-4.16214e-06
2.098e-06
5.61842e-12
-6.60005e-06
2.44165e-06
2.71578e-12
-9.18864e-06
2.59249e-06
1.27484e-12
-1.17693e-05
2.58458e-06
7.47619e-13
-1.42047e-05
2.43917e-06
6.41799e-13
-1.6375e-05
2.1737e-06
5.80296e-13
1.81653e-06
4.63509e-13
-1.81887e-05
-7.29806e-07
5.79512e-07
2.39918e-11
-3.28369e-06
3.25393e-06
1.65764e-11
-7.44904e-06
5.68505e-06
8.89426e-12
-1.28054e-05
7.45202e-06
4.45366e-12
-1.89098e-05
8.54326e-06
2.37295e-12
-2.53488e-05
9.02835e-06
1.26931e-12
-3.17472e-05
8.97994e-06
7.63826e-13
-3.7767e-05
8.45604e-06
6.69682e-13
-4.31165e-05
7.52067e-06
5.57905e-13
6.28022e-06
4.1862e-13
-4.75823e-05
-1.68519e-06
2.26222e-06
1.22658e-11
-6.07525e-06
7.64624e-06
1.00412e-11
-1.25918e-05
1.22017e-05
5.69151e-12
-2.06405e-05
1.55007e-05
3.20711e-12
-2.96413e-05
1.75441e-05
2.04307e-12
-3.90438e-05
1.84309e-05
1.29918e-12
-4.83273e-05
1.82636e-05
8.24254e-13
-5.7005e-05
1.71339e-05
6.66169e-13
-6.46475e-05
1.51634e-05
5.939e-13
1.25712e-05
4.96925e-13
-7.09383e-05
-2.46719e-06
4.72581e-06
6.56769e-12
-8.40766e-06
1.35899e-05
5.55426e-12
-1.68684e-05
2.06624e-05
3.33953e-12
-2.70682e-05
2.57002e-05
2.21343e-12
-3.83143e-05
2.87904e-05
1.76395e-12
-4.99616e-05
3.00784e-05
1.18239e-12
-6.13854e-05
2.96877e-05
7.75266e-13
-7.19785e-05
2.77272e-05
6.75193e-13
-8.11809e-05
2.43663e-05
6.33945e-13
1.99504e-05
5.51263e-13
-8.85597e-05
-3.01842e-06
7.73983e-06
3.33287e-12
-1.00884e-05
2.06636e-05
3.12384e-12
-1.99661e-05
3.05397e-05
2.04037e-12
-3.17147e-05
3.74478e-05
1.61575e-12
-4.45545e-05
4.16296e-05
1.50968e-12
-5.77748e-05
4.32981e-05
1.09152e-12
-7.06748e-05
4.25872e-05
7.75533e-13
-8.25411e-05
3.95932e-05
7.30972e-13
-9.26691e-05
3.44946e-05
7.28966e-13
2.77383e-05
6.51311e-13
-0.000100456
-3.31569e-06
1.10507e-05
2.17079e-12
-1.10164e-05
2.83684e-05
2.27523e-12
-2.1693e-05
4.12158e-05
1.69739e-12
-3.43133e-05
5.00669e-05
1.59874e-12
-4.80462e-05
5.53618e-05
1.57389e-12
-6.21464e-05
5.73974e-05
1.27981e-12
-7.58662e-05
5.63062e-05
1.03879e-12
-8.84027e-05
5.21291e-05
9.9524e-13
-9.88846e-05
4.4977e-05
9.40724e-13
3.52891e-05
7.77465e-13
-0.000106434
-3.35118e-06
1.43971e-05
1.89069e-12
-1.11454e-05
3.61668e-05
1.99289e-12
-2.19427e-05
5.20126e-05
1.66732e-12
-3.46854e-05
6.28083e-05
1.64676e-12
-4.85311e-05
6.92065e-05
1.64576e-12
-6.27336e-05
7.1599e-05
1.45923e-12
-7.65388e-05
7.01102e-05
1.29615e-12
-8.90926e-05
6.46816e-05
1.23193e-12
-9.93589e-05
5.5244e-05
1.07673e-12
4.19638e-05
7.36429e-13
-0.000106029
-3.13209e-06
1.75248e-05
1.63218e-12
-1.04834e-05
4.35221e-05
1.66844e-12
-2.07036e-05
6.22323e-05
1.50017e-12
-3.27695e-05
7.48729e-05
1.52136e-12
-4.58559e-05
8.22919e-05
1.56613e-12
-5.92405e-05
8.49826e-05
1.49471e-12
-7.22046e-05
8.30732e-05
1.40234e-12
-8.39139e-05
7.63889e-05
1.31335e-12
-9.32455e-05
6.45775e-05
1.06097e-12
4.70415e-05
5.50931e-13
-9.83088e-05
-2.68906e-06
2.02102e-05
1.38404e-12
-9.11428e-06
4.9951e-05
1.36456e-12
-1.81041e-05
7.12217e-05
1.31645e-12
-2.87033e-05
8.54711e-05
1.40222e-12
-4.01026e-05
9.36902e-05
1.47228e-12
-5.15869e-05
9.64659e-05
1.46324e-12
-6.24744e-05
9.39593e-05
1.39257e-12
-7.20068e-05
8.59165e-05
1.24498e-12
-7.91547e-05
7.1724e-05
9.02487e-13
4.93897e-05
4.98117e-13
-8.14707e-05
-2.08519e-06
1.14875e-12
2.22927e-05
-7.22342e-06
1.13127e-12
5.50924e-05
-1.44699e-05
1.20194e-12
7.84681e-05
-2.29411e-05
1.32836e-12
9.39416e-05
-3.1799e-05
1.37344e-12
0.000102548
-4.02343e-05
1.34097e-12
0.0001049
-4.74474e-05
1.22425e-12
0.00010117
-5.2564e-05
1.01647e-12
9.1021e-05
-5.44307e-05
7.74322e-13
7.35623e-05
5.71542e-13
-5.14526e-05
4.64211e-05
1.49033e-07
-1.48915e-07
-7.17881e-11
-5.48828e-07
6.99619e-07
-1.73517e-09
-2.06744e-06
1.5212e-06
-2.57367e-09
-4.16214e-06
2.098e-06
-3.29795e-09
-6.60005e-06
2.44165e-06
-3.72923e-09
-9.18863e-06
2.59249e-06
-3.90581e-09
-1.17693e-05
2.58458e-06
-3.91435e-09
-1.42047e-05
2.43917e-06
-3.75765e-09
-1.6375e-05
2.1737e-06
-3.40982e-09
1.81653e-06
-2.84797e-09
-1.81887e-05
-7.29813e-07
5.79501e-07
1.42193e-09
-3.2837e-06
3.25392e-06
-4.02464e-10
-7.44903e-06
5.68504e-06
1.4984e-09
-1.28054e-05
7.45202e-06
2.37029e-09
-1.89098e-05
8.54326e-06
2.80574e-09
-2.53488e-05
9.02835e-06
3.07953e-09
-3.17472e-05
8.97994e-06
3.08819e-09
-3.7767e-05
8.45603e-06
2.87084e-09
-4.31164e-05
7.52067e-06
2.51787e-09
6.28022e-06
2.172e-09
-4.75823e-05
-1.68519e-06
2.26222e-06
2.48036e-09
-6.07525e-06
7.64624e-06
-2.24785e-09
-1.25918e-05
1.22017e-05
-1.07536e-10
-2.06405e-05
1.55007e-05
8.92457e-11
-2.96413e-05
1.75441e-05
-1.20984e-10
-3.90438e-05
1.84309e-05
-1.13068e-10
-4.83273e-05
1.82636e-05
-1.24048e-10
-5.7005e-05
1.71339e-05
-1.81475e-10
-6.46475e-05
1.51634e-05
-2.47929e-10
1.25712e-05
-1.51348e-10
-7.09383e-05
-2.46719e-06
4.72581e-06
3.6026e-09
-8.40765e-06
1.35899e-05
-3.15598e-09
-1.68684e-05
2.06624e-05
1.03831e-11
-2.70681e-05
2.57001e-05
2.7461e-10
-3.83143e-05
2.87904e-05
-9.08673e-11
-4.99616e-05
3.00784e-05
-1.33471e-10
-6.13854e-05
2.96877e-05
-1.73978e-10
-7.19784e-05
2.77272e-05
-2.78462e-10
-8.11808e-05
2.43663e-05
-4.74939e-10
1.99504e-05
-4.171e-10
-8.85596e-05
-3.01841e-06
7.73983e-06
4.39775e-09
-1.00884e-05
2.06636e-05
-3.70236e-09
-1.99661e-05
3.05397e-05
4.21368e-10
-3.17147e-05
3.74478e-05
9.0977e-10
-4.45545e-05
4.16296e-05
5.46347e-10
-5.77748e-05
4.32981e-05
5.19896e-10
-7.06748e-05
4.25872e-05
4.62457e-10
-8.2541e-05
3.95932e-05
2.6806e-10
-9.26691e-05
3.44946e-05
-3.04184e-10
2.77383e-05
-5.86437e-10
-0.000100456
-3.31568e-06
1.10507e-05
4.78718e-09
-1.10164e-05
2.83684e-05
-4.09202e-09
-2.1693e-05
4.12158e-05
5.51288e-10
-3.43133e-05
5.00669e-05
1.15648e-09
-4.80462e-05
5.53618e-05
7.98508e-10
-6.21463e-05
5.73974e-05
7.91876e-10
-7.58661e-05
5.63062e-05
7.72761e-10
-8.84027e-05
5.21291e-05
6.1922e-10
-9.88845e-05
4.4977e-05
-5.20924e-10
3.52891e-05
-1.62332e-09
-0.000106434
-3.35118e-06
1.43971e-05
4.79508e-09
-1.11454e-05
3.61668e-05
-4.19333e-09
-2.19427e-05
5.20125e-05
5.89593e-10
-3.46854e-05
6.28083e-05
1.26483e-09
-4.8531e-05
6.92065e-05
9.6146e-10
-6.27336e-05
7.1599e-05
9.97e-10
-7.65387e-05
7.01102e-05
1.10401e-09
-8.90925e-05
6.46816e-05
1.32423e-09
-9.93588e-05
5.5244e-05
-6.83317e-10
4.19638e-05
-4.11485e-09
-0.000106029
-3.13209e-06
1.75248e-05
4.41798e-09
-1.04834e-05
4.35221e-05
-4.02224e-09
-2.07036e-05
6.22323e-05
5.38307e-10
-3.27694e-05
7.48729e-05
1.23034e-09
-4.58558e-05
8.22919e-05
1.00504e-09
-5.92405e-05
8.49826e-05
1.02255e-09
-7.22046e-05
8.30732e-05
1.15723e-09
-8.39139e-05
7.63889e-05
2.0532e-09
-9.32454e-05
6.45775e-05
-2.00713e-09
4.70415e-05
-1.43395e-08
-9.83088e-05
-2.68906e-06
2.02102e-05
3.68362e-09
-9.11428e-06
4.9951e-05
-3.64341e-09
-1.81041e-05
7.12217e-05
3.73655e-10
-2.87033e-05
8.54711e-05
1.03262e-09
-4.01026e-05
9.36902e-05
9.49647e-10
-5.15869e-05
9.64658e-05
1.03394e-09
-6.24743e-05
9.39593e-05
1.39385e-09
-7.20068e-05
8.59165e-05
4.85395e-09
-7.91547e-05
7.1724e-05
1.42576e-09
4.93897e-05
-3.21905e-08
-8.14707e-05
-2.08519e-06
2.6755e-09
2.22927e-05
-7.22341e-06
-3.14628e-09
5.50924e-05
-1.44699e-05
6.65506e-11
7.84681e-05
-2.2941e-05
5.90352e-10
9.39416e-05
-3.1799e-05
6.31769e-10
0.000102548
-4.02343e-05
9.36483e-10
0.0001049
-4.74474e-05
1.99632e-09
0.00010117
-5.2564e-05
1.21438e-08
9.1021e-05
-5.44307e-05
2.83327e-08
7.35623e-05
-9.56807e-09
-5.14526e-05
4.64211e-05
1.47649e-07
-1.47721e-07
-5.482e-07
6.94111e-07
-2.06669e-06
1.51591e-06
-4.162e-06
2.09201e-06
-6.60019e-06
2.43445e-06
-9.18877e-06
2.58468e-06
-1.17693e-05
2.57665e-06
-1.42046e-05
2.43149e-06
-1.63746e-05
2.16663e-06
1.81062e-06
-1.81881e-05
-7.25057e-07
5.78759e-07
-3.27811e-06
3.24676e-06
-7.44409e-06
5.68339e-06
-1.2802e-05
7.4523e-06
-1.89082e-05
8.54344e-06
-2.53487e-05
9.02823e-06
-3.17483e-05
8.97941e-06
-3.77689e-05
8.45493e-06
-4.31187e-05
7.51896e-06
6.27865e-06
-4.75846e-05
-1.6798e-06
2.26104e-06
-6.07448e-06
7.63919e-06
-1.2591e-05
1.21998e-05
-2.06395e-05
1.55009e-05
-2.96407e-05
1.75445e-05
-3.90437e-05
1.84311e-05
-4.83277e-05
1.82633e-05
-5.70056e-05
1.71326e-05
-6.46478e-05
1.5161e-05
1.2569e-05
-7.09383e-05
-2.46042e-06
4.72506e-06
-8.40875e-06
1.35844e-05
-1.68695e-05
2.06606e-05
-2.70684e-05
2.57e-05
-3.83143e-05
2.87904e-05
-4.99616e-05
3.00782e-05
-6.13855e-05
2.96871e-05
-7.19786e-05
2.77254e-05
-8.11804e-05
2.43623e-05
1.99464e-05
-8.85583e-05
-3.00999e-06
7.73944e-06
-1.00898e-05
2.06605e-05
-1.99677e-05
3.05389e-05
-3.1715e-05
3.74482e-05
-4.45545e-05
4.16304e-05
-5.77746e-05
4.32989e-05
-7.06748e-05
4.25877e-05
-8.25415e-05
3.95924e-05
-9.26687e-05
3.44892e-05
2.77311e-05
-0.000100454
-3.30638e-06
1.10506e-05
-1.10179e-05
2.83679e-05
-2.16946e-05
4.12162e-05
-3.43133e-05
5.00681e-05
-4.80457e-05
5.53635e-05
-6.21454e-05
5.73994e-05
-7.58655e-05
5.63085e-05
-8.84031e-05
5.21306e-05
-9.88843e-05
4.49699e-05
3.52746e-05
-0.000106429
-3.34179e-06
1.43972e-05
-1.11468e-05
3.61687e-05
-2.19441e-05
5.20141e-05
-3.46849e-05
6.28102e-05
-4.85295e-05
6.92091e-05
-6.27313e-05
7.16023e-05
-7.65364e-05
7.01147e-05
-8.90924e-05
6.46879e-05
-9.93598e-05
5.52366e-05
4.19316e-05
-0.000106021
-3.12338e-06
1.7525e-05
-1.04847e-05
4.3526e-05
-2.07046e-05
6.22346e-05
-3.27683e-05
7.4875e-05
-4.58531e-05
8.22949e-05
-5.92364e-05
8.49866e-05
-7.22001e-05
8.30796e-05
-8.39137e-05
7.64035e-05
-9.32579e-05
6.45787e-05
4.69594e-05
-9.82999e-05
-2.68174e-06
2.02104e-05
-9.11553e-06
4.99562e-05
-1.81048e-05
7.12242e-05
-2.87014e-05
8.54727e-05
-4.00978e-05
9.36923e-05
-5.15784e-05
9.64682e-05
-6.246e-05
9.39626e-05
-7.19873e-05
8.59357e-05
-7.91784e-05
7.17713e-05
4.92729e-05
-8.15241e-05
-2.07986e-06
2.22929e-05
-7.22495e-06
5.50981e-05
-1.44712e-05
7.84705e-05
-2.29401e-05
9.39422e-05
-3.17942e-05
0.000102547
-4.02224e-05
0.000104897
-4.74187e-05
0.000101161
-5.24763e-05
9.10054e-05
-5.4291e-05
7.36143e-05
-5.16792e-05
4.66515e-05
-1.9604e-05
1.41379e-06
2.14078e-09
-2.06437e-05
1.0382e-06
1.49647e-09
-2.13696e-05
7.24914e-07
9.89792e-10
-2.18584e-05
4.88095e-07
6.24183e-10
-2.21826e-05
3.23862e-07
3.82537e-10
-2.24029e-05
2.201e-07
2.37255e-10
-2.25665e-05
1.63441e-07
1.61717e-10
-2.27093e-05
1.42671e-07
1.35851e-10
-2.28589e-05
1.49433e-07
1.46368e-10
-2.30365e-05
1.77403e-07
1.8449e-10
-2.32575e-05
2.20705e-07
2.44275e-10
-2.35297e-05
2.71936e-07
3.19623e-10
-2.38501e-05
3.19997e-07
4.00911e-10
-2.41986e-05
3.47991e-07
4.72301e-10
-2.45308e-05
3.31738e-07
5.07592e-10
-2.47713e-05
2.39987e-07
4.64299e-10
-2.48104e-05
3.8787e-08
2.88353e-10
-2.45064e-05
-3.03903e-07
-5.27003e-11
-2.37096e-05
-7.96139e-07
-6.53851e-10
-1.41302e-06
-1.55888e-09
-2.2295e-05
-5.10792e-05
4.91023e-06
-1.92023e-09
-5.36621e-05
3.6227e-06
-1.60234e-09
-5.54861e-05
2.55027e-06
-1.26648e-09
-5.67342e-05
1.7371e-06
-9.66714e-10
-5.75781e-05
1.16849e-06
-7.22066e-10
-5.81608e-05
8.03354e-07
-5.4203e-10
-5.85934e-05
5.96512e-07
-4.26209e-10
-5.89597e-05
5.09312e-07
-3.67133e-10
-5.93217e-05
5.11781e-07
-3.53988e-10
-5.9724e-05
5.80043e-07
-3.749e-10
-6.01943e-05
6.91397e-07
-4.15391e-10
-6.07401e-05
8.18284e-07
-4.56083e-10
-6.13415e-05
9.21872e-07
-4.70844e-10
-6.19393e-05
9.462e-07
-4.25081e-10
-6.2422e-05
8.14637e-07
-2.76084e-10
-6.26138e-05
4.31808e-07
2.05589e-11
-6.22712e-05
-3.04324e-07
4.94757e-10
-6.10992e-05
-1.47703e-06
1.1339e-09
-5.87902e-05
-3.10699e-06
1.90023e-09
-5.10232e-06
2.62077e-09
-5.51036e-05
-7.57607e-05
9.73281e-06
-2.38025e-10
-7.92455e-05
7.10789e-06
-4.13226e-10
-8.16556e-05
4.96088e-06
-4.52461e-10
-8.32762e-05
3.35815e-06
-4.2981e-10
-8.43572e-05
2.2498e-06
-3.67042e-10
-8.50948e-05
1.54124e-06
-2.92991e-10
-8.56346e-05
1.13657e-06
-2.26053e-10
-8.60818e-05
9.56691e-07
-1.73237e-10
-8.65112e-05
9.41316e-07
-1.35128e-10
-8.69739e-05
1.04281e-06
-1.09201e-10
-8.74989e-05
1.2165e-06
-9.08904e-11
-8.80899e-05
1.40937e-06
-7.46184e-11
-8.87164e-05
1.54842e-06
-5.37569e-11
-8.93001e-05
1.52995e-06
-1.99168e-11
-8.96982e-05
1.21268e-06
3.79108e-11
-8.96868e-05
4.20258e-07
1.28356e-10
-8.89529e-05
-1.03848e-06
2.45879e-10
-8.71069e-05
-3.32343e-06
3.83255e-10
-8.37304e-05
-6.48396e-06
5.24155e-10
-1.03549e-05
4.45367e-10
-7.84782e-05
-9.39672e-05
1.51421e-05
-3.75327e-10
-9.7672e-05
1.08133e-05
-6.05161e-10
-0.000100099
7.38855e-06
-6.00614e-10
-0.00010165
4.90991e-06
-5.34011e-10
-0.000102639
3.23904e-06
-4.25101e-10
-0.000103288
2.19006e-06
-3.14566e-10
-0.000103746
1.59527e-06
-2.2307e-10
-0.000104115
1.32565e-06
-1.53946e-10
-0.000104461
1.28759e-06
-1.04629e-10
-0.000104828
1.41008e-06
-7.13147e-11
-0.00010524
1.6288e-06
-4.98046e-11
-0.0001057
1.86909e-06
-3.60868e-11
-0.00010618
2.02857e-06
-2.66637e-11
-0.000106611
1.96049e-06
-1.59424e-11
-0.000106859
1.46076e-06
1.06271e-11
-0.000106704
2.65506e-07
6.8249e-11
-0.000105817
-1.92588e-06
1.36127e-10
-0.000103748
-5.39254e-06
2.64354e-10
-9.99623e-05
-1.02703e-05
5.08933e-10
-1.63667e-05
4.48205e-10
-9.3951e-05
-0.000105688
2.03766e-05
-1.02177e-09
-0.000108892
1.40185e-05
-1.14396e-09
-0.000110748
9.24572e-06
-9.25409e-10
-0.000111793
5.95541e-06
-7.23534e-10
-0.000112379
3.82633e-06
-5.09606e-10
-0.00011272
2.53125e-06
-3.34914e-10
-0.000112937
1.8118e-06
-2.13861e-10
-0.000113098
1.48666e-06
-1.35821e-10
-0.000113243
1.43357e-06
-8.89574e-11
-0.000113399
1.56573e-06
-6.39238e-11
-0.000113579
1.80863e-06
-5.42942e-11
-0.000113788
2.07794e-06
-5.58498e-11
-0.000114016
2.25698e-06
-6.55958e-11
-0.000114229
2.17363e-06
-7.72135e-11
-0.000114346
1.57789e-06
-6.48451e-11
-0.000114205
1.24662e-07
6.85294e-12
-0.000113519
-2.61217e-06
7.19845e-11
-0.000111817
-7.09456e-06
2.62368e-10
-0.000108426
-1.36622e-05
8.92373e-10
-2.2239e-05
1.27239e-09
-0.000102555
-0.000110642
2.45918e-05
-2.18743e-09
-0.000112566
1.59435e-05
-1.86187e-09
-0.000113277
9.95774e-06
-1.16357e-09
-0.00011344
6.11962e-06
-7.78968e-10
-0.000113394
3.78128e-06
-4.5853e-10
-0.000113288
2.42484e-06
-2.41936e-10
-0.000113173
1.6971e-06
-1.19938e-10
-0.000113062
1.37607e-06
-5.52922e-11
-0.000112954
1.32548e-06
-2.37533e-11
-0.000112845
1.45676e-06
-1.16747e-11
-0.000112736
1.69951e-06
-1.22643e-11
-0.000112635
1.97642e-06
-2.31807e-11
-0.000112556
2.17848e-06
-4.46274e-11
-0.000112519
2.137e-06
-7.55876e-11
-0.000112531
1.59017e-06
-9.28782e-11
-0.000112549
1.4263e-07
-5.19659e-11
-0.000112407
-2.75465e-06
-2.43639e-11
-0.000111694
-7.80794e-06
1.49118e-10
-0.000109609
-1.57488e-05
1.53117e-09
-2.69479e-05
3.22415e-09
-0.000104903
-0.000108174
2.67504e-05
-5.82619e-09
-0.000107973
1.57465e-05
-3.83652e-09
-0.000107056
9.04213e-06
-1.76802e-09
-0.000106119
5.18379e-06
-9.2137e-10
-0.000105367
3.02986e-06
-3.91568e-10
-0.000104806
1.8636e-06
-1.20936e-10
-0.000104379
1.27029e-06
-1.46445e-11
-0.000104024
1.02136e-06
2.02181e-11
-0.00010369
9.91788e-07
2.45635e-11
-0.000103343
1.10898e-06
1.49609e-11
-0.000102964
1.32094e-06
-3.04471e-12
-0.000102561
1.57299e-06
-2.89971e-11
-0.000102168
1.78557e-06
-6.41592e-11
-0.000101857
1.82679e-06
-1.11842e-10
-0.00010174
1.47261e-06
-1.49486e-10
-0.000101941
3.43999e-07
-8.03999e-11
-0.000102521
-2.17474e-06
9.51693e-11
-0.000103295
-7.03461e-06
4.69205e-10
-0.000103472
-1.55749e-05
3.69128e-09
-2.92675e-05
8.85623e-09
-0.000101162
-9.69288e-05
2.53891e-05
-9.9025e-09
-9.38062e-05
1.26278e-05
-4.00956e-09
-9.1087e-05
6.32377e-06
-8.08737e-10
-8.91586e-05
3.25571e-06
-3.08965e-10
-8.78822e-05
1.75339e-06
3.90866e-11
-8.70389e-05
1.02013e-06
1.6197e-10
-8.64456e-05
6.76894e-07
1.53176e-10
-8.59706e-05
5.46255e-07
1.25957e-10
-8.55235e-05
5.44587e-07
1.04384e-10
-8.50448e-05
6.30104e-07
8.9271e-11
-8.4501e-05
7.77101e-07
7.68585e-11
-8.38884e-05
9.60342e-07
6.11746e-11
-8.3244e-05
1.14112e-06
3.29817e-11
-8.26655e-05
1.24836e-06
-3.37093e-11
-8.23382e-05
1.1454e-06
-1.32013e-10
-8.25567e-05
5.62597e-07
-4.53655e-11
-8.36895e-05
-1.04214e-06
1.23461e-10
-8.60445e-05
-4.6791e-06
-4.51219e-10
-8.92908e-05
-1.23319e-05
3.26927e-09
-2.75731e-05
1.41618e-08
-9.09994e-05
-7.40633e-05
1.79407e-05
-1.23818e-08
-6.78333e-05
6.39244e-06
5.47985e-09
-6.40024e-05
2.48668e-06
6.12024e-09
-6.17993e-05
1.05005e-06
2.60477e-09
-6.05338e-05
4.86553e-07
1.34395e-09
-5.97736e-05
2.5909e-07
8.13657e-10
-5.92668e-05
1.69571e-07
5.09471e-10
-5.88652e-05
1.44277e-07
3.84419e-10
-5.84769e-05
1.55905e-07
3.68651e-10
-5.80413e-05
1.94165e-07
4.14754e-10
-5.75194e-05
2.54691e-07
4.98037e-10
-5.68937e-05
3.34022e-07
5.97192e-10
-5.6179e-05
4.25767e-07
6.74888e-10
-5.54459e-05
5.14628e-07
6.34637e-10
-5.48639e-05
5.62987e-07
3.52844e-10
-5.47845e-05
4.83319e-07
-1.05251e-10
-5.57801e-05
-4.48245e-08
-1.65756e-09
-5.88775e-05
-1.57418e-06
-7.58368e-09
-6.51508e-05
-6.04828e-06
-1.02587e-08
-1.91386e-05
1.53632e-08
-7.36007e-05
-3.367e-05
-6.85497e-08
-2.72659e-05
-1.15872e-08
-2.47785e-05
-8.1935e-10
-2.37265e-05
-1.86289e-09
-2.32388e-05
-1.20885e-09
-2.29791e-05
-5.65422e-10
-2.28092e-05
-3.18653e-10
-2.26647e-05
-2.2502e-10
-2.25086e-05
-1.98765e-10
-2.23142e-05
-2.18393e-10
-2.20593e-05
-2.70394e-10
-2.17249e-05
-3.41569e-10
-2.12987e-05
-4.13167e-10
-2.07837e-05
-4.52065e-10
-2.02203e-05
-3.43503e-10
-1.97372e-05
2.23271e-10
-1.97828e-05
7.77064e-10
-2.13545e-05
-2.51483e-09
-2.74078e-05
5.06104e-09
8.64432e-08
-4.66329e-05
-1.96046e-05
1.41805e-06
3.4505e-13
-2.06442e-05
1.04109e-06
2.56561e-13
-2.137e-05
7.26772e-07
2.39339e-13
-2.18586e-05
4.89233e-07
2.59203e-13
-2.21828e-05
3.24542e-07
2.54708e-13
-2.2403e-05
2.2052e-07
1.95051e-13
-2.25666e-05
1.63743e-07
1.28532e-13
-2.27094e-05
1.42951e-07
1.36799e-13
-2.2859e-05
1.49757e-07
3.5223e-14
-2.30367e-05
1.7782e-07
-9.98045e-14
-2.32577e-05
2.2125e-07
-8.64549e-14
-2.353e-05
2.72626e-07
-3.09454e-14
-2.38504e-05
3.20825e-07
-4.07233e-14
-2.41989e-05
3.48914e-07
-2.89747e-14
-2.4531e-05
3.32668e-07
3.47495e-14
-2.47713e-05
2.40782e-07
1.24297e-13
-2.48101e-05
3.90201e-08
2.26449e-13
-2.4506e-05
-3.04133e-07
3.27279e-13
-2.37092e-05
-7.97448e-07
4.40728e-13
-1.41602e-06
5.8097e-13
-2.22947e-05
-5.10767e-05
4.91049e-06
3.27131e-13
-5.36596e-05
3.62236e-06
2.49218e-13
-5.54839e-05
2.54982e-06
2.21222e-13
-5.67323e-05
1.73671e-06
2.66057e-13
-5.75767e-05
1.1682e-06
2.8896e-13
-5.81599e-05
8.03164e-07
2.1799e-13
-5.8593e-05
5.96394e-07
5.24169e-14
-5.89596e-05
5.09231e-07
-6.48408e-14
-5.93219e-05
5.11699e-07
-1.07418e-13
-5.97244e-05
5.79922e-07
-1.4577e-13
-6.01947e-05
6.91202e-07
-1.15502e-13
-6.07406e-05
8.17978e-07
-5.02101e-14
-6.13416e-05
9.2143e-07
-1.45149e-14
-6.19388e-05
9.45634e-07
6.73115e-14
-6.24204e-05
8.14024e-07
1.93572e-13
-6.26109e-05
4.31319e-07
3.23694e-13
-6.2267e-05
-3.04452e-07
4.29569e-13
-6.10937e-05
-1.47626e-06
5.47126e-13
-5.87842e-05
-3.10503e-06
6.74755e-13
-5.09983e-06
8.00439e-13
-5.50978e-05
-7.576e-05
9.73191e-06
3.90025e-13
-7.92441e-05
7.10604e-06
2.97291e-13
-8.1654e-05
4.95926e-06
2.77257e-13
-8.32746e-05
3.35694e-06
3.12385e-13
-8.43558e-05
2.24902e-06
3.44225e-13
-8.50938e-05
1.5408e-06
2.47539e-13
-8.56339e-05
1.13634e-06
1.29967e-13
-8.60814e-05
9.56573e-07
8.98016e-14
-8.65111e-05
9.41221e-07
6.49379e-14
-8.69739e-05
1.04267e-06
-3.86446e-14
-8.74991e-05
1.21623e-06
-8.04697e-14
-8.80901e-05
1.40891e-06
-7.2017e-14
-8.87164e-05
1.54772e-06
-3.61827e-14
-8.92998e-05
1.529e-06
6.88313e-15
-8.96973e-05
1.21159e-06
6.82404e-15
-8.96852e-05
4.19277e-07
-1.09317e-14
-8.89504e-05
-1.03894e-06
1.47557e-14
-8.71037e-05
-3.32256e-06
9.93159e-14
-8.37274e-05
-6.4809e-06
1.88829e-13
-1.03509e-05
2.98631e-13
-7.84758e-05
-9.3967e-05
1.51389e-05
4.58601e-13
-9.76704e-05
1.08089e-05
3.52847e-13
-0.000100097
7.38527e-06
2.81137e-13
-0.000101648
4.90771e-06
2.1829e-13
-0.000102637
3.23773e-06
2.55382e-13
-0.000103286
2.18938e-06
1.93678e-13
-0.000103745
1.59497e-06
9.78572e-14
-0.000104114
1.32554e-06
2.62808e-14
-0.000104461
1.28753e-06
2.95131e-15
-0.000104828
1.40998e-06
-4.94896e-14
-0.000105241
1.62857e-06
-5.22487e-14
-0.0001057
1.86863e-06
-3.05622e-14
-0.00010618
2.02781e-06
-1.49855e-14
-0.000106611
1.95936e-06
-3.65929e-14
-0.000106859
1.45935e-06
-9.56284e-14
-0.000106703
2.64222e-07
-1.05063e-13
-0.000105815
-1.92683e-06
-1.05335e-14
-0.000103746
-5.39178e-06
1.34797e-13
-9.99604e-05
-1.02658e-05
2.76797e-13
-1.63606e-05
3.5422e-13
-9.39503e-05
-0.000105687
2.03681e-05
5.5185e-13
-0.000108889
1.40098e-05
4.43565e-13
-0.000110745
9.24039e-06
3.05878e-13
-0.00011179
5.95227e-06
1.41769e-13
-0.000112378
3.82469e-06
1.30436e-13
-0.000112719
2.53052e-06
5.42139e-14
-0.000112936
1.81154e-06
-8.22356e-14
-0.000113097
1.4866e-06
-1.88499e-13
-0.000113243
1.43357e-06
-1.80845e-13
-0.000113399
1.56567e-06
-1.29772e-13
-0.000113579
1.80843e-06
-7.46494e-14
-0.000113788
2.07748e-06
-6.40536e-14
-0.000114016
2.25615e-06
-8.83239e-14
-0.000114229
2.17233e-06
-1.3813e-13
-0.000114346
1.57611e-06
-1.56432e-13
-0.000114205
1.23165e-07
-5.94582e-14
-0.000113518
-2.61392e-06
9.98043e-14
-0.000111815
-7.09432e-06
3.13842e-13
-0.000108424
-1.36555e-05
4.56241e-13
-2.2228e-05
5.67541e-13
-0.000102556
-0.00011064
2.45718e-05
6.17422e-13
-0.00011256
1.59284e-05
5.83644e-13
-0.000113272
9.95092e-06
4.50275e-13
-0.000113437
6.11642e-06
2.30543e-13
-0.000113392
3.77996e-06
2.32347e-13
-0.000113287
2.42446e-06
2.18478e-13
-0.000113172
1.69709e-06
7.72357e-14
-0.000113062
1.37618e-06
-6.86261e-14
-0.000112954
1.32558e-06
-1.32115e-13
-0.000112845
1.45678e-06
-1.13855e-13
-0.000112736
1.69937e-06
-1.00836e-13
-0.000112635
1.97603e-06
-1.42261e-13
-0.000112556
2.17771e-06
-2.28337e-13
-0.00011252
2.13567e-06
-3.12792e-13
-0.000112532
1.58814e-06
-3.175e-13
-0.000112549
1.40777e-07
-2.09988e-13
-0.000112406
-2.7576e-06
-3.23567e-14
-0.000111691
-7.80919e-06
1.45279e-13
-0.000109606
-1.57387e-05
2.32662e-13
-2.69252e-05
2.18675e-13
-0.000104906
-0.000108166
2.6703e-05
4.67789e-13
-0.000107963
1.57209e-05
5.16387e-13
-0.000107049
9.03531e-06
3.71344e-13
-0.000106115
5.18192e-06
1.67706e-13
-0.000105365
3.0296e-06
2.3159e-13
-0.000104805
1.86388e-06
4.00193e-13
-0.000104379
1.27061e-06
3.52506e-13
-0.000104024
1.0216e-06
1.71798e-13
-0.00010369
9.91929e-07
3.0466e-14
-0.000103342
1.10901e-06
-2.73416e-14
-0.000102964
1.32081e-06
-7.15966e-14
-0.000102561
1.57263e-06
-1.48115e-13
-0.000102168
1.78484e-06
-2.35043e-13
-0.000101858
1.82546e-06
-2.80437e-13
-0.00010174
1.47044e-06
-2.52602e-13
-0.000101941
3.41445e-07
-1.47345e-13
-0.00010252
-2.17876e-06
-2.72184e-14
-0.000103291
-7.03766e-06
7.1111e-14
-0.000103468
-1.55576e-05
7.2961e-15
-2.92133e-05
-2.80459e-13
-0.000101171
-9.69146e-05
2.52989e-05
2.81708e-13
-9.3796e-05
1.25982e-05
3.62637e-13
-9.10837e-05
6.32224e-06
1.23951e-13
-8.91585e-05
3.2564e-06
-6.32739e-14
-8.78829e-05
1.75401e-06
-3.56818e-14
-8.70395e-05
1.02068e-06
2.12224e-13
-8.6446e-05
6.77238e-07
2.86027e-13
-8.59707e-05
5.46443e-07
1.98475e-13
-8.55233e-05
5.44678e-07
6.93165e-14
-8.50444e-05
6.30123e-07
-3.70066e-14
-8.45005e-05
7.77042e-07
-1.31401e-13
-8.3888e-05
9.60169e-07
-2.17655e-13
-8.32439e-05
1.14075e-06
-2.57159e-13
-8.26661e-05
1.24761e-06
-2.35782e-13
-8.23397e-05
1.14396e-06
-1.66717e-13
-8.25587e-05
5.60434e-07
-9.01392e-14
-8.36931e-05
-1.04427e-06
1.11253e-15
-8.60471e-05
-4.68405e-06
3.41316e-14
-8.92885e-05
-1.2313e-05
-2.15168e-13
-2.74726e-05
-8.80692e-13
-9.1015e-05
-7.40451e-05
1.7861e-05
4.09463e-13
-6.7841e-05
6.3996e-06
3.21056e-13
-6.40111e-05
2.49848e-06
1.4609e-13
-6.18057e-05
1.05362e-06
1.77975e-14
-6.05376e-05
4.87237e-07
-1.16874e-13
-5.97754e-05
2.59313e-07
2.34215e-15
-5.92674e-05
1.69755e-07
9.4757e-14
-5.88651e-05
1.44512e-07
9.62984e-14
-5.84763e-05
1.56244e-07
1.76499e-14
-5.80405e-05
1.94659e-07
-1.16467e-13
-5.75183e-05
2.55404e-07
-2.529e-13
-5.68926e-05
3.35031e-07
-3.35241e-13
-5.61783e-05
4.27162e-07
-3.34022e-13
-5.54466e-05
5.16528e-07
-2.5612e-13
-5.48676e-05
5.6535e-07
-2.14937e-13
-5.47908e-05
4.83508e-07
-1.85948e-13
-5.57951e-05
-4.16651e-08
-2.04818e-13
-5.89036e-05
-1.58314e-06
-3.80037e-13
-6.51664e-05
-6.06043e-06
-1.01162e-12
-1.90749e-05
-1.44083e-12
-7.35488e-05
-3.36602e-05
4.32864e-13
-2.72722e-05
2.3116e-13
-2.47745e-05
-7.77236e-14
-2.37228e-05
-2.29546e-14
-2.32368e-05
1.10888e-13
-2.2978e-05
1.94167e-13
-2.28086e-05
2.07642e-13
-2.26643e-05
1.40881e-13
-2.25082e-05
2.36756e-14
-2.23138e-05
-1.21734e-13
-2.20587e-05
-2.2807e-13
-2.1724e-05
-2.46416e-13
-2.12972e-05
-2.15609e-13
-2.07811e-05
-1.42998e-13
-2.02161e-05
-8.98164e-14
-1.97324e-05
-1.3882e-13
-1.97733e-05
-5.06459e-13
-2.1359e-05
-1.15529e-12
-2.74143e-05
-1.52541e-12
-1.7291e-12
-4.64027e-05
-1.96046e-05
1.41805e-06
-2.14051e-09
-2.06442e-05
1.04109e-06
-1.49624e-09
-2.137e-05
7.26772e-07
-9.89592e-10
-2.18586e-05
4.89233e-07
-6.24033e-10
-2.21827e-05
3.24542e-07
-3.82381e-10
-2.2403e-05
2.2052e-07
-2.37019e-10
-2.25666e-05
1.63743e-07
-1.6151e-10
-2.27094e-05
1.4295e-07
-1.35888e-10
-2.2859e-05
1.49757e-07
-1.46538e-10
-2.30367e-05
1.7782e-07
-1.84656e-10
-2.32577e-05
2.21249e-07
-2.44476e-10
-2.353e-05
2.72625e-07
-3.19804e-10
-2.38504e-05
3.20825e-07
-4.01023e-10
-2.41988e-05
3.48913e-07
-4.72366e-10
-2.4531e-05
3.32668e-07
-5.07562e-10
-2.47713e-05
2.40782e-07
-4.64087e-10
-2.48101e-05
3.90204e-08
-2.87821e-10
-2.4506e-05
-3.04132e-07
5.36187e-11
-2.37092e-05
-7.97447e-07
6.5513e-10
-1.41601e-06
1.56049e-09
-2.22947e-05
-5.10767e-05
4.91049e-06
1.92077e-09
-5.36595e-05
3.62236e-06
1.6028e-09
-5.54839e-05
2.54982e-06
1.26688e-09
-5.67323e-05
1.73671e-06
9.67103e-10
-5.75767e-05
1.1682e-06
7.22526e-10
-5.81599e-05
8.03164e-07
5.42526e-10
-5.85929e-05
5.96394e-07
4.26618e-10
-5.89596e-05
5.0923e-07
3.67351e-10
-5.93219e-05
5.11698e-07
3.54103e-10
-5.97244e-05