/*--------------------------------*- C++ -*----------------------------------*\
| =========                 |                                                 |
| \\      /  F ield         | OpenFOAM: The Open Source CFD Toolbox           |
|  \\    /   O peration     | Version:  2.4.0                                 |
|   \\  /    A nd           | Web:      www.OpenFOAM.org                      |
|    \\/     M anipulation  |                                                 |
\*---------------------------------------------------------------------------*/
FoamFile
{
    version     2.0;
    format      ascii;
    class       volVectorField;
    location    "2.5";
    object      U;
}
// * * * * * * * * * * * * * * * * * * * * * * * * * * * * * * * * * * * * * //

dimensions      [0 1 -1 0 0 0 0];

internalField   nonuniform List<vector> 
4800
(
(0.000300392 -0.000303555 3.36085e-07)
(3.77911e-06 0.000161333 0.000215915)
(-0.00185279 0.000664202 0.000439601)
(-0.00482599 0.00100307 0.000603513)
(-0.00852332 0.00119482 0.0006642)
(-0.0126068 0.00127706 0.00060155)
(-0.0167963 0.00127708 0.000409447)
(-0.0208561 0.00120858 8.85415e-05)
(-0.0245785 0.0010789 -0.000355005)
(-0.0277885 0.000900082 -0.000908184)
(-0.000186332 -4.31046e-06 -0.000214283)
(-0.00247885 0.00239094 5.7556e-06)
(-0.0080219 0.00471811 0.000171309)
(-0.0158295 0.00639241 0.000267904)
(-0.0251641 0.00741112 0.000277661)
(-0.0353538 0.00786727 0.000184813)
(-0.0457658 0.00784673 -1.71976e-05)
(-0.0558262 0.00740908 -0.000330582)
(-0.0650224 0.00660947 -0.000753834)
(-0.0729333 0.00553692 -0.00128024)
(-0.000775771 0.00197857 -0.000443077)
(-0.00517649 0.00805057 -0.000152875)
(-0.0141743 0.0134405 1.35057e-05)
(-0.0260999 0.0173758 8.87177e-05)
(-0.0399612 0.019821 8.12223e-05)
(-0.054897 0.0209071 -1.78108e-05)
(-0.0700494 0.0207758 -0.000212596)
(-0.0846043 0.0195487 -0.000506794)
(-0.0978123 0.0173722 -0.000903293)
(-0.109044 0.0144946 -0.00140149)
(-0.00124607 0.00536638 -0.000596305)
(-0.00741789 0.0164764 -0.000221086)
(-0.019325 0.0256426 -3.11171e-05)
(-0.0346018 0.032247 4.61169e-05)
(-0.0520208 0.0363296 4.07816e-05)
(-0.07059 0.0380784 -5.00566e-05)
(-0.0892982 0.037677 -0.000228945)
(-0.107152 0.0352935 -0.000502106)
(-0.123194 0.0311678 -0.000878587)
(-0.136573 0.0257499 -0.00136633)
(-0.00156692 0.00982766 -0.000600284)
(-0.00901347 0.0270646 -0.000151377)
(-0.0230515 0.0405319 6.36585e-05)
(-0.0407612 0.0500478 0.000153123)
(-0.0607244 0.0558529 0.000162921)
(-0.0818566 0.0582275 9.35636e-05)
(-0.103043 0.057382 -5.83493e-05)
(-0.12315 0.0534941 -0.000304447)
(-0.141022 0.0468609 -0.000663726)
(-0.155516 0.0381349 -0.00115945)
(-0.00173345 0.0149742 -0.000406549)
(-0.00988085 0.0390847 9.7218e-05)
(-0.0251193 0.0572231 0.000332975)
(-0.0442029 0.0698134 0.000441798)
(-0.0655958 0.0773903 0.000478935)
(-0.088164 0.0803579 0.000445675)
(-0.110738 0.0789349 0.000334571)
(-0.132093 0.0732496 0.000124758)
(-0.150889 0.0635678 -0.000218248)
(-0.165567 0.0506584 -0.000747808)
(-0.00174665 0.0203879 8.09587e-06)
(-0.00998824 0.051693 0.000545042)
(-0.0254125 0.0746672 0.000794039)
(-0.0447019 0.0904003 0.000927255)
(-0.0662879 0.0997674 0.00100342)
(-0.0890322 0.103318 0.00102256)
(-0.111767 0.101259 0.000970254)
(-0.13325 0.0935944 0.000812565)
(-0.152043 0.0803992 0.000493716)
(-0.166032 0.0622897 -0.000100165)
(-0.00161383 0.0256492 0.00064376)
(-0.00935321 0.0640131 0.00119233)
(-0.0239375 0.0917438 0.00144587)
(-0.0422131 0.110554 0.001607)
(-0.0626469 0.121659 0.0017332)
(-0.0841232 0.125764 0.00182272)
(-0.105518 0.123066 0.00185272)
(-0.125666 0.113378 0.00177421)
(-0.143263 0.0963757 0.00150939)
(-0.155598 0.0719152 0.000828425)
(-0.00135495 0.0303666 0.00147836)
(-0.00806398 0.0752065 0.00201975)
(-0.0208717 0.107344 0.00226898)
(-0.0369676 0.128976 0.00245925)
(-0.0548796 0.141604 0.00264355)
(-0.0734866 0.146104 0.00281966)
(-0.0916734 0.14271 0.00295716)
(-0.108367 0.131088 0.00299131)
(-0.122778 0.11046 0.00283402)
(-0.132034 0.0790824 0.0020514)
(-0.00100874 0.0342212 0.00247007)
(-0.00630299 0.0845689 0.00299088)
(-0.0166217 0.120489 0.00322717)
(-0.0296005 0.14444 0.0034438)
(-0.0438029 0.158092 0.00368813)
(-0.0579877 0.162449 0.00396242)
(-0.0708317 0.157834 0.00423819)
(-0.0809676 0.143898 0.00444694)
(-0.0881064 0.119721 0.00455723)
(-0.091228 0.0825711 0.00395009)
(0.000305266 -0.000308114 1.86536e-07)
(1.07646e-05 0.000155459 1.40417e-06)
(-0.00184911 0.000650293 2.02804e-06)
(-0.00482341 0.000983478 2.57981e-06)
(-0.00852186 0.00117211 2.90992e-06)
(-0.0126063 0.00125284 3.04479e-06)
(-0.0167965 0.00125282 3.05024e-06)
(-0.0208572 0.00118562 2.92786e-06)
(-0.0245808 0.00105835 2.65686e-06)
(-0.0277918 0.000882567 2.21903e-06)
(-0.000179042 -1.16684e-05 -1.0566e-06)
(-0.00247588 0.00238892 3.45657e-07)
(-0.00802938 0.00470696 -1.14725e-06)
(-0.0158342 0.00637619 -1.83425e-06)
(-0.0251664 0.00739311 -2.17754e-06)
(-0.0353545 0.00784844 -2.39248e-06)
(-0.0457648 0.00782804 -2.40021e-06)
(-0.0558242 0.00739157 -2.23158e-06)
(-0.0650205 0.006594 -1.95727e-06)
(-0.0729321 0.00552355 -1.68851e-06)
(-0.000759903 0.00197303 -1.90847e-06)
(-0.00516533 0.00805706 1.76689e-06)
(-0.0141812 0.0134436 9.5018e-08)
(-0.0261021 0.0173791 -6.32111e-08)
(-0.0399612 0.0198262 9.77433e-08)
(-0.0548968 0.0209133 9.05112e-08)
(-0.0700486 0.0207824 9.8223e-08)
(-0.0846032 0.0195555 1.42439e-07)
(-0.0978122 0.0173791 1.93908e-07)
(-0.109046 0.0145003 1.18654e-07)
(-0.00122333 0.00536158 -2.79327e-06)
(-0.00740169 0.0164804 2.46481e-06)
(-0.019334 0.0256417 -1.20407e-09)
(-0.0346037 0.0322444 -2.09213e-07)
(-0.0520198 0.0363275 7.39695e-08)
(-0.0705892 0.0380766 1.06528e-07)
(-0.0892969 0.0376757 1.37236e-07)
(-0.10715 0.0352933 2.18052e-07)
(-0.123193 0.0311697 3.70717e-07)
(-0.136578 0.0257521 3.25609e-07)
(-0.00153969 0.00982464 -3.41845e-06)
(-0.00899509 0.0270669 2.8853e-06)
(-0.0230639 0.0405299 -3.2323e-07)
(-0.0407643 0.0500437 -7.04297e-07)
(-0.0607235 0.0558485 -4.22074e-07)
(-0.0818555 0.0582229 -4.01849e-07)
(-0.103041 0.0573776 -3.5785e-07)
(-0.123146 0.0534909 -2.07065e-07)
(-0.14102 0.0468622 2.37924e-07)
(-0.155524 0.0381384 4.57429e-07)
(-0.00170376 0.0149733 -3.72427e-06)
(-0.00986147 0.039086 3.18665e-06)
(-0.0251341 0.057222 -4.25241e-07)
(-0.044207 0.069811 -8.96663e-07)
(-0.0655952 0.0773873 -6.18444e-07)
(-0.0881631 0.0803544 -6.13529e-07)
(-0.110735 0.0789308 -5.99251e-07)
(-0.132085 0.0732461 -4.8019e-07)
(-0.150882 0.0635723 4.06499e-07)
(-0.165582 0.0506703 1.2639e-06)
(-0.00171667 0.0203891 -3.73098e-06)
(-0.00996913 0.0516933 3.26505e-06)
(-0.0254283 0.0746671 -4.55259e-07)
(-0.0447068 0.0903995 -9.80996e-07)
(-0.066288 0.0997658 -7.45186e-07)
(-0.0890321 0.103315 -7.72984e-07)
(-0.111765 0.101255 -8.56735e-07)
(-0.133237 0.0935897 -1.02841e-06)
(-0.152026 0.0804099 5.32823e-07)
(-0.166061 0.0623278 3.20171e-06)
(-0.0015857 0.0256525 -3.43764e-06)
(-0.00933562 0.0640124 3.13159e-06)
(-0.0239531 0.0917447 -4.15747e-07)
(-0.0422185 0.110555 -9.54401e-07)
(-0.0626477 0.121659 -7.79197e-07)
(-0.0841242 0.125763 -7.92914e-07)
(-0.105518 0.123061 -8.98125e-07)
(-0.125644 0.113362 -1.59546e-06)
(-0.143211 0.0963716 1.56231e-06)
(-0.155645 0.0719758 1.11541e-05)
(-0.00133048 0.0303716 -2.86622e-06)
(-0.00804891 0.0752054 2.8364e-06)
(-0.0208859 0.107346 -2.8814e-07)
(-0.0369732 0.128979 -8.00892e-07)
(-0.0548816 0.141608 -7.36282e-07)
(-0.0734911 0.146108 -8.01952e-07)
(-0.0916845 0.142707 -1.08237e-06)
(-0.10835 0.131055 -3.77407e-06)
(-0.122673 0.110385 -1.10796e-06)
(-0.132082 0.079052 2.5038e-05)
(-0.000989146 0.0342272 -2.08154e-06)
(-0.00629083 0.0845676 2.44931e-06)
(-0.0166328 0.120493 -4.96168e-08)
(-0.0296046 0.144448 -4.57005e-07)
(-0.0438044 0.158104 -4.89116e-07)
(-0.0579945 0.162472 -7.26347e-07)
(-0.0708649 0.157877 -1.55121e-06)
(-0.0810089 0.143962 -9.44412e-06)
(-0.088018 0.119783 -2.20355e-05)
(-0.0913066 0.0826888 7.44283e-06)
(0.000305246 -0.000308134 -2.75981e-08)
(1.07342e-05 0.000155453 -1.33272e-06)
(-0.00184913 0.000650292 -1.99552e-06)
(-0.00482342 0.000983477 -2.56451e-06)
(-0.00852186 0.00117211 -2.9027e-06)
(-0.0126063 0.00125284 -3.0414e-06)
(-0.0167965 0.00125281 -3.04847e-06)
(-0.0208572 0.00118562 -2.9265e-06)
(-0.0245808 0.00105835 -2.65564e-06)
(-0.0277918 0.000882567 -2.21809e-06)
(-0.000179047 -1.16981e-05 1.12568e-06)
(-0.00247589 0.00238891 -3.00181e-07)
(-0.00802939 0.00470695 1.17247e-06)
(-0.0158342 0.00637619 1.8471e-06)
(-0.0251664 0.00739311 2.18414e-06)
(-0.0353545 0.00784844 2.39621e-06)
(-0.0457648 0.00782804 2.40256e-06)
(-0.0558242 0.00739157 2.23339e-06)
(-0.0650204 0.00659399 1.95875e-06)
(-0.0729321 0.00552354 1.68963e-06)
(-0.000759903 0.00197302 1.94186e-06)
(-0.00516533 0.00805706 -1.74037e-06)
(-0.0141812 0.0134436 -7.90526e-08)
(-0.0261021 0.0173791 7.1979e-08)
(-0.0399612 0.0198262 -9.24642e-08)
(-0.0548968 0.0209133 -8.69135e-08)
(-0.0700485 0.0207824 -9.58227e-08)
(-0.0846032 0.0195555 -1.40644e-07)
(-0.0978121 0.0173791 -1.92412e-07)
(-0.109046 0.0145003 -1.17375e-07)
(-0.00122333 0.00536157 2.81158e-06)
(-0.00740168 0.0164804 -2.45018e-06)
(-0.019334 0.0256417 1.07627e-08)
(-0.0346036 0.0322444 2.15359e-07)
(-0.0520198 0.0363275 -6.93048e-08)
(-0.0705891 0.0380766 -1.02879e-07)
(-0.0892968 0.0376757 -1.34702e-07)
(-0.10715 0.0352933 -2.16084e-07)
(-0.123193 0.0311697 -3.68951e-07)
(-0.136578 0.0257521 -3.24025e-07)
(-0.00153969 0.00982464 3.42833e-06)
(-0.00899509 0.0270669 -2.87714e-06)
(-0.0230639 0.0405299 3.29363e-07)
(-0.0407643 0.0500437 7.08892e-07)
(-0.0607235 0.0558484 4.26093e-07)
(-0.0818555 0.0582229 4.05205e-07)
(-0.103041 0.0573776 3.60274e-07)
(-0.123146 0.0534909 2.09015e-07)
(-0.14102 0.0468622 -2.36077e-07)
(-0.155524 0.0381384 -4.55659e-07)
(-0.00170376 0.0149733 3.73068e-06)
(-0.00986146 0.039086 -3.18094e-06)
(-0.025134 0.057222 4.30129e-07)
(-0.044207 0.069811 9.00709e-07)
(-0.0655952 0.0773873 6.22221e-07)
(-0.0881631 0.0803544 6.16831e-07)
(-0.110735 0.0789308 6.01772e-07)
(-0.132085 0.0732461 4.82298e-07)
(-0.150882 0.0635723 -4.04516e-07)
(-0.165582 0.0506703 -1.26204e-06)
(-0.00171666 0.0203891 3.73657e-06)
(-0.00996912 0.0516932 -3.26e-06)
(-0.0254283 0.0746671 4.59826e-07)
(-0.0447068 0.0903995 9.84958e-07)
(-0.066288 0.0997658 7.48976e-07)
(-0.0890321 0.103315 7.76469e-07)
(-0.111765 0.101255 8.59569e-07)
(-0.133237 0.0935897 1.03079e-06)
(-0.152025 0.0804099 -5.30737e-07)
(-0.166061 0.0623278 -3.19992e-06)
(-0.0015857 0.0256525 3.4426e-06)
(-0.00933561 0.0640124 -3.1272e-06)
(-0.0239531 0.0917447 4.19779e-07)
(-0.0422185 0.110555 9.58008e-07)
(-0.0626477 0.121659 7.82794e-07)
(-0.0841242 0.125763 7.96357e-07)
(-0.105517 0.123061 9.01021e-07)
(-0.125644 0.113362 1.59781e-06)
(-0.143211 0.0963715 -1.5604e-06)
(-0.155645 0.0719757 -1.11526e-05)
(-0.00133048 0.0303716 2.87036e-06)
(-0.0080489 0.0752054 -2.83279e-06)
(-0.0208859 0.107346 2.91553e-07)
(-0.0369732 0.128979 8.0413e-07)
(-0.0548816 0.141608 7.3965e-07)
(-0.0734911 0.146108 8.05184e-07)
(-0.0916845 0.142707 1.08504e-06)
(-0.10835 0.131055 3.77613e-06)
(-0.122673 0.110385 1.10953e-06)
(-0.132082 0.079052 -2.50367e-05)
(-0.000989145 0.0342272 2.08489e-06)
(-0.00629083 0.0845676 -2.44632e-06)
(-0.0166328 0.120493 5.25989e-08)
(-0.0296046 0.144448 4.60094e-07)
(-0.0438043 0.158104 4.92351e-07)
(-0.0579945 0.162472 7.29309e-07)
(-0.0708649 0.157877 1.55353e-06)
(-0.0810089 0.143962 9.44586e-06)
(-0.088018 0.119783 2.20371e-05)
(-0.0913066 0.0826888 -7.44142e-06)
(0.000300318 -0.000303628 -5.03174e-07)
(3.67743e-06 0.000161318 -0.00021599)
(-0.00185283 0.000664199 -0.000439636)
(-0.004826 0.00100307 -0.00060353)
(-0.00852331 0.00119482 -0.000664208)
(-0.0126068 0.00127706 -0.000601554)
(-0.0167963 0.00127708 -0.000409449)
(-0.0208561 0.00120858 -8.8543e-05)
(-0.0245785 0.0010789 0.000355004)
(-0.0277885 0.000900082 0.000908183)
(-0.000186347 -4.41084e-06 0.00021421)
(-0.00247887 0.00239091 -5.80368e-06)
(-0.0080219 0.0047181 -0.000171336)
(-0.0158295 0.00639241 -0.000267917)
(-0.025164 0.00741112 -0.000277668)
(-0.0353538 0.00786726 -0.000184817)
(-0.0457657 0.00784673 1.71951e-05)
(-0.0558262 0.00740908 0.00033058)
(-0.0650224 0.00660947 0.000753833)
(-0.0729332 0.00553692 0.00128024)
(-0.000775772 0.00197854 0.000443042)
(-0.00517649 0.00805055 0.000152847)
(-0.0141743 0.0134405 -1.35226e-05)
(-0.0260999 0.0173758 -8.8727e-05)
(-0.0399611 0.019821 -8.12278e-05)
(-0.0548969 0.0209071 1.7807e-05)
(-0.0700493 0.0207757 0.000212594)
(-0.0846043 0.0195487 0.000506792)
(-0.0978122 0.0173722 0.000903292)
(-0.109044 0.0144946 0.00140149)
(-0.00124607 0.00536636 0.000596286)
(-0.00741787 0.0164764 0.00022107)
(-0.0193249 0.0256425 3.1107e-05)
(-0.0346017 0.032247 -4.61234e-05)
(-0.0520208 0.0363296 -4.07865e-05)
(-0.0705899 0.0380783 5.00527e-05)
(-0.0892981 0.0376769 0.000228943)
(-0.107151 0.0352935 0.000502104)
(-0.123193 0.0311678 0.000878586)
(-0.136573 0.0257499 0.00136633)
(-0.00156691 0.00982765 0.000600274)
(-0.00901345 0.0270646 0.000151368)
(-0.0230514 0.0405319 -6.3665e-05)
(-0.0407612 0.0500478 -0.000153128)
(-0.0607244 0.0558529 -0.000162926)
(-0.0818565 0.0582274 -9.35672e-05)
(-0.103043 0.057382 5.83467e-05)
(-0.12315 0.053494 0.000304445)
(-0.141022 0.0468609 0.000663724)
(-0.155516 0.0381349 0.00115945)
(-0.00173345 0.0149742 0.000406542)
(-0.00988083 0.0390846 -9.72241e-05)
(-0.0251193 0.057223 -0.000332981)
(-0.0442028 0.0698134 -0.000441802)
(-0.0655957 0.0773903 -0.000478939)
(-0.0881639 0.0803579 -0.000445678)
(-0.110738 0.0789349 -0.000334574)
(-0.132093 0.0732496 -0.00012476)
(-0.150889 0.0635678 0.000218246)
(-0.165567 0.0506584 0.000747806)
(-0.00174664 0.0203879 -8.10176e-06)
(-0.00998822 0.051693 -0.000545047)
(-0.0254124 0.0746672 -0.000794044)
(-0.0447018 0.0904002 -0.000927259)
(-0.0662878 0.0997673 -0.00100342)
(-0.0890322 0.103318 -0.00102257)
(-0.111767 0.101259 -0.000970257)
(-0.13325 0.0935944 -0.000812567)
(-0.152043 0.0803992 -0.000493719)
(-0.166032 0.0622897 0.000100163)
(-0.00161383 0.0256492 -0.000643765)
(-0.00935319 0.0640131 -0.00119233)
(-0.0239374 0.0917438 -0.00144587)
(-0.042213 0.110554 -0.001607)
(-0.0626468 0.121658 -0.00173321)
(-0.0841231 0.125764 -0.00182272)
(-0.105518 0.123066 -0.00185272)
(-0.125666 0.113378 -0.00177421)
(-0.143263 0.0963756 -0.0015094)
(-0.155598 0.0719152 -0.000828426)
(-0.00135495 0.0303665 -0.00147837)
(-0.00806397 0.0752065 -0.00201975)
(-0.0208717 0.107343 -0.00226898)
(-0.0369676 0.128975 -0.00245925)
(-0.0548795 0.141604 -0.00264356)
(-0.0734865 0.146104 -0.00281967)
(-0.0916734 0.14271 -0.00295716)
(-0.108367 0.131088 -0.00299131)
(-0.122778 0.11046 -0.00283402)
(-0.132034 0.0790824 -0.0020514)
(-0.00100873 0.0342212 -0.00247007)
(-0.00630298 0.0845689 -0.00299088)
(-0.0166217 0.120489 -0.00322717)
(-0.0296005 0.14444 -0.0034438)
(-0.0438029 0.158092 -0.00368814)
(-0.0579877 0.162449 -0.00396243)
(-0.0708317 0.157834 -0.00423819)
(-0.0809676 0.143898 -0.00444694)
(-0.0881064 0.119721 -0.00455724)
(-0.091228 0.0825711 -0.00395009)
(-0.0303746 0.000697412 -0.00155027)
(-0.0323232 0.000504811 -0.00225587)
(-0.0337103 0.000344994 -0.00300212)
(-0.034655 0.000225705 -0.00377187)
(-0.0352815 0.000144667 -0.00455375)
(-0.0356979 9.51639e-05 -0.00534116)
(-0.0359903 7.00111e-05 -0.00613097)
(-0.0362243 6.34754e-05 -0.00692245)
(-0.0364497 7.16437e-05 -0.00771667)
(-0.0367054 9.19346e-05 -0.0085163)
(-0.0370207 0.000122167 -0.00932559)
(-0.0374152 0.000159377 -0.0101506)
(-0.0378943 0.000198467 -0.0109991)
(-0.0384416 0.000230793 -0.0118804)
(-0.0390078 0.000242968 -0.0128047)
(-0.0394987 0.000216525 -0.0137809)
(-0.0397656 0.000129726 -0.0148143)
(-0.0396032 -3.68805e-05 -0.0159024)
(-0.0387686 -0.000294912 -0.0170295)
(-0.037027 -0.000632781 -0.0181641)
(-0.0793031 0.00434217 -0.00189595)
(-0.0841178 0.00320847 -0.00258112)
(-0.087574 0.00225774 -0.00331728)
(-0.0899612 0.00153383 -0.00408917)
(-0.0915739 0.00102724 -0.00488506)
(-0.092667 0.000703298 -0.00569678)
(-0.0934429 0.000522668 -0.0065192)
(-0.0940551 0.000451518 -0.00734971)
(-0.0946182 0.000463907 -0.00818778)
(-0.0952164 0.000539597 -0.00903467)
(-0.0959082 0.000659517 -0.00989332)
(-0.0967237 0.00080003 -0.0107682)
(-0.0976567 0.000926702 -0.0116653)
(-0.0986484 0.000988435 -0.0125913)
(-0.0995674 0.000913641 -0.0135532)
(-0.100187 0.000611532 -0.0145566)
(-0.100169 -1.67249e-05 -0.0156037)
(-0.0990741 -0.00105262 -0.01669)
(-0.0963958 -0.00252243 -0.0178016)
(-0.0916602 -0.0043451 -0.0189114)
(-0.117924 0.0113247 -0.00199199)
(-0.12448 0.00835124 -0.00265455)
(-0.12908 0.00588082 -0.00337169)
(-0.132197 0.0040103 -0.00412878)
(-0.134271 0.00270223 -0.00491395)
(-0.135661 0.00186018 -0.00571844)
(-0.136636 0.00137934 -0.00653639)
(-0.137392 0.00117023 -0.00736433)
(-0.13807 0.00116316 -0.00820086)
(-0.138769 0.00130225 -0.00904632)
(-0.139553 0.00153434 -0.00990253)
(-0.140451 0.00179558 -0.0107727)
(-0.141446 0.00199729 -0.0116613)
(-0.142456 0.00201325 -0.0125734)
(-0.143313 0.00167221 -0.0135145)
(-0.143726 0.000762476 -0.0144896)
(-0.143268 -0.000941304 -0.0155013)
(-0.141365 -0.0036209 -0.0165478)
(-0.137341 -0.00732024 -0.0176198)
(-0.130531 -0.0118324 -0.0186969)
(-0.146763 0.0198302 -0.00195968)
(-0.153896 0.0143941 -0.00262876)
(-0.158627 0.00998934 -0.00335307)
(-0.161668 0.00672944 -0.00411695)
(-0.163597 0.00449086 -0.00490778)
(-0.164837 0.00306618 -0.00571663)
(-0.165677 0.00225249 -0.00653763)
(-0.166308 0.0018858 -0.00736726)
(-0.166859 0.00184271 -0.00820383)
(-0.167418 0.00202663 -0.0090471)
(-0.168036 0.00234786 -0.00989804)
(-0.168739 0.00270096 -0.0107587)
(-0.169509 0.00294161 -0.0116321)
(-0.170276 0.0028652 -0.0125221)
(-0.170888 0.00219252 -0.0134337)
(-0.17107 0.000572878 -0.0143724)
(-0.17039 -0.00237812 -0.0153436)
(-0.168223 -0.00698939 -0.0163512)
(-0.163753 -0.0133766 -0.0173946)
(-0.156066 -0.0212276 -0.0184638)
(-0.165837 0.0286363 -0.00179227)
(-0.172313 0.0201948 -0.00250283)
(-0.17611 0.0136315 -0.00326345)
(-0.178261 0.00895921 -0.00405684)
(-0.179462 0.00585457 -0.00486982)
(-0.180144 0.00392716 -0.00569433)
(-0.180556 0.00284158 -0.00652573)
(-0.180839 0.00234831 -0.00736143)
(-0.181073 0.00227104 -0.00820016)
(-0.181307 0.00247912 -0.00904152)
(-0.181572 0.00285651 -0.00988573)
(-0.181883 0.00326984 -0.0107336)
(-0.182241 0.00353614 -0.0115867)
(-0.182617 0.00339101 -0.0124474)
(-0.182928 0.00246192 -0.0133198)
(-0.182996 0.000258081 -0.0142105)
(-0.182482 -0.00379912 -0.0151286)
(-0.180801 -0.0102682 -0.0160865)
(-0.177031 -0.01947 -0.0170968)
(-0.169888 -0.0311176 -0.0181695)
(-0.174776 0.0365366 -0.00148298)
(-0.179211 0.0245989 -0.00228435)
(-0.180972 0.0158887 -0.00311553)
(-0.181493 0.0100434 -0.00396151)
(-0.181507 0.00634944 -0.00481112)
(-0.181353 0.0041452 -0.00565999)
(-0.181167 0.0029378 -0.00650683)
(-0.180986 0.00239659 -0.00735138)
(-0.180813 0.00230714 -0.00819357)
(-0.18064 0.00252271 -0.00903325)
(-0.180464 0.0029213 -0.00987001)
(-0.180291 0.00336647 -0.0107033)
(-0.18014 0.0036681 -0.0115329)
(-0.180043 0.0035403 -0.012359)
(-0.18003 0.00255689 -0.0131843)
(-0.180094 0.000111338 -0.0140151)
(-0.180102 -0.00459308 -0.0148647)
(-0.179655 -0.0124573 -0.0157548)
(-0.177848 -0.0242501 -0.0167162)
(-0.172903 -0.0400395 -0.0177977)
(-0.172663 0.0420557 -0.00105188)
(-0.17342 0.026292 -0.00201176)
(-0.172096 0.0158713 -0.00294769)
(-0.17048 0.00946447 -0.00386261)
(-0.169109 0.00570188 -0.00475499)
(-0.168075 0.00358435 -0.00562961)
(-0.167309 0.00247489 -0.00649159)
(-0.166706 0.00199561 -0.00734429)
(-0.166172 0.00192639 -0.00818943)
(-0.165636 0.0021315 -0.00902721)
(-0.165057 0.00250811 -0.00985659)
(-0.164424 0.00294538 -0.0106755)
(-0.163766 0.00328456 -0.0114811)
(-0.163169 0.0032717 -0.0122712)
(-0.162782 0.00249579 -0.0130448)
(-0.162812 0.000306049 -0.0138062)
(-0.163451 -0.00427779 -0.014571)
(-0.164713 -0.0125844 -0.0153687)
(-0.166039 -0.026176 -0.0162523)
(-0.165209 -0.0461881 -0.0173419)
(-0.157524 0.0430474 -0.000555514)
(-0.152678 0.0236907 -0.00175647)
(-0.147607 0.0128368 -0.00281873)
(-0.143912 0.00700778 -0.00380269)
(-0.141434 0.00393651 -0.00472931)
(-0.139814 0.00235133 -0.00562038)
(-0.138723 0.00157566 -0.00649035)
(-0.137909 0.00126361 -0.00734661)
(-0.137198 0.00123908 -0.00819229)
(-0.136474 0.0014072 -0.00902761)
(-0.135662 0.00170504 -0.00985054)
(-0.134731 0.00206864 -0.0106571)
(-0.133701 0.00240226 -0.011442)
(-0.13267 0.00253827 -0.0121989)
(-0.131858 0.00217251 -0.0129221)
(-0.13165 0.000749885 -0.0136109)
(-0.132587 -0.0027239 -0.0142801)
(-0.135347 -0.0099082 -0.014962)
(-0.140403 -0.0234683 -0.0157256)
(-0.145839 -0.0470153 -0.016802)
(-0.124965 0.0370144 -0.000281124)
(-0.112801 0.0158893 -0.00174883)
(-0.104705 0.00701255 -0.00285716)
(-0.100192 0.00325142 -0.00384788)
(-0.0976238 0.00161198 -0.00476683)
(-0.0961172 0.00088837 -0.00564824)
(-0.0951712 0.000578578 -0.00651132)
(-0.0944859 0.000474966 -0.00736349)
(-0.0938806 0.000491739 -0.00820679)
(-0.0932389 0.000592168 -0.00904006)
(-0.0924826 0.000757584 -0.00985963)
(-0.0915644 0.000971471 -0.0106594)
(-0.0904759 0.00120632 -0.0114307)
(-0.0892738 0.00140412 -0.0121626)
(-0.0881343 0.00143643 -0.0128418)
(-0.0874427 0.00101365 -0.0134577)
(-0.0878718 -0.00053484 -0.0140181)
(-0.090712 -0.0048074 -0.0145283)
(-0.098408 -0.0153237 -0.015032)
(-0.112023 -0.0400037 -0.0159195)
(-0.0636643 0.0227038 -0.000925484)
(-0.0474823 0.00653803 -0.00238132)
(-0.0408648 0.0019891 -0.00313197)
(-0.0384749 0.000636156 -0.00387895)
(-0.0374421 0.000217126 -0.00464284)
(-0.0369178 8.92762e-05 -0.00541989)
(-0.0366076 5.52263e-05 -0.00620775)
(-0.0363743 5.46875e-05 -0.00700119)
(-0.0361452 7.09438e-05 -0.00779522)
(-0.035873 0.000100727 -0.0085849)
(-0.0355197 0.000144849 -0.00936415)
(-0.0350516 0.000205243 -0.0101246)
(-0.0344416 0.00028339 -0.0108543)
(-0.0336763 0.000377059 -0.0115359)
(-0.0327779 0.000470073 -0.0121447)
(-0.0318547 0.000501006 -0.0126455)
(-0.0312448 0.000248406 -0.0129918)
(-0.0318966 -0.00113371 -0.013148)
(-0.0374513 -0.00633703 -0.0129951)
(-0.0559038 -0.0253667 -0.0131593)
(-0.0303782 0.00068307 1.66779e-06)
(-0.0323263 0.000493698 1.16584e-06)
(-0.0337125 0.000336796 7.71151e-07)
(-0.0346565 0.000219862 4.8638e-07)
(-0.0352824 0.000140578 2.98155e-07)
(-0.0356983 9.22706e-05 1.84943e-07)
(-0.0359904 6.7841e-05 1.26064e-07)
(-0.0362242 6.16483e-05 1.05938e-07)
(-0.0364495 6.9864e-05 1.14051e-07)
(-0.0367051 8.99808e-05 1.43626e-07)
(-0.0370203 0.000119892 1.90215e-07)
(-0.0374147 0.000156725 2.48953e-07)
(-0.0378937 0.000195505 3.12257e-07)
(-0.038441 0.000227766 3.67879e-07)
(-0.0390074 0.000240362 3.9542e-07)
(-0.0394987 0.000215116 3.61772e-07)
(-0.0397664 0.00013056 2.24798e-07)
(-0.0396052 -3.26395e-05 -4.079e-08)
(-0.0387723 -0.000286024 -5.08969e-07)
(-0.0370325 -0.000618518 -1.21384e-06)
(-0.0793022 0.00433032 -1.49329e-06)
(-0.0841163 0.00319876 -1.2461e-06)
(-0.0875721 0.00225033 -9.84895e-07)
(-0.0899593 0.00152843 -7.51704e-07)
(-0.0915722 0.00102341 -5.61381e-07)
(-0.0926657 0.000700616 -4.21394e-07)
(-0.093442 0.000520732 -3.31443e-07)
(-0.0940546 0.00045 -2.85592e-07)
(-0.094618 0.000462544 -2.7541e-07)
(-0.0952164 0.000538187 -2.91705e-07)
(-0.0959082 0.00065791 -3.23174e-07)
(-0.0967235 0.000798136 -3.54771e-07)
(-0.0976561 0.000924515 -3.6622e-07)
(-0.0986472 0.000986077 -3.30566e-07)
(-0.0995651 0.000911424 -2.14597e-07)
(-0.100183 0.000610016 1.62077e-08)
(-0.100165 -1.67447e-05 3.85105e-07)
(-0.0990691 -0.00105016 8.82302e-07)
(-0.0963915 -0.00251646 1.47842e-06)
(-0.0916576 -0.00433554 2.03893e-06)
(-0.117926 0.0113268 -1.84864e-07)
(-0.12448 0.00835165 -3.21188e-07)
(-0.129079 0.0058808 -3.51715e-07)
(-0.132196 0.0040102 -3.34072e-07)
(-0.13427 0.00270224 -2.85214e-07)
(-0.13566 0.00186034 -2.27698e-07)
(-0.136635 0.00137968 -1.75732e-07)
(-0.137391 0.00117074 -1.34662e-07)
(-0.13807 0.00116385 -1.05044e-07)
(-0.138769 0.00130311 -8.49713e-08)
(-0.139553 0.00153535 -7.07684e-08)
(-0.140451 0.00179666 -5.81021e-08)
(-0.141445 0.00199831 -4.18376e-08)
(-0.142455 0.002014 -1.54804e-08)
(-0.143311 0.00167245 2.94941e-08)
(-0.143724 0.000761949 9.98234e-08)
(-0.143266 -0.000942864 1.91251e-07)
(-0.141362 -0.00362344 2.98167e-07)
(-0.13734 -0.00732363 4.07848e-07)
(-0.130533 -0.0118382 3.46665e-07)
(-0.146768 0.0198267 -2.916e-07)
(-0.153897 0.0143903 -4.70421e-07)
(-0.158626 0.00998683 -4.66929e-07)
(-0.161666 0.00672806 -4.15183e-07)
(-0.163596 0.00449034 -3.30436e-07)
(-0.164836 0.00306618 -2.44519e-07)
(-0.165675 0.00225278 -1.73426e-07)
(-0.166307 0.00188622 -1.19716e-07)
(-0.166859 0.00184318 -8.13761e-08)
(-0.167417 0.00202711 -5.55253e-08)
(-0.168036 0.0023483 -3.87972e-08)
(-0.168738 0.0027013 -2.81025e-08)
(-0.169508 0.00294176 -2.0751e-08)
(-0.170276 0.00286506 -1.24257e-08)
(-0.170887 0.00219206 8.19647e-09)
(-0.171069 0.000572191 5.30071e-08)
(-0.170388 -0.00237889 1.05878e-07)
(-0.16822 -0.00698936 2.05731e-07)
(-0.163753 -0.0133743 3.96058e-07)
(-0.156072 -0.0212249 3.48916e-07)
(-0.165846 0.0286275 -7.9433e-07)
(-0.172312 0.0201873 -8.89433e-07)
(-0.176107 0.0136279 -7.1953e-07)
(-0.178257 0.00895789 -5.62653e-07)
(-0.179459 0.00585453 -3.96257e-07)
(-0.180142 0.00392772 -2.60453e-07)
(-0.180555 0.0028423 -1.66413e-07)
(-0.180838 0.002349 -1.05793e-07)
(-0.181072 0.00227162 -6.93184e-08)
(-0.181306 0.00247959 -4.98137e-08)
(-0.181571 0.00285684 -4.22903e-08)
(-0.181883 0.00327001 -4.3489e-08)
(-0.182241 0.0035361 -5.10832e-08)
(-0.182616 0.0033907 -6.01587e-08)
(-0.182927 0.00246137 -5.05626e-08)
(-0.182994 0.000257533 5.26176e-09)
(-0.182479 -0.00379919 5.60678e-08)
(-0.180795 -0.0102661 2.04287e-07)
(-0.177028 -0.0194615 6.94393e-07)
(-0.169898 -0.0311048 9.90043e-07)
(-0.174792 0.0365188 -1.70092e-06)
(-0.179206 0.0245868 -1.44772e-06)
(-0.180965 0.0158851 -9.04682e-07)
(-0.181488 0.0100432 -6.05708e-07)
(-0.181503 0.00635056 -3.56475e-07)
(-0.181351 0.00414664 -1.88036e-07)
(-0.181166 0.00293909 -9.32496e-08)
(-0.180985 0.00239761 -4.30634e-08)
(-0.180812 0.00230792 -1.85705e-08)
(-0.18064 0.00252331 -9.16219e-09)
(-0.180464 0.00292176 -9.61498e-09)
(-0.180291 0.00336679 -1.81329e-08)
(-0.18014 0.00366824 -3.48681e-08)
(-0.180043 0.00354019 -5.90068e-08)
(-0.180029 0.0025565 -7.24648e-08)
(-0.180092 0.000110986 -4.05718e-08)
(-0.180098 -0.00459257 -1.89744e-08)
(-0.179645 -0.0124535 1.1607e-07)
(-0.177838 -0.024234 1.19106e-06)
(-0.172919 -0.0400123 2.50782e-06)
(-0.172695 0.042031 -4.53114e-06)
(-0.173406 0.0262839 -2.98359e-06)
(-0.172081 0.0158749 -1.37487e-06)
(-0.170472 0.00946875 -7.16519e-07)
(-0.169104 0.00570537 -3.04397e-07)
(-0.168073 0.00358693 -9.379e-08)
(-0.167308 0.00247666 -1.1166e-08)
(-0.166706 0.00199686 1.58303e-08)
(-0.166171 0.00192736 1.912e-08)
(-0.165636 0.00213237 1.16088e-08)
(-0.165057 0.00250896 -2.42916e-09)
(-0.164424 0.00294624 -2.26594e-08)
(-0.163766 0.00328536 -5.00611e-08)
(-0.163169 0.00327223 -8.71789e-08)
(-0.162781 0.00249576 -1.16442e-07)
(-0.16281 0.000305449 -6.26511e-08)
(-0.163444 -0.00427933 7.39953e-08)
(-0.164693 -0.0125868 3.64994e-07)
(-0.166013 -0.0261646 2.871e-06)
(-0.165241 -0.046153 6.88795e-06)
(-0.157584 0.0430064 -7.70173e-06)
(-0.152647 0.0237008 -3.11826e-06)
(-0.147588 0.0128584 -6.28924e-07)
(-0.143907 0.00701994 -2.40364e-07)
(-0.141432 0.0039427 3.03632e-08)
(-0.139814 0.00235468 1.26124e-07)
(-0.138723 0.00157757 1.19336e-07)
(-0.137909 0.00126493 9.81044e-08)
(-0.137198 0.00124028 8.12342e-08)
(-0.136474 0.00140855 6.94034e-08)
(-0.135662 0.0017067 5.96844e-08)
(-0.134731 0.00207066 4.743e-08)
(-0.133701 0.00240454 2.54808e-08)
(-0.132671 0.0025404 -2.63727e-08)
(-0.131859 0.00217361 -1.02798e-07)
(-0.13165 0.000748454 -3.53564e-08)
(-0.132586 -0.00273234 9.60261e-08)
(-0.135326 -0.00993041 -3.50921e-07)
(-0.140358 -0.0234813 2.54254e-06)
(-0.145898 -0.0469599 1.10141e-05)
(-0.125038 0.0368192 -9.63006e-06)
(-0.112733 0.0158304 4.26231e-06)
(-0.104694 0.00700167 4.76026e-06)
(-0.100201 0.00324433 2.02593e-06)
(-0.0976292 0.00160672 1.04521e-06)
(-0.0961198 0.000885099 6.32844e-07)
(-0.0951725 0.000576436 3.96335e-07)
(-0.0944864 0.000473372 2.99074e-07)
(-0.0938805 0.000490357 2.86743e-07)
(-0.0932385 0.000590772 3.22507e-07)
(-0.0924821 0.000756028 3.87185e-07)
(-0.091564 0.000969706 4.64252e-07)
(-0.0904762 0.00120444 5.24686e-07)
(-0.0892754 0.00140248 4.93402e-07)
(-0.0881379 0.00143578 2.74264e-07)
(-0.0874514 0.00101496 -8.2011e-08)
(-0.0878906 -0.000531471 -1.2894e-06)
(-0.0907083 -0.00480015 -5.89878e-06)
(-0.098319 -0.01526 -7.97971e-06)
(-0.112075 -0.0397506 1.19482e-05)
(-0.0637063 0.0225599 -5.33963e-05)
(-0.0473246 0.00646987 -9.02567e-06)
(-0.0408203 0.00196167 -6.3829e-07)
(-0.0384707 0.000620683 -1.45111e-06)
(-0.0374392 0.000208131 -9.41557e-07)
(-0.0369157 8.42285e-05 -4.40306e-07)
(-0.0366067 5.21632e-05 -2.48071e-07)
(-0.036374 5.24643e-05 -1.75172e-07)
(-0.0361452 6.89293e-05 -1.54808e-07)
(-0.0358732 9.85415e-05 -1.70202e-07)
(-0.0355199 0.000142259 -2.10782e-07)
(-0.035052 0.000202156 -2.66236e-07)
(-0.0344419 0.000279935 -3.21988e-07)
(-0.0336763 0.000373817 -3.52247e-07)
(-0.0327768 0.000468376 -2.67642e-07)
(-0.0318537 0.000503063 1.73782e-07)
(-0.0312472 0.000257763 6.04891e-07)
(-0.0318552 -0.00111035 -1.95975e-06)
(-0.037238 -0.00626381 3.94117e-06)
(-0.0558911 -0.0251743 6.73334e-05)
(-0.0303782 0.000683069 -1.6671e-06)
(-0.0323263 0.000493698 -1.16532e-06)
(-0.0337125 0.000336795 -7.70686e-07)
(-0.0346565 0.000219862 -4.85914e-07)
(-0.0352823 0.000140578 -2.97676e-07)
(-0.0356983 9.22706e-05 -1.84491e-07)
(-0.0359904 6.78409e-05 -1.25713e-07)
(-0.0362242 6.16481e-05 -1.05733e-07)
(-0.0364495 6.98637e-05 -1.14107e-07)
(-0.0367051 8.99805e-05 -1.43919e-07)
(-0.0370202 0.000119892 -1.90496e-07)
(-0.0374146 0.000156724 -2.49127e-07)
(-0.0378937 0.000195505 -3.12408e-07)
(-0.0384409 0.000227766 -3.67967e-07)
(-0.0390074 0.000240362 -3.95331e-07)
(-0.0394987 0.000215116 -3.61391e-07)
(-0.0397664 0.00013056 -2.24011e-07)
(-0.0396052 -3.2639e-05 4.20268e-08)
(-0.0387723 -0.000286024 5.10658e-07)
(-0.0370324 -0.000618517 1.21599e-06)
(-0.0793021 0.00433031 1.49416e-06)
(-0.0841163 0.00319876 1.24679e-06)
(-0.087572 0.00225033 9.85498e-07)