/*--------------------------------*- C++ -*----------------------------------*\
| =========                 |                                                 |
| \\      /  F ield         | OpenFOAM: The Open Source CFD Toolbox           |
|  \\    /   O peration     | Version:  2.4.0                                 |
|   \\  /    A nd           | Web:      www.OpenFOAM.org                      |
|    \\/     M anipulation  |                                                 |
\*---------------------------------------------------------------------------*/
FoamFile
{
    version     2.0;
    format      ascii;
    class       volScalarField;
    location    "3.5";
    object      p;
}
// * * * * * * * * * * * * * * * * * * * * * * * * * * * * * * * * * * * * * //

dimensions      [0 2 -2 0 0 0 0];

internalField   nonuniform List<scalar> 
4800
(
6.34583e-08
-0.00159915
-0.00327866
-0.00452188
-0.00500474
-0.00457607
-0.00318881
-0.000846796
0.00240512
0.00647109
0.00159452
-3.61172e-05
-0.00122908
-0.00193811
-0.00203975
-0.00142399
-4.33068e-05
0.0021187
0.00505229
0.00871079
0.00331284
0.00110714
-9.36295e-05
-0.0006472
-0.000622745
3.82067e-05
0.00136717
0.00339123
0.00613226
0.00958695
0.00447521
0.00161403
0.000239065
-0.000329787
-0.000320647
0.000280943
0.00149507
0.00336736
0.00596405
0.00934184
0.00452957
0.00114839
-0.00041146
-0.00106962
-0.00116983
-0.000723711
0.000295171
0.00197129
0.00444321
0.00787505
0.00310935
-0.000581835
-0.00229359
-0.00309172
-0.003389
-0.00320349
-0.00247992
-0.00106784
0.00128538
0.0049561
3.71329e-05
-0.00372435
-0.00553281
-0.00650688
-0.00708519
-0.00727703
-0.00697784
-0.00594506
-0.00376577
0.000367679
-0.00469202
-0.00828269
-0.0101236
-0.0112983
-0.012236
-0.0129322
-0.0132232
-0.0127631
-0.0109627
-0.00616805
-0.0109116
-0.0141195
-0.0159275
-0.0173106
-0.0186642
-0.0199787
-0.0210375
-0.0213957
-0.0203678
-0.0147404
-0.0183077
-0.0209751
-0.0226864
-0.024256
-0.0260366
-0.0280483
-0.03009
-0.0317213
-0.0327013
-0.0283057
-1.14189e-06
-0.00162059
-0.00331032
-0.0045624
-0.00505055
-0.00462406
-0.00323693
-0.000893009
0.00236315
0.00643601
0.00161172
-4.10401e-05
-0.00121197
-0.00191079
-0.00200731
-0.00138833
-7.5256e-06
0.00215197
0.00508147
0.00873597
0.003343
0.00108083
-9.50679e-05
-0.000646314
-0.000624271
3.67893e-05
0.00136563
0.00338903
0.00612928
0.0095851
0.0045192
0.00157707
0.000239014
-0.000326712
-0.00032179
0.000279328
0.001493
0.00336408
0.00595848
0.00933693
0.00458336
0.00110494
-0.000406747
-0.00105914
-0.00116354
-0.000717696
0.000300547
0.00197442
0.00443966
0.00786821
0.00316765
-0.000629992
-0.00228739
-0.00307836
-0.00337976
-0.00319428
-0.0024709
-0.00106058
0.00127934
0.00493718
9.42102e-05
-0.00377393
-0.00552619
-0.00649226
-0.00707405
-0.00726542
-0.00696494
-0.00592955
-0.00377366
0.00031973
-0.00463817
-0.00833009
-0.0101175
-0.0112841
-0.0122243
-0.0129203
-0.0132097
-0.012739
-0.0109859
-0.00633484
-0.0108664
-0.0141624
-0.0159233
-0.0172987
-0.0186532
-0.0199667
-0.0210215
-0.0213393
-0.020351
-0.0151148
-0.0182749
-0.0210121
-0.0226857
-0.0242493
-0.0260293
-0.0280377
-0.0300673
-0.0315806
-0.0323723
-0.0284185
-1.14376e-06
-0.00162058
-0.00331032
-0.0045624
-0.00505055
-0.00462405
-0.00323693
-0.000893007
0.00236316
0.00643601
0.00161172
-4.10355e-05
-0.00121197
-0.0019108
-0.00200731
-0.00138833
-7.52418e-06
0.00215198
0.00508148
0.00873597
0.00334301
0.00108084
-9.50648e-05
-0.000646314
-0.000624272
3.67893e-05
0.00136563
0.00338903
0.00612929
0.00958511
0.00451921
0.00157707
0.000239017
-0.000326713
-0.000321791
0.000279328
0.00149301
0.00336408
0.00595848
0.00933694
0.00458336
0.00110494
-0.000406747
-0.00105914
-0.00116355
-0.000717694
0.00030055
0.00197442
0.00443967
0.00786821
0.00316766
-0.000629991
-0.00228739
-0.00307836
-0.00337976
-0.00319428
-0.0024709
-0.00106058
0.00127934
0.00493718
9.42111e-05
-0.00377393
-0.00552619
-0.00649226
-0.00707405
-0.00726542
-0.00696493
-0.00592954
-0.00377366
0.000319731
-0.00463817
-0.00833009
-0.0101175
-0.0112841
-0.0122243
-0.0129203
-0.0132097
-0.012739
-0.0109859
-0.00633484
-0.0108664
-0.0141624
-0.0159233
-0.0172987
-0.0186532
-0.0199667
-0.0210215
-0.0213393
-0.020351
-0.0151148
-0.0182749
-0.0210121
-0.0226857
-0.0242493
-0.0260293
-0.0280377
-0.0300673
-0.0315806
-0.0323723
-0.0284185
6.55738e-08
-0.00159912
-0.00327863
-0.00452186
-0.00500473
-0.00457605
-0.0031888
-0.000846784
0.00240513
0.0064711
0.00159452
-3.60991e-05
-0.00122907
-0.0019381
-0.00203973
-0.00142397
-4.32958e-05
0.00211871
0.0050523
0.0087108
0.00331285
0.00110716
-9.36141e-05
-0.000647187
-0.000622733
3.82168e-05
0.00136718
0.00339124
0.00613227
0.00958696
0.00447522
0.00161404
0.000239078
-0.000329776
-0.000320638
0.00028095
0.00149508
0.00336737
0.00596406
0.00934184
0.00452958
0.0011484
-0.00041145
-0.00106961
-0.00116983
-0.000723704
0.000295179
0.0019713
0.00444321
0.00787506
0.00310936
-0.000581826
-0.00229358
-0.00309171
-0.003389
-0.00320348
-0.00247992
-0.00106783
0.00128538
0.0049561
3.71418e-05
-0.00372435
-0.0055328
-0.00650687
-0.00708519
-0.00727702
-0.00697783
-0.00594506
-0.00376576
0.000367682
-0.00469201
-0.00828269
-0.0101236
-0.0112983
-0.012236
-0.0129322
-0.0132232
-0.0127631
-0.0109627
-0.00616805
-0.0109116
-0.0141195
-0.0159275
-0.0173106
-0.0186642
-0.0199787
-0.0210375
-0.0213957
-0.0203678
-0.0147404
-0.0183077
-0.0209751
-0.0226864
-0.024256
-0.0260366
-0.0280483
-0.03009
-0.0317213
-0.0327013
-0.0283057
0.0111982
0.0163992
0.0219048
0.0275874
0.0333621
0.0391796
0.0450161
0.050866
0.0567375
0.0626505
0.0686376
0.0747445
0.0810304
0.0875664
0.0944286
0.101686
0.109376
0.117483
0.125887
0.13435
0.0129975
0.0177745
0.022912
0.0283024
0.0338631
0.0395362
0.0452855
0.0510926
0.0569539
0.0628787
0.0688882
0.0750151
0.0813016
0.087797
0.0945515
0.101606
0.108977
0.116632
0.124473
0.132308
0.0136901
0.0183033
0.0233035
0.0285875
0.0340714
0.0396931
0.0454109
0.0512003
0.0570514
0.0629666
0.0689595
0.0750531
0.0812789
0.0876744
0.0942794
0.101129
0.108243
0.11561
0.123164
0.130759
0.0134605
0.0181182
0.0231691
0.0285018
0.0340267
0.0396803
0.0454208
0.051223
0.057075
0.0629751
0.0689305
0.0749557
0.0810725
0.0873096
0.0937016
0.100289
0.10711
0.114196
0.121542
0.129076
0.0122654
0.0172164
0.0225264
0.0280702
0.0337542
0.0395208
0.0453366
0.051183
0.0570511
0.062938
0.0688453
0.0747789
0.0807495
0.0867751
0.0928846
0.0991249
0.105563
0.112289
0.119394
0.12695
0.010055
0.015652
0.0214666
0.0273867
0.0333336
0.0392754
0.0452026
0.0511131
0.0570067
0.062882
0.0687361
0.0745652
0.0803666
0.0861433
0.0919124
0.0977212
0.103664
0.109898
0.11665
0.124266
0.00696074
0.0136921
0.0202608
0.0266762
0.0329308
0.0390581
0.0450946
0.0510643
0.0569795
0.0628418
0.0686432
0.0743687
0.0799988
0.0855155
0.0909134
0.0962233
0.101555
0.107123
0.113319
0.120998
0.0033975
0.0118636
0.0193401
0.0262474
0.0327471
0.0389927
0.045087
0.0510828
0.0570027
0.0628478
0.0686035
0.0742414
0.0797224
0.0850015
0.090038
0.0948267
0.0994721
0.1042
0.109532
0.11713
0.00141174
0.0118476
0.0196441
0.0265806
0.0330195
0.0391947
0.0452395
0.0512068
0.0571104
0.0629419
0.0686747
0.0742647
0.0796499
0.0847504
0.0894714
0.0937358
0.097594
0.101064
0.104499
0.110812
0.00596032
0.0171725
0.0228149
0.0283461
0.034009
0.0397673
0.045602
0.0514762
0.0573533
0.0631961
0.068959
0.0745785
0.0799639
0.0849846
0.0894542
0.0931106
0.0955997
0.0966281
0.0953929
0.096955
0.0111718
0.0163807
0.0218926
0.0275797
0.0333574
0.0391766
0.045014
0.0508643
0.0567356
0.0626482
0.0686345
0.0747405
0.0810254
0.0875604
0.0944222
0.10168
0.109372
0.117483
0.125895
0.134369
0.0130198
0.0177931
0.0229267
0.0283137
0.0338715
0.0395425
0.0452905
0.051097
0.0569581
0.0628832
0.0688932
0.0750205
0.0813072
0.0878021
0.0945548
0.101606
0.108971
0.116619
0.124451
0.132277
0.0136928
0.0183081
0.0233087
0.0285925
0.0340757
0.0396965
0.0454135
0.0512023
0.0570529
0.0629679
0.0689605
0.0750539
0.0812795
0.0876747
0.094279
0.101128
0.108241
0.115606
0.123158
0.130753
0.0134648
0.0181252
0.0231761
0.028508
0.0340317
0.039684
0.0454234
0.0512248
0.0570762
0.0629759
0.068931
0.0749561
0.0810729
0.0873098
0.0937015
0.100288
0.107109
0.114193
0.121536
0.129071
0.0122772
0.0172298
0.0225372
0.0280786
0.0337602
0.0395247
0.0453391
0.0511846
0.0570522
0.0629388
0.068846
0.0747796
0.0807503
0.086776
0.0928854
0.099125
0.105562
0.112286
0.119384
0.126935
0.0100804
0.0156737
0.0214802
0.0273958
0.033339
0.0392782
0.045204
0.0511138
0.0570069
0.0628821
0.0687362
0.0745655
0.0803671
0.0861442
0.0919136
0.0977219
0.103665
0.109896
0.116632
0.124228
0.00702826
0.0137367
0.0202815
0.0266869
0.0329354
0.0390596
0.0450947
0.0510641
0.0569793
0.0628416
0.0686432
0.074369
0.0799995
0.0855168
0.0909152
0.0962242
0.101554
0.107117
0.113276
0.120894
0.00351221
0.0119103
0.0193496
0.026251
0.0327467
0.0389908
0.0450852
0.0510814
0.0570014
0.0628468
0.0686026
0.0742407
0.079722
0.0850019
0.0900395
0.0948272
0.0994707
0.104206
0.109494
0.116965
0.00155508
0.0117841
0.019573
0.0265502
0.0330038
0.0391851
0.0452335
0.0512022
0.057106
0.0629369
0.0686687
0.0742576
0.0796419
0.0847428
0.0894671
0.0937369
0.0976131
0.101152
0.104619
0.110634
0.00680001
0.0173155
0.0228253
0.0283691
0.0340239
0.0397744
0.045606
0.0514791
0.0573558
0.0631989
0.0689625
0.0745829
0.0799691
0.0849904
0.0894586
0.093108
0.0955904
0.0966591
0.0953313
0.0958925
0.0111718
0.0163807
0.0218926
0.0275797
0.0333574
0.0391766
0.045014
0.0508643
0.0567356
0.0626482
0.0686345
0.0747405
0.0810254
0.0875604
0.0944222
0.10168
0.109372
0.117483
0.125895
0.134369
0.0130198
0.0177931
0.0229267
0.0283137
0.0338715
0.0395425
0.0452905
0.051097
0.0569581
0.0628832
0.0688932
0.0750205
0.0813072
0.0878021
0.0945548
0.101606
0.108971
0.116619
0.124451
0.132277
0.0136928
0.0183081
0.0233087
0.0285925
0.0340757
0.0396965
0.0454135
0.0512023
0.0570529
0.0629679
0.0689605
0.0750539
0.0812795
0.0876747
0.094279
0.101128
0.108241
0.115606
0.123158
0.130753
0.0134648
0.0181252
0.0231761
0.028508
0.0340317
0.039684
0.0454234
0.0512248
0.0570762
0.0629759
0.068931
0.0749561
0.0810729
0.0873098
0.0937015
0.100288
0.107109
0.114193
0.121536
0.129071
0.0122772
0.0172298
0.0225372
0.0280786
0.0337602
0.0395247
0.0453391
0.0511846
0.0570522
0.0629388
0.068846
0.0747796
0.0807503
0.086776
0.0928854
0.099125
0.105562
0.112286
0.119384
0.126935
0.0100804
0.0156737
0.0214802
0.0273958
0.033339
0.0392782
0.045204
0.0511138
0.0570069
0.0628821
0.0687362
0.0745655
0.0803671
0.0861442
0.0919136
0.0977219
0.103665
0.109896
0.116632
0.124228
0.00702826
0.0137367
0.0202815
0.0266869
0.0329354
0.0390596
0.0450947
0.0510641
0.0569793
0.0628416
0.0686432
0.074369
0.0799995
0.0855168
0.0909152
0.0962242
0.101554
0.107117
0.113276
0.120894
0.00351222
0.0119103
0.0193496
0.026251
0.0327467
0.0389908
0.0450852
0.0510814
0.0570014
0.0628468
0.0686026
0.0742407
0.079722
0.0850019
0.0900395
0.0948272
0.0994707
0.104206
0.109494
0.116965
0.00155508
0.0117841
0.019573
0.0265502
0.0330038
0.0391851
0.0452335
0.0512022
0.057106
0.0629369
0.0686687
0.0742576
0.0796419
0.0847428
0.0894671
0.0937369
0.0976131
0.101152
0.104619
0.110634
0.00680001
0.0173155
0.0228253
0.0283691
0.0340239
0.0397744
0.045606
0.0514791
0.0573558
0.0631989
0.0689625
0.0745829
0.0799691
0.0849904
0.0894586
0.093108
0.0955904
0.0966591
0.0953313
0.0958925
0.0111982
0.0163992
0.0219048
0.0275874
0.0333621
0.0391796
0.0450161
0.050866
0.0567375
0.0626505
0.0686376
0.0747445
0.0810304
0.0875664
0.0944286
0.101686
0.109376
0.117483
0.125887
0.13435
0.0129975
0.0177745
0.022912
0.0283024
0.0338631
0.0395362
0.0452855
0.0510926
0.0569539
0.0628787
0.0688882
0.0750151
0.0813016
0.087797
0.0945515
0.101606
0.108977
0.116632
0.124473
0.132308
0.0136901
0.0183033
0.0233035
0.0285876
0.0340714
0.0396931
0.0454109
0.0512003
0.0570514
0.0629666
0.0689595
0.0750531
0.0812789
0.0876744
0.0942794
0.101129
0.108243
0.11561
0.123164
0.130759
0.0134605
0.0181182
0.0231691
0.0285018
0.0340267
0.0396803
0.0454208
0.051223
0.057075
0.0629751
0.0689305
0.0749557
0.0810725
0.0873096
0.0937016
0.100289
0.10711
0.114196
0.121542
0.129076
0.0122654
0.0172164
0.0225264
0.0280702
0.0337542
0.0395208
0.0453366
0.051183
0.0570511
0.062938
0.0688453
0.0747789
0.0807495
0.0867751
0.0928846
0.0991249
0.105563
0.112289
0.119394
0.12695
0.010055
0.015652
0.0214666
0.0273867
0.0333337
0.0392754
0.0452026
0.0511131
0.0570067
0.062882
0.0687361
0.0745652
0.0803666
0.0861433
0.0919124
0.0977212
0.103664
0.109898
0.11665
0.124266
0.00696075
0.0136921
0.0202608
0.0266762
0.0329308
0.0390581
0.0450946
0.0510643
0.0569795
0.0628418
0.0686432
0.0743687
0.0799988
0.0855155
0.0909134
0.0962233
0.101555
0.107123
0.113319
0.120998
0.0033975
0.0118636
0.0193401
0.0262474
0.0327471
0.0389927
0.045087
0.0510828
0.0570027
0.0628478
0.0686035
0.0742414
0.0797224
0.0850015
0.090038
0.0948267
0.0994721
0.1042
0.109532
0.11713
0.00141175
0.0118476
0.0196441
0.0265806
0.0330195
0.0391947
0.0452395
0.0512068
0.0571104
0.0629419
0.0686747
0.0742647
0.0796499
0.0847504
0.0894714
0.0937358
0.097594
0.101064
0.104499
0.110812
0.00596033
0.0171725
0.0228149
0.0283461
0.034009
0.0397673
0.045602
0.0514762
0.0573533
0.0631961
0.068959
0.0745785
0.0799639
0.0849846
0.0894542
0.0931106
0.0955997
0.0966281
0.0953929
0.096955
0.142504
0.149902
0.156125
0.160857
0.163934
0.165358
0.165306
0.164144
0.162425
0.160829
0.139838
0.146695
0.152535
0.157096
0.160242
0.161975
0.162443
0.161937
0.160793
0.159228
0.138127
0.144888
0.150694
0.155287
0.15853
0.160415
0.161068
0.160736
0.1596
0.157548
0.136558
0.143504
0.149518
0.154313
0.157731
0.159757
0.160499
0.160183
0.158891
0.156305
0.134776
0.142149
0.148579
0.153733
0.157434
0.159657
0.160509
0.160209
0.158792
0.155823
0.132764
0.140833
0.147881
0.153539
0.157618
0.160104
0.161113
0.160873
0.159411
0.156255
0.130721
0.139771
0.147586
0.153836
0.158341
0.161124
0.16233
0.162207
0.160797
0.157647
0.129088
0.139409
0.148042
0.154865
0.159752
0.162801
0.164207
0.164238
0.162968
0.159998
0.128106
0.14043
0.149835
0.15704
0.162103
0.165276
0.16681
0.166989
0.165914
0.163265
0.132496
0.146044
0.154617
0.161165
0.165772
0.168711
0.170197
0.170458
0.169591
0.167353
0.142537
0.149948
0.156179
0.160916
0.163993
0.165412
0.16535
0.164174
0.162442
0.160828
0.139802
0.146653
0.152488
0.157047
0.160194
0.161932
0.162406
0.161911
0.160788
0.159207
0.138128
0.144892
0.1507
0.155294
0.158536
0.16042
0.161068
0.160734
0.159617
0.157516
0.136565
0.143516
0.149533
0.154328
0.157745
0.159768
0.160502
0.160184
0.158919
0.156264
0.134784
0.14216
0.148591
0.153745
0.157443
0.159664
0.160509
0.160208
0.158824
0.155777
0.132775
0.140845
0.147893
0.153551
0.157628
0.16011
0.161112
0.160872
0.159447
0.156207
0.130744
0.139787
0.1476
0.153849
0.15835
0.161129
0.162328
0.162205
0.160833
0.157599
0.129229
0.139465
0.148066
0.154881
0.159759
0.162805
0.164204
0.164236
0.163001
0.159952
0.128435
0.140447
0.149812
0.157032
0.162098
0.165273
0.166805
0.166986
0.165944
0.163223
0.132384
0.14567
0.154451
0.161117
0.165753
0.168705
0.170193
0.170456
0.169616
0.167318
0.142537
0.149948
0.156179
0.160916
0.163993
0.165412
0.16535
0.164174
0.162442
0.160828
0.139802
0.146653
0.152488
0.157047
0.160194
0.161932
0.162406
0.161911
0.160788
0.159207
0.138128
0.144892
0.1507
0.155294
0.158536
0.16042
0.161068
0.160734
0.159617
0.157516
0.136565
0.143516
0.149533
0.154328
0.157745
0.159768
0.160502
0.160184
0.158919
0.156264
0.134784
0.14216
0.148591
0.153745
0.157443
0.159664
0.160509
0.160208
0.158824
0.155777
0.132775
0.140845
0.147893
0.153551
0.157628
0.16011
0.161112
0.160872
0.159447
0.156207
0.130744
0.139787
0.1476
0.153849
0.15835
0.161129
0.162328
0.162205
0.160833
0.157599
0.129229
0.139465
0.148066
0.154881
0.159759
0.162805
0.164204
0.164236
0.163001
0.159952
0.128435
0.140447
0.149812
0.157032
0.162098
0.165273
0.166805
0.166986
0.165944
0.163223
0.132384
0.14567
0.154451
0.161117
0.165753
0.168705
0.170193
0.170456
0.169616
0.167318
0.142504
0.149902
0.156125
0.160857
0.163934
0.165358
0.165306
0.164144
0.162425
0.160829
0.139838
0.146695
0.152535
0.157096
0.160242
0.161975
0.162443
0.161937
0.160793
0.159228
0.138127
0.144888
0.150694
0.155287
0.15853
0.160415
0.161068
0.160736
0.1596
0.157548
0.136558
0.143504
0.149518
0.154313
0.157731
0.159757
0.160499
0.160183
0.158891
0.156305
0.134776
0.142149
0.148579
0.153733
0.157434
0.159657
0.160509
0.160209
0.158792
0.155823
0.132764
0.140833
0.147881
0.153539
0.157618
0.160104
0.161113
0.160873
0.159411
0.156255
0.130721
0.139771
0.147586
0.153836
0.158341
0.161124
0.16233
0.162207
0.160797
0.157647
0.129088
0.139409
0.148042
0.154865
0.159752
0.162801
0.164207
0.164238
0.162968
0.159998
0.128106
0.14043
0.149835
0.15704
0.162103
0.165276
0.16681
0.166989
0.165914
0.163265
0.132496
0.146044
0.154617
0.161165
0.165772
0.168711
0.170197
0.170458
0.169591
0.167353
0.166714
0.162165
0.164161
0.167745
0.170867
0.173106
0.174328
0.17458
0.173903
0.172111
0.177865
0.172559
0.172599
0.17446
0.176459
0.178063
0.179001
0.179216
0.178711
0.177355
0.183443
0.18031
0.180044
0.181011
0.182268
0.183379
0.184068
0.184243
0.183887
0.182917
0.188901
0.187201
0.186922
0.187409
0.188183
0.188928
0.189416
0.189553
0.189318
0.188666
0.194487
0.1936
0.1934
0.193652
0.194126
0.194615
0.194952
0.195057
0.194916
0.194514
0.200175
0.199753
0.199643
0.199782
0.200069
0.20038
0.200603
0.200681
0.200609
0.200399
0.205967
0.205813
0.205771
0.205845
0.206006
0.206186
0.206318
0.206367
0.206343
0.206278
0.21185
0.211872
0.211863
0.211884
0.211942
0.212008
0.212053
0.212064
0.212065
0.212114
0.217852
0.217982
0.217979
0.217933
0.217882
0.217828
0.217774
0.217729
0.217731
0.217863
0.224011
0.224202
0.224168
0.224025
0.223836
0.223633
0.223449
0.223317
0.223292
0.223473
0.230393
0.230594
0.23048
0.230189
0.229811
0.229408
0.229048
0.228786
0.228693
0.228882
0.23709
0.237225
0.236961
0.236453
0.235813
0.235142
0.234541
0.234093
0.233878
0.234013
0.24422
0.244163
0.243653
0.242835
0.241844
0.24082
0.239904
0.239201
0.238795
0.23878
0.251925
0.251469
0.250577
0.249339
0.247898
0.246433
0.245121
0.244088
0.243402
0.243101
0.260387
0.259153
0.257709
0.255934
0.253949
0.25197
0.250196
0.24876
0.24769
0.246903
0.269714
0.267184
0.264935
0.262511
0.259928
0.257414
0.255155
0.253265
0.251692
0.250174
0.279967
0.275229
0.27191
0.268804
0.265676
0.262719
0.260051
0.257716
0.255527
0.252958
0.290822
0.282529
0.277931
0.274292
0.270875
0.267775
0.264949
0.262299
0.259426
0.255428
0.302264
0.288096
0.281827
0.278029
0.274914
0.272318
0.269892
0.26728
0.263763
0.257931
0.31327
0.288356
0.2804
0.277847
0.276535
0.275779
0.274835
0.273001
0.269107
0.261071
0.167553
0.162308
0.164276
0.167813
0.170892
0.173118
0.174332
0.174582
0.173925
0.172085
0.178008
0.172496
0.172646
0.174505
0.176481
0.178076
0.179008
0.179221
0.17873
0.177337
0.183453
0.18024
0.180054
0.181032
0.182282
0.183389
0.184075
0.184248
0.183901
0.182905
0.188924
0.187171
0.186926
0.18742
0.188192
0.188936
0.189423
0.189558
0.189328
0.188659
0.194501
0.193586
0.1934
0.193657
0.194131
0.194621
0.194957
0.195061
0.194922
0.19451
0.20018
0.199746
0.199642
0.199783
0.200072
0.200384
0.200607
0.200684
0.200613
0.200398
0.205968
0.205811
0.20577
0.205846
0.206008
0.206189
0.20632
0.206368
0.206344
0.206278
0.211849
0.211873
0.211863
0.211884
0.211942
0.212009
0.212054
0.212065
0.212064
0.212116
0.21785
0.217985
0.217978
0.217933
0.217882
0.217829
0.217775
0.217729
0.217729
0.217865
0.224008
0.224206
0.224168
0.224025
0.223836
0.223633
0.22345
0.223317
0.223288
0.223477
0.230388
0.230599
0.23048
0.230188
0.22981
0.229408
0.229049
0.228786
0.228688
0.228886
0.237084
0.237229
0.23696
0.236451
0.235812
0.235141
0.234541
0.234093
0.233874
0.234018
0.244214
0.244165
0.24365
0.242833
0.241843
0.240819
0.239904
0.239202
0.238793
0.238785
0.251921
0.251464
0.250573
0.249336
0.247896
0.246432
0.245121
0.24409
0.243404
0.243105
0.260386
0.259134
0.257703
0.25593
0.253945
0.251969
0.250196
0.248763
0.2477
0.246905
0.269727
0.267146
0.264927
0.262508
0.259924
0.257412
0.255155
0.25327
0.251713
0.250169
0.280019
0.27516
0.271904
0.268803
0.26567
0.262717
0.260051
0.257724
0.255567
0.252944
0.290888
0.282355
0.277907
0.27429
0.270867
0.267774
0.264951
0.262312
0.25949
0.255399
0.30238
0.287772
0.281832
0.278072
0.274929
0.27233
0.2699
0.267301
0.263861
0.257882
0.314601
0.288464
0.280695
0.278031
0.276603
0.275813
0.274851
0.273031
0.269249
0.260995
0.167553
0.162308
0.164276
0.167813
0.170892
0.173118
0.174332
0.174582
0.173925
0.172085
0.178008
0.172496
0.172646
0.174505
0.176481
0.178076
0.179008
0.179221
0.17873
0.177337
0.183453
0.18024
0.180054
0.181032
0.182282
0.183389
0.184075
0.184248
0.183901
0.182905
0.188924
0.187171
0.186926
0.18742
0.188192
0.188936
0.189423
0.189558
0.189328
0.188659
0.194501
0.193586
0.1934
0.193657
0.194131
0.194621
0.194957
0.195061
0.194922
0.19451
0.20018
0.199746
0.199642
0.199783
0.200072
0.200384
0.200607
0.200684
0.200613
0.200398
0.205968
0.205811
0.20577
0.205846
0.206008
0.206189
0.20632
0.206368
0.206344
0.206278
0.211849
0.211873
0.211863
0.211884
0.211942
0.212009
0.212054
0.212065
0.212064
0.212116
0.21785
0.217985
0.217978
0.217933
0.217882
0.217829
0.217775
0.217729
0.217729
0.217865
0.224008
0.224206
0.224168
0.224025
0.223836
0.223633
0.22345
0.223317
0.223288
0.223477
0.230388
0.230599
0.23048
0.230188
0.22981
0.229408
0.229049
0.228786
0.228688
0.228886
0.237084
0.237229
0.23696
0.236451
0.235812
0.235141
0.234541
0.234093
0.233874
0.234018
0.244214
0.244165
0.24365
0.242833
0.241843
0.240819
0.239904
0.239202
0.238793
0.238785
0.251921
0.251464
0.250573
0.249336
0.247896
0.246432
0.245121
0.24409
0.243404
0.243105
0.260386
0.259134
0.257703
0.25593
0.253945
0.251969
0.250196
0.248763
0.2477
0.246905
0.269727
0.267146
0.264927
0.262508
0.259924
0.257412
0.255155
0.25327
0.251713
0.250169
0.280019
0.27516
0.271904
0.268803
0.26567
0.262717
0.260051
0.257724
0.255567
0.252944
0.290888
0.282355
0.277907
0.27429
0.270867
0.267774
0.264951
0.262312
0.25949
0.255399
0.30238
0.287772
0.281832
0.278072
0.274929
0.27233
0.2699
0.267301
0.263861
0.257882
0.314601
0.288464
0.280695
0.278031
0.276603
0.275813
0.274851
0.273031
0.269249
0.260995
0.166714
0.162165
0.164161
0.167745
0.170867
0.173106
0.174328
0.17458
0.173903
0.172111
0.177865
0.172559
0.172599
0.17446
0.176459
0.178063
0.179001
0.179216
0.178711
0.177355
0.183443
0.18031
0.180044
0.181011
0.182268
0.183379
0.184068
0.184243
0.183887
0.182917
0.188901
0.187201
0.186922
0.187409
0.188183
0.188928
0.189416
0.189553
0.189318
0.188666
0.194487
0.1936
0.1934
0.193652
0.194126
0.194615
0.194952
0.195057
0.194916
0.194514
0.200175
0.199753
0.199643
0.199782
0.200069
0.20038
0.200603
0.200681
0.200609
0.200399
0.205967
0.205813
0.205771
0.205845
0.206006
0.206186
0.206318
0.206367
0.206343
0.206278
0.21185
0.211872
0.211863
0.211884
0.211942
0.212008
0.212053
0.212064
0.212065
0.212114
0.217852
0.217982
0.217979
0.217933
0.217882
0.217828
0.217774
0.217729
0.217731
0.217863
0.224011
0.224202
0.224168
0.224025
0.223836
0.223633
0.223449
0.223317
0.223292
0.223473
0.230393
0.230594
0.23048
0.230189
0.229811
0.229408
0.229048
0.228786
0.228693
0.228882
0.23709
0.237225
0.236961
0.236453
0.235813
0.235142
0.234541
0.234093
0.233878
0.234013
0.24422
0.244163
0.243653
0.242835
0.241844
0.24082
0.239904
0.239201
0.238795
0.23878
0.251925
0.251469
0.250577
0.249339
0.247898
0.246433
0.245121
0.244088
0.243402
0.243101
0.260387
0.259153
0.257709
0.255934
0.253949
0.25197
0.250196
0.24876
0.24769
0.246903
0.269714
0.267184
0.264935
0.262511
0.259928
0.257414
0.255155
0.253265
0.251692
0.250174
0.279967
0.275229
0.27191
0.268804
0.265676
0.262719
0.260051
0.257716
0.255527
0.252958
0.290822
0.282529
0.277931
0.274292
0.270875
0.267775
0.264949
0.262299
0.259426
0.255428
0.302264
0.288096
0.281827
0.278029
0.274914
0.272318
0.269892
0.26728
0.263763
0.257931
0.31327
0.288356
0.2804
0.277847
0.276535
0.275779
0.274835
0.273001
0.269107
0.261071
0.252799
0.261412
0.266649
0.270751
0.274312
0.277559
0.279772
0.279952
0.27631
0.265837
0.223675
0.23949
0.250718
0.260269
0.269354
0.278008
0.285087
0.288922
0.286641
0.273799
0.206201
0.221529
0.234891
0.248395
0.26286
0.277836
0.291487
0.301068
0.301934
0.287415
0.192692
0.206531
0.220729
0.237158
0.256601
0.27843
0.300283
0.318152
0.324885
0.310629
0.182864
0.19552
0.210198
0.228963
0.252968
0.281931
0.313527
0.34275
0.35947
0.349903
0.176967
0.189312
0.204822
0.22591
0.254363
0.290758
0.333697
0.378154
0.411277
0.415345
0.174816
0.187906
0.205007
0.228908
0.262153
0.306613
0.362856
0.427573
0.486807
0.521275
0.175524
0.190094
0.209355
0.236488
0.274949
0.32838
0.400445
0.491223
0.59101
0.694864
0.177462
0.193154
0.213853
0.243034
0.285115
0.345993
0.433977
0.557296
0.726132
1.00598
0.178819
0.194017
0.21353
0.240731
0.280313
0.339628
0.432668
0.586957
0.873316
1.49043
0.253139
0.260948
0.266522
0.27074
0.27431
0.277568
0.279777
0.279985
0.276506
0.265725
0.224095
0.239416
0.250653
0.260235
0.269332
0.278002
0.285079
0.288959
0.286904
0.273646
0.206456
0.221546
0.234859
0.248353
0.26282
0.277808
0.291456
0.301101
0.302274
0.28722
0.192782
0.206515
0.220676
0.23709
0.256527
0.278363
0.300209
0.318168
0.325295
0.31039
0.18289
0.195487
0.210127
0.228866
0.252853
0.281808
0.313388
0.342726
0.359903
0.349648
0.176975
0.189275
0.204742
0.22579
0.254204
0.290559
0.333454
0.378036
0.411632
0.415297
0.174831
0.187884
0.204939
0.228785
0.261956
0.3063
0.362424
0.427238
0.486784
0.521765
0.175568
0.190128
0.209376
0.236488
0.274897
0.328179
0.400067
0.490876
0.589712
0.694545
0.17753
0.193266
0.214037
0.243324
0.285546
0.346553
0.434719
0.557898
0.7229
1.00369
0.17887
0.194056
0.213548
0.240734
0.280325
0.339702
0.433025
0.587391
0.869627
1.49969
0.253139
0.260948
0.266522
0.27074
0.27431
0.277568
0.279777
0.279985
0.276506
0.265725
0.224095
0.239416
0.250653
0.260235
0.269332
0.278002
0.285079
0.288959
0.286904
0.273646
0.206456
0.221546
0.234859
0.248353
0.26282
0.277808
0.291456
0.301101
0.302274
0.28722
0.192782
0.206515
0.220676
0.23709
0.256527
0.278363
0.300209
0.318168
0.325295
0.31039
0.18289
0.195487
0.210127
0.228866
0.252853
0.281808
0.313388
0.342726
0.359903
0.349648
0.176975
0.189275
0.204742
0.22579
0.254204
0.290559
0.333454
0.378036
0.411632
0.415297
0.174831
0.187884
0.204939
0.228785
0.261956
0.3063
0.362424
0.427238
0.486784
0.521765
0.175568
0.190128
0.209376
0.236488
0.274897
0.328179
0.400067
0.490876
0.589712
0.694545
0.17753
0.193266
0.214037
0.243324
0.285546
0.346553
0.434719
0.557898
0.7229
1.00369
0.17887
0.194056
0.213548
0.240734
0.280325
0.339702
0.433025
0.587391
0.869627
1.49969
0.252799
0.261412
0.266649
0.270751
0.274312
0.277559
0.279773
0.279952
0.27631
0.265837
0.223675
0.23949
0.250718
0.260269
0.269354
0.278008
0.285087
0.288922
0.286641
0.273799
0.206201
0.221529
0.234891
0.248395
0.26286
0.277836
0.291487
0.301068
0.301934
0.287415
0.192692
0.206531
0.220729
0.237159
0.256601
0.27843
0.300283
0.318152
0.324885
0.310629
0.182864
0.19552
0.210198
0.228963
0.252968
0.281931
0.313527
0.34275
0.35947
0.349903
0.176967
0.189312
0.204822
0.22591
0.254363
0.290758
0.333697
0.378154
0.411277
0.415345
0.174816
0.187906
0.205007
0.228908
0.262153
0.306613
0.362856
0.427573
0.486807
0.521275
0.175524
0.190094
0.209355
0.236488
0.274949
0.32838
0.400445
0.491223
0.59101
0.694864
0.177462
0.193154
0.213853
0.243034
0.285115
0.345993
0.433977
0.557296
0.726132
1.00598
0.178819
0.194017
0.21353
0.240731
0.280313
0.339628
0.432668
0.586957
0.873316
1.49043
-0.153695
-0.133032
-0.114995
-0.0983581
-0.0817442
-0.0649461
-0.0479559
-0.0308088
-0.0135655
0.0037028
0.0209197
0.038013
0.0549165
0.0715813
0.0880339
0.104462
0.121349
0.139734
0.162917
0.200676
-0.139746
-0.126264
-0.111744
-0.0964947
-0.0805654
-0.0641663
-0.0474324
-0.0304608
-0.0133359
0.00386766
0.0210846
0.0382563
0.0553432
0.0723485
0.0893441
0.106536
0.124322
0.143324
0.165052
0.192958
-0.136542
-0.124548
-0.110848
-0.0959909
-0.0802962
-0.0640282
-0.0473599
-0.0304134
-0.0132826
0.00395768
0.0212467
0.0385353
0.0557903
0.073005
0.090218
0.107546
0.125202
0.14348
0.162936
0.184472
-0.137736
-0.125433
-0.111555
-0.0965639
-0.0807655
-0.0644005
-0.0476381
-0.0305985
-0.0133698
0.00398154
0.0214023
0.0388473
0.0562763
0.0736537
0.0909524
0.10816
0.125279
0.142309
0.159307
0.176377
-0.140435
-0.127456
-0.113088
-0.0977162
-0.0816248
-0.0650298
-0.0480827
-0.0308883
-0.0135196
0.00396992
0.0215364
0.0391364
0.0567173
0.0742083
0.0915119
0.108497
0.124991
0.14079
0.155722
0.169748
-0.142869
-0.129272
-0.114435
-0.0987009
-0.0823333
-0.065528
-0.0484184
-0.0310932
-0.0136116
0.00398376
0.0216548
0.0393559
0.0570202
0.0745445
0.0917746
0.108502
0.124446
0.13932
0.152913
0.165287
-0.143376
-0.129538
-0.114566
-0.0987523
-0.0823381
-0.065504
-0.0483743
-0.0310314
-0.0135307
0.00408645
0.0217799
0.0394967
0.0571561
0.0746325
0.0917415
0.108235
0.123816
0.1382
0.151249
0.163178
-0.141078
-0.127597
-0.113007
-0.0975426
-0.0814214
-0.0648197
-0.0478671
-0.030656
-0.0132524
0.00429108
0.0219231
0.0395783
0.0571636
0.0745424
0.0915233
0.107862
0.123289
0.137584
0.150711
0.163031
-0.135986
-0.123639
-0.110024
-0.09535
-0.0798412
-0.0636977
-0.0470802
-0.0301109
-0.0128823
0.00453181
0.0220647
0.0396355
0.0571422
0.0744466
0.0913643
0.107671
0.123135
0.137591
0.151075
0.164016
-0.127734
-0.117681
-0.105824
-0.092451
-0.0778771
-0.062389
-0.0462221
-0.0295584
-0.0125352
0.00474187
0.0221826
0.0397051
0.0572063
0.0745506
0.0915637
0.108033
0.123732
0.138484
0.152277
0.165435
-0.154077
-0.132915
-0.11498
-0.0983804
-0.0817569
-0.0649537
-0.0479612
-0.0308122
-0.0135673
0.00370243
0.0209202
0.0380138
0.0549164
0.0715783
0.0880242
0.104442
0.121326
0.139685
0.162587
0.200075
-0.139689
-0.126093
-0.111667
-0.0964578
-0.080539
-0.0641478
-0.0474198
-0.0304523
-0.0133304
0.00387106
0.021087
0.0382591
0.0553485
0.0723594
0.0893633
0.106568
0.124382
0.143395
0.164952
0.192701
-0.136602
-0.124522
-0.110824
-0.0959727
-0.0802814
-0.0640176
-0.0473525
-0.0304083
-0.013279
0.00396007
0.0212482
0.0385363
0.055791
0.0730053
0.0902167
0.107541