/*--------------------------------*- C++ -*----------------------------------*\
| =========                 |                                                 |
| \\      /  F ield         | OpenFOAM: The Open Source CFD Toolbox           |
|  \\    /   O peration     | Version:  2.4.0                                 |
|   \\  /    A nd           | Web:      www.OpenFOAM.org                      |
|    \\/     M anipulation  |                                                 |
\*---------------------------------------------------------------------------*/
FoamFile
{
    version     2.0;
    format      ascii;
    class       surfaceScalarField;
    location    "3.5";
    object      phi;
}
// * * * * * * * * * * * * * * * * * * * * * * * * * * * * * * * * * * * * * //

dimensions      [0 3 -1 0 0 0 0];

internalField   nonuniform List<scalar> 
12720
(
1.54139e-07
-1.54262e-07
1.08052e-10
-5.41529e-07
6.93903e-07
1.76409e-09
-2.06827e-06
1.52413e-06
2.60584e-09
-4.17917e-06
2.10757e-06
3.33423e-09
-6.63811e-06
2.45516e-06
3.76963e-09
-9.25048e-06
2.60843e-06
3.94911e-09
-1.18561e-05
2.60167e-06
3.95953e-09
-1.43162e-05
2.45625e-06
3.80306e-09
-1.65094e-05
2.18981e-06
3.45338e-09
1.83111e-06
2.88703e-09
-1.83434e-05
-7.25406e-07
5.72558e-07
-1.41493e-09
-3.29412e-06
3.26219e-06
4.27664e-10
-7.49471e-06
5.72621e-06
-1.48679e-09
-1.29031e-05
7.51831e-06
-2.37304e-09
-1.90709e-05
8.62584e-06
-2.8179e-09
-2.55794e-05
9.12005e-06
-3.09764e-09
-3.2049e-05
9.07434e-06
-3.10841e-09
-3.81373e-05
8.5474e-06
-2.89035e-09
-4.35491e-05
7.60417e-06
-2.53504e-09
6.35297e-06
-2.1872e-09
-4.80688e-05
-1.69208e-06
2.26712e-06
-2.48185e-09
-6.12783e-06
7.69565e-06
2.28581e-09
-1.27118e-05
1.23101e-05
1.24952e-10
-2.08487e-05
1.56552e-05
-7.69957e-11
-2.99522e-05
1.77292e-05
1.32578e-10
-3.94643e-05
1.8632e-05
1.23139e-10
-4.88576e-05
1.84675e-05
1.335e-10
-5.76388e-05
1.73285e-05
1.91243e-10
-6.53734e-05
1.53385e-05
2.58356e-10
1.27211e-05
1.60476e-10
-7.17417e-05
-2.48625e-06
4.75699e-06
-3.61986e-09
-8.50292e-06
1.37091e-05
3.21098e-09
-1.70652e-05
2.08724e-05
4.44775e-12
-2.73893e-05
2.59796e-05
-2.67121e-10
-3.87749e-05
2.91146e-05
9.92989e-11
-5.05669e-05
3.0424e-05
1.40309e-10
-6.21323e-05
3.00327e-05
1.79896e-10
-7.28556e-05
2.80515e-05
2.84939e-10
-8.21701e-05
2.46525e-05
4.83892e-10
2.01897e-05
4.25898e-10
-8.96391e-05
-3.04794e-06
7.80935e-06
-4.42658e-09
-1.02205e-05
2.08779e-05
3.77454e-09
-2.02297e-05
3.08821e-05
-4.09423e-10
-3.21337e-05
3.78845e-05
-9.09987e-10
-4.51431e-05
4.21245e-05
-5.46085e-10
-5.85352e-05
4.38166e-05
-5.22529e-10
-7.15993e-05
4.30972e-05
-4.66995e-10
-8.36128e-05
4.00652e-05
-2.71718e-10
-9.38622e-05
3.49017e-05
3.07789e-10
2.80673e-05
5.94768e-10
-0.00010174
-3.35292e-06
1.11671e-05
-4.79818e-09
-1.11747e-05
2.86954e-05
4.1835e-09
-2.20041e-05
4.17121e-05
-5.38631e-10
-3.48012e-05
5.06828e-05
-1.1601e-09
-4.87232e-05
5.60473e-05
-8.0255e-10
-6.3011e-05
5.81053e-05
-7.99769e-10
-7.69061e-05
5.69931e-05
-7.83873e-10
-8.95956e-05
5.27553e-05
-6.30614e-10
-0.000100197
4.55028e-05
5.24727e-10
3.56937e-05
1.64368e-09
-0.000107825
-3.392e-06
1.45645e-05
-5.40914e-09
-1.13154e-05
3.66145e-05
4.30712e-09
-2.22749e-05
5.26722e-05
-5.75277e-10
-3.5203e-05
6.36121e-05
-1.26999e-09
-4.92437e-05
7.00889e-05
-9.68114e-10
-6.36363e-05
7.24989e-05
-1.00818e-09
-7.76144e-05
7.09723e-05
-1.12076e-09
-9.03149e-05
6.54572e-05
-1.34787e-09
-0.00010069
5.5877e-05
6.85535e-10
4.24132e-05
4.16542e-09
-0.000107414
-3.17216e-06
1.77411e-05
-4.4313e-09
-1.06489e-05
4.40872e-05
4.11774e-09
-2.10273e-05
6.30511e-05
-5.27233e-10
-3.32726e-05
7.58586e-05
-1.23695e-09
-4.65449e-05
8.33623e-05
-1.01215e-09
-6.01065e-05
8.60614e-05
-1.03242e-09
-7.32262e-05
8.40931e-05
-1.17348e-09
-8.50632e-05
7.72963e-05
-2.09081e-09
-9.44903e-05
6.53021e-05
2.00969e-09
4.7473e-05
1.44897e-08
-9.95645e-05
-2.72399e-06
2.04688e-05
-3.71563e-09
-9.26015e-06
5.06196e-05
3.72446e-09
-1.8391e-05
7.21823e-05
-3.64049e-10
-2.91493e-05
8.66179e-05
-1.03701e-09
-4.07094e-05
9.49234e-05
-9.52537e-10
-5.23397e-05
9.76928e-05
-1.03476e-09
-6.33438e-05
9.50986e-05
-1.3957e-09
-7.29561e-05
8.69136e-05
-4.90375e-09
-8.019e-05
7.25375e-05
-1.45729e-09
4.97772e-05
3.25215e-08
-8.25268e-05
-2.11183e-06
-2.69744e-09
2.25833e-05
-7.33819e-06
3.21343e-09
5.58428e-05
-1.46988e-05
-5.56307e-11
7.9543e-05
-2.32976e-05
-5.89037e-10
9.52173e-05
-3.22788e-05
-6.27447e-10
0.000103905
-4.08141e-05
-9.25901e-10
0.000106229
-4.80825e-05
-1.97674e-09
0.000102369
-5.3165e-05
-1.22175e-08
9.20083e-05
-5.49508e-05
-2.85777e-08
7.43518e-05
9.79425e-09
-5.22654e-05
4.7082e-05
1.5548e-07
-1.55372e-07
6.50588e-13
-5.42173e-07
6.99419e-07
-7.97207e-13
-2.06902e-06
1.52946e-06
-3.64475e-13
-4.17931e-06
2.11362e-06
-1.01483e-14
-6.63797e-06
2.46243e-06
-3.01829e-14
-9.25035e-06
2.61633e-06
-6.47809e-14
-1.18561e-05
2.60969e-06
-1.59907e-13
-1.43163e-05
2.46404e-06
-1.53777e-13
-1.65098e-05
2.19697e-06
-1.84862e-13
1.83711e-06
-2.3788e-13
-1.83441e-05
-7.30123e-07
5.73337e-07
3.42081e-13
-3.29976e-06
3.26949e-06
-3.69054e-13
-7.4997e-06
5.72791e-06
-4.09838e-14
-1.29065e-05
7.51806e-06
5.40369e-14
-1.90726e-05
8.62568e-06
-5.63979e-14
-2.55795e-05
9.1202e-06
-5.93903e-14
-3.20479e-05
9.07491e-06
-1.11265e-13
-3.81353e-05
8.54854e-06
-2.12438e-13
-4.35468e-05
7.60592e-06
-3.29057e-13
6.35459e-06
-2.05033e-13
-4.80664e-05
-1.69749e-06
2.26835e-06
-5.49453e-13
-6.12859e-06
7.70287e-06
-6.88723e-13
-1.27126e-05
1.23121e-05
-2.03547e-13
-2.08497e-05
1.5655e-05
1.08427e-14
-2.99527e-05
1.77288e-05
4.3582e-14
-3.94643e-05
1.86319e-05
-2.85251e-15
-4.88572e-05
1.84679e-05
-1.27865e-13
-5.76382e-05
1.73297e-05
-2.73011e-13
-6.5373e-05
1.5341e-05
-3.70396e-13
1.27233e-05
-3.54194e-13
-7.17416e-05
-2.49308e-06
4.75781e-06
-7.84016e-13
-8.50178e-06
1.37148e-05
-6.63588e-13
-1.7064e-05
2.08743e-05
-2.32364e-13
-2.7389e-05
2.59798e-05
4.25864e-14
-3.87747e-05
2.91146e-05
9.38491e-14
-5.05668e-05
3.04241e-05
5.7747e-15
-6.2132e-05
3.00333e-05
-1.78889e-13
-7.28553e-05
2.80533e-05
-3.57945e-13
-8.21704e-05
2.46566e-05
-3.64291e-13
2.01937e-05
-2.66473e-13
-8.96403e-05
-3.05648e-06
7.80987e-06
-3.96014e-13
-1.0219e-05
2.08811e-05
-3.59631e-13
-2.02281e-05
3.0883e-05
-3.22788e-14
-3.21333e-05
3.78841e-05
1.24587e-13
-4.5143e-05
4.21238e-05
4.33741e-14
-5.85352e-05
4.38159e-05
-1.23255e-13
-7.15991e-05
4.30967e-05
-3.89025e-13
-8.36122e-05
4.0066e-05
-3.88048e-13
-9.38624e-05
3.49072e-05
-2.63477e-13
2.80745e-05
-1.86848e-13
-0.000101743
-3.36247e-06
1.11675e-05
-2.0899e-13
-1.11732e-05
2.8696e-05
-1.33412e-13
-2.20025e-05
4.17117e-05
-4.2951e-15
-3.48011e-05
5.06815e-05
5.8395e-14
-4.87236e-05
5.60455e-05
-7.75091e-14
-6.30118e-05
5.81032e-05
-3.3395e-13
-7.69066e-05
5.69908e-05
-3.63977e-13
-8.9595e-05
5.27538e-05
-2.98962e-13
-0.000100197
4.551e-05
-1.64495e-13
3.57084e-05
-4.33032e-14
-0.000107829
-3.40192e-06
1.4564e-05
-7.37412e-14
-1.1314e-05
3.66125e-05
-2.691e-14
-2.22735e-05
5.26706e-05
-9.15273e-14
-3.52034e-05
6.36102e-05
-9.99691e-14
-4.92452e-05
7.00863e-05
-2.60335e-13
-6.36385e-05
7.24955e-05
-3.12114e-13
-7.76165e-05
7.09677e-05
-2.52208e-13
-9.03149e-05
6.54508e-05
-2.11827e-13
-0.000100689
5.58844e-05
-9.40632e-14
4.24456e-05
-1.00337e-14
-0.000107422
-3.18111e-06
1.77407e-05
-2.11671e-15
-1.06476e-05
4.40831e-05
-8.7356e-14
-2.10263e-05
6.30487e-05
-1.43253e-13
-3.32737e-05
7.58564e-05
-1.76888e-13
-4.65476e-05
8.33592e-05
-1.95058e-13
-6.01105e-05
8.60573e-05
-1.6399e-13
-7.32306e-05
8.40866e-05
-1.0505e-13
-8.50633e-05
7.72814e-05
-7.52664e-14
-9.44775e-05
6.53007e-05
-1.25796e-13
4.75558e-05
-1.86445e-13
-9.95732e-05
-2.73143e-06
2.04684e-05
-2.92348e-14
-9.25884e-06
5.06142e-05
-1.34186e-13
-1.83902e-05
7.21797e-05
-2.42319e-13
-2.91511e-05
8.66162e-05
-1.43471e-13
-4.07141e-05
9.49212e-05
-1.42732e-14
-5.23481e-05
9.76903e-05
-3.44693e-14
-6.33581e-05
9.50952e-05
6.48322e-15
-7.29758e-05
8.68942e-05
-5.43588e-14
-8.0166e-05
7.24895e-05
-2.94079e-13
4.98949e-05
-4.25737e-13
-8.24726e-05
-2.11722e-06
-6.76655e-14
2.2583e-05
-7.33658e-06
-9.54585e-14
5.58368e-05
-1.46974e-05
-1.63964e-13
7.95405e-05
-2.32985e-05
-7.63788e-15
9.52167e-05
-3.22836e-05
3.73907e-14
0.000103906
-4.0826e-05
7.81865e-16
0.000106232
-4.81112e-05
-1.23486e-14
0.000102379
-5.32534e-05
-8.24476e-14
9.20241e-05
-5.50919e-05
-3.28735e-13
7.42993e-05
-2.56972e-13
-5.20367e-05
4.68494e-05
1.5548e-07
-1.55371e-07
-1.0913e-10
-5.42172e-07
6.9942e-07
-1.76639e-09
-2.06902e-06
1.52946e-06
-2.60769e-09
-4.17931e-06
2.11362e-06
-3.33562e-09
-6.63797e-06
2.46243e-06
-3.77078e-09
-9.25035e-06
2.61633e-06
-3.95008e-09
-1.18561e-05
2.60969e-06
-3.96028e-09
-1.43163e-05
2.46404e-06
-3.80385e-09
-1.65098e-05
2.19697e-06
-3.45411e-09
1.83711e-06
-2.88749e-09
-1.83441e-05
-7.30122e-07
5.73337e-07
1.415e-09
-3.29976e-06
3.26949e-06
-4.28836e-10
-7.4997e-06
5.72791e-06
1.48549e-09
-1.29065e-05
7.51806e-06
2.37169e-09
-1.90726e-05
8.62568e-06
2.81674e-09
-2.55795e-05
9.1202e-06
3.0967e-09
-3.20479e-05
9.07491e-06
3.10758e-09
-3.81353e-05
8.54854e-06
2.88963e-09
-4.35468e-05
7.60592e-06
2.53452e-09
6.35458e-06
2.18674e-09
-4.80664e-05
-1.69749e-06
2.26835e-06
2.48171e-09
-6.12859e-06
7.70287e-06
-2.28661e-09
-1.27126e-05
1.23121e-05
-1.26025e-10
-2.08497e-05
1.5655e-05
7.58657e-11
-2.99527e-05
1.77288e-05
-1.33675e-10
-3.94643e-05
1.86319e-05
-1.24009e-10
-4.88572e-05
1.84679e-05
-1.34155e-10
-5.76382e-05
1.73297e-05
-1.91809e-10
-6.5373e-05
1.5341e-05
-2.58801e-10
1.27233e-05
-1.60729e-10
-7.17416e-05
-2.49308e-06
4.75781e-06
3.61939e-09
-8.50178e-06
1.37148e-05
-3.21163e-09
-1.7064e-05
2.08743e-05
-5.33352e-12
-2.7389e-05
2.59798e-05
2.66147e-10
-3.87747e-05
2.91146e-05
-1.00122e-10
-5.05668e-05
3.04241e-05
-1.40929e-10
-6.2132e-05
3.00333e-05
-1.80406e-10
-7.28553e-05
2.80533e-05
-2.85404e-10
-8.21704e-05
2.46566e-05
-4.84282e-10
2.01937e-05
-4.26159e-10
-8.96403e-05
-3.05648e-06
7.80987e-06
4.42595e-09
-1.0219e-05
2.08811e-05
-3.77521e-09
-2.02281e-05
3.0883e-05
4.08538e-10
-3.21333e-05
3.78841e-05
9.0928e-10
-4.5143e-05
4.21238e-05
5.45563e-10
-5.85352e-05
4.38158e-05
5.22084e-10
-7.15991e-05
4.30967e-05
4.66626e-10
-8.36122e-05
4.0066e-05
2.71348e-10
-9.38624e-05
3.49072e-05
-3.08131e-10
2.80745e-05
-5.94994e-10
-0.000101743
-3.36247e-06
1.11675e-05
4.79746e-09
-1.11732e-05
2.8696e-05
-4.18418e-09
-2.20025e-05
4.17117e-05
5.37884e-10
-3.48011e-05
5.06815e-05
1.15959e-09
-4.87236e-05
5.60455e-05
8.02131e-10
-6.30118e-05
5.81032e-05
7.99435e-10
-7.69066e-05
5.69907e-05
7.83522e-10
-8.9595e-05
5.27538e-05
6.30307e-10
-0.000100197
4.551e-05
-5.24965e-10
3.57084e-05
-1.64397e-09
-0.000107829
-3.40192e-06
1.4564e-05
5.40819e-09
-1.1314e-05
3.66125e-05
-4.30779e-09
-2.22735e-05
5.26706e-05
5.7472e-10
-3.52034e-05
6.36102e-05
1.26961e-09
-4.92452e-05
7.00863e-05
9.67797e-10
-6.36385e-05
7.24955e-05
1.00784e-09
-7.76165e-05
7.09677e-05
1.12046e-09
-9.03149e-05
6.54508e-05
1.34774e-09
-0.000100689
5.58844e-05
-6.85651e-10
4.24456e-05
-4.16569e-09
-0.000107422
-3.18111e-06
1.77407e-05
4.43065e-09
-1.06476e-05
4.40831e-05
-4.11827e-09
-2.10263e-05
6.30487e-05
5.26767e-10
-3.32737e-05
7.58564e-05
1.23665e-09
-4.65476e-05
8.33592e-05
1.01188e-09
-6.01105e-05
8.60573e-05
1.03218e-09
-7.32306e-05
8.40866e-05
1.17333e-09
-8.50633e-05
7.72814e-05
2.09072e-09
-9.44775e-05
6.53007e-05
-2.0097e-09
4.75558e-05
-1.44897e-08
-9.95732e-05
-2.73143e-06
2.04684e-05
3.71505e-09
-9.25884e-06
5.06142e-05
-3.72481e-09
-1.83902e-05
7.21797e-05
3.63778e-10
-2.91511e-05
8.66162e-05
1.03685e-09
-4.07141e-05
9.49212e-05
9.5241e-10
-5.23481e-05
9.76903e-05
1.03469e-09
-6.33581e-05
9.50952e-05
1.39559e-09
-7.29758e-05
8.68942e-05
4.90361e-09
-8.0166e-05
7.24895e-05
1.45731e-09
4.98949e-05
-3.25215e-08
-8.24726e-05
-2.11722e-06
2.69713e-09
2.2583e-05
-7.33658e-06
-3.21368e-09
5.58368e-05
-1.46974e-05
5.5545e-11
7.95405e-05
-2.32985e-05
5.88992e-10
9.52167e-05
-3.22836e-05
6.27448e-10
0.000103906
-4.0826e-05
9.25793e-10
0.000106232
-4.81112e-05
1.97645e-09
0.000102379
-5.32534e-05
1.22172e-08
9.20241e-05
-5.50919e-05
2.85775e-08
7.42993e-05
-9.79444e-09
-5.20367e-05
4.68494e-05
1.54145e-07
-1.54254e-07
-5.41524e-07
6.93907e-07
-2.06826e-06
1.52413e-06
-4.17917e-06
2.10757e-06
-6.6381e-06
2.45516e-06
-9.25048e-06
2.60843e-06
-1.18561e-05
2.60167e-06
-1.43162e-05
2.45625e-06
-1.65094e-05
2.18981e-06
1.83111e-06
-1.83434e-05
-7.25404e-07
5.72562e-07
-3.29412e-06
3.26219e-06
-7.4947e-06
5.72621e-06
-1.29031e-05
7.51831e-06
-1.90709e-05
8.62584e-06
-2.55794e-05
9.12005e-06
-3.2049e-05
9.07434e-06
-3.81373e-05
8.5474e-06
-4.35491e-05
7.60417e-06
6.35297e-06
-4.80688e-05
-1.69208e-06
2.26712e-06
-6.12783e-06
7.69565e-06
-1.27118e-05
1.23101e-05
-2.08487e-05
1.56552e-05
-2.99522e-05
1.77292e-05
-3.94643e-05
1.8632e-05
-4.88576e-05
1.84675e-05
-5.76388e-05
1.73285e-05
-6.53734e-05
1.53385e-05
1.27211e-05
-7.17417e-05
-2.48625e-06
4.75699e-06
-8.50292e-06
1.37091e-05
-1.70652e-05
2.08724e-05
-2.73893e-05
2.59796e-05
-3.87749e-05
2.91146e-05
-5.05669e-05
3.0424e-05
-6.21323e-05
3.00327e-05
-7.28556e-05
2.80515e-05
-8.21701e-05
2.46525e-05
2.01897e-05
-8.96391e-05
-3.04794e-06
7.80935e-06
-1.02205e-05
2.08778e-05
-2.02297e-05
3.08821e-05
-3.21337e-05
3.78845e-05
-4.51431e-05
4.21245e-05
-5.85352e-05
4.38166e-05
-7.15993e-05
4.30972e-05
-8.36128e-05
4.00652e-05
-9.38622e-05
3.49017e-05
2.80673e-05
-0.00010174
-3.35292e-06
1.11671e-05
-1.11747e-05
2.86954e-05
-2.20041e-05
4.17121e-05
-3.48012e-05
5.06827e-05
-4.87232e-05
5.60473e-05
-6.3011e-05
5.81053e-05
-7.69061e-05
5.69931e-05
-8.95955e-05
5.27553e-05
-0.000100197
4.55028e-05
3.56937e-05
-0.000107825
-3.392e-06
1.45645e-05
-1.13154e-05
3.66145e-05
-2.22749e-05
5.26722e-05
-3.5203e-05
6.36121e-05
-4.92437e-05
7.00889e-05
-6.36363e-05
7.24989e-05
-7.76144e-05
7.09723e-05
-9.03149e-05
6.54572e-05
-0.00010069
5.5877e-05
4.24132e-05
-0.000107414
-3.17216e-06
1.77411e-05
-1.06489e-05
4.40872e-05
-2.10273e-05
6.30511e-05
-3.32726e-05
7.58586e-05
-4.65449e-05
8.33623e-05
-6.01065e-05
8.60614e-05
-7.32262e-05
8.40931e-05
-8.50632e-05
7.72963e-05
-9.44903e-05
6.53021e-05
4.7473e-05
-9.95645e-05
-2.72399e-06
2.04688e-05
-9.26015e-06
5.06196e-05
-1.8391e-05
7.21823e-05
-2.91493e-05
8.66179e-05
-4.07094e-05
9.49234e-05
-5.23397e-05
9.76928e-05
-6.33438e-05
9.50986e-05
-7.29561e-05
8.69136e-05
-8.019e-05
7.25375e-05
4.97772e-05
-8.25268e-05
-2.11182e-06
2.25833e-05
-7.33819e-06
5.58428e-05
-1.46988e-05
7.9543e-05
-2.32976e-05
9.52173e-05
-3.22788e-05
0.000103905
-4.08141e-05
0.000106229
-4.80825e-05
0.000102369
-5.3165e-05
9.20083e-05
-5.49508e-05
7.43518e-05
-5.22654e-05
4.7082e-05
-1.97766e-05
1.43099e-06
2.17288e-09
-2.08302e-05
1.05206e-06
1.52176e-09
-2.1567e-05
7.35788e-07
1.00907e-09
-2.20642e-05
4.96559e-07
6.38381e-10
-2.23951e-05
3.30561e-07
3.92837e-10
-2.26211e-05
2.25688e-07
2.45148e-10
-2.27898e-05
1.68556e-07
1.6823e-10
-2.29378e-05
1.47919e-07
1.42213e-10
-2.30934e-05
1.55377e-07
1.53364e-10
-2.32781e-05
1.84534e-07
1.93038e-10
-2.35077e-05
2.29393e-07
2.5488e-10
-2.37904e-05
2.82361e-07
3.32456e-10
-2.41229e-05
3.32051e-07
4.16073e-10
-2.44846e-05
3.61159e-07
4.89386e-10
-2.48301e-05
3.44976e-07
5.25708e-10
-2.50821e-05
2.5161e-07
4.814e-10
-2.51291e-05
4.66111e-08
3.01915e-10
-2.48262e-05
-3.02814e-07
-4.60611e-11
-2.40211e-05
-8.04478e-07
-6.58303e-10
-1.43292e-06
-1.58004e-09
-2.25866e-05
-5.16077e-05
4.97188e-06
-1.93509e-09
-5.4226e-05
3.67193e-06
-1.61602e-09
-5.60776e-05
2.58869e-06
-1.2791e-09
-5.7347e-05
1.76696e-06
-9.78313e-10
-5.82079e-05
1.19217e-06
-7.32805e-10
-5.88048e-05
8.23149e-07
-5.52218e-10
-5.92504e-05
6.1458e-07
-4.36417e-10
-5.96297e-05
5.27623e-07
-3.77587e-10
-6.00061e-05
5.32077e-07
-3.65497e-10
-6.04249e-05
6.03755e-07
-3.88155e-10
-6.09146e-05
7.1949e-07
-4.30581e-10
-6.14827e-05
8.51034e-07
-4.73488e-10
-6.21088e-05
9.58571e-07
-4.90067e-10
-6.2732e-05
9.84821e-07
-4.44724e-10
-6.32382e-05
8.51508e-07
-2.93902e-10
-6.3448e-05
4.61413e-07
7.78174e-12
-6.31127e-05
-2.89231e-07
4.90288e-10
-6.19318e-05
-1.48486e-06
1.14222e-09
-5.95924e-05
-3.14584e-06
1.92331e-09
-5.17794e-06
2.65794e-09
-5.585e-05
-7.66262e-05
9.85663e-06
-2.34303e-10
-8.01589e-05
7.205e-06
-4.13038e-10
-8.26053e-05
5.03554e-06
-4.54623e-10
-8.42534e-05
3.41549e-06
-4.3328e-10
-8.53557e-05
2.29488e-06
-3.71049e-10
-8.6111e-05
1.5787e-06
-2.96734e-10
-8.66667e-05
1.17052e-06
-2.29384e-10
-8.71297e-05
9.90789e-07
-1.76112e-10
-8.75761e-05
9.78662e-07
-1.37312e-10
-8.80581e-05
1.08585e-06
-1.10973e-10
-8.86053e-05
1.26675e-06
-9.26674e-11
-8.92212e-05
1.46705e-06
-7.6701e-11
-8.98745e-05
1.61192e-06
-5.63275e-11
-9.04849e-05
1.59524e-06
-2.29613e-11
-9.09062e-05
1.27279e-06
3.43607e-11
-9.09098e-05
4.64914e-07
1.24836e-10
-9.01767e-05
-1.02266e-06
2.4325e-10
-8.83102e-05
-3.35174e-06
3.81732e-10
-8.48853e-05
-6.57123e-06
5.2416e-10
-1.05116e-05
4.44113e-10
-7.9552e-05
-9.51169e-05
1.53348e-05
-3.75359e-10
-9.88716e-05
1.09603e-05
-6.09568e-10
-0.000101334
7.49892e-06
-6.07049e-10
-0.000102911
4.99297e-06
-5.40644e-10
-0.000103919
3.30329e-06
-4.31107e-10
-0.000104583
2.24276e-06
-3.1941e-10
-0.000105055
1.64254e-06
-2.26676e-10
-0.000105437
1.37268e-06
-1.56412e-10
-0.000105796
1.33868e-06
-1.06022e-10
-0.000106179
1.46851e-06
-7.18703e-11
-0.000106609
1.69653e-06
-5.01458e-11
-0.000107088
1.94624e-06
-3.67748e-11
-0.000107589
2.11274e-06
-2.81411e-11
-0.000108039
2.04591e-06
-1.85834e-11
-0.000108304
1.5375e-06
6.01484e-12
-0.000108158
3.1896e-07
6.12075e-11
-0.000107266
-1.91518e-06
1.29448e-10
-0.000105171
-5.44719e-06
2.58463e-10
-0.000101329
-1.04131e-05
5.06027e-10
-1.66149e-05
4.44984e-10
-9.52265e-05
-0.000107038
2.0633e-05
-1.02923e-09
-0.000110283
1.42065e-05
-1.15629e-09
-0.000112165
9.38194e-06
-9.38214e-10
-0.000113226
6.05493e-06
-7.34264e-10
-0.000113824
3.90148e-06
-5.17603e-10
-0.000114172
2.5917e-06
-3.40743e-10
-0.000114395
1.86524e-06
-2.18021e-10
-0.000114561
1.5393e-06
-1.38502e-10
-0.000114713
1.49042e-06
-9.05755e-11
-0.000114875
1.63055e-06
-6.5029e-11
-0.000115062
1.88369e-06
-5.54469e-11
-0.000115279
2.16339e-06
-5.76468e-11
-0.000115516
2.35014e-06
-6.84082e-11
-0.000115738
2.26794e-06
-8.14399e-11
-0.000115862
1.66182e-06
-7.21669e-11
-0.000115724
1.81003e-07
-6.05797e-12
-0.000115032
-2.60795e-06
6.23798e-11
-0.000113307
-7.17177e-06
2.54895e-10
-0.000109868
-1.38531e-05
8.93588e-10
-2.25714e-05
1.28177e-09
-0.000103913
-0.000112084
2.4894e-05
-2.20256e-09
-0.000114028
1.61527e-05
-1.88217e-09
-0.000114747
1.01017e-05
-1.18082e-09
-0.000114912
6.22049e-06
-7.9136e-10
-0.000114865
3.85495e-06
-4.66088e-10
-0.000114755
2.48258e-06
-2.46181e-10
-0.000114637
1.74719e-06
-1.2211e-10
-0.000114523
1.42489e-06
-5.62618e-11
-0.00011441
1.37802e-06
-2.40916e-11
-0.000114297
1.51676e-06
-1.1844e-11
-0.000114182
1.76931e-06
-1.26378e-11
-0.000114075
2.05643e-06
-2.40714e-11
-0.000113991
2.26645e-06
-4.62984e-11
-0.00011395
2.22694e-06
-7.84579e-11
-0.000113959
1.671e-06
-9.75412e-11
-0.000113975
1.97069e-07
-5.88611e-11
-0.00011383
-2.75318e-06
-3.23393e-11
-0.000113108
-7.89392e-06
1.40472e-10
-0.000110998
-1.5965e-05
1.54086e-09
-2.73387e-05
3.26358e-09
-0.000106234
-0.000109582
2.7068e-05
-5.86554e-09
-0.000109372
1.5947e-05
-3.87678e-09
-0.000108439
9.17006e-06
-1.79387e-09
-0.000107486
5.26833e-06
-9.35662e-10
-0.000106719
3.08891e-06
-3.98013e-10
-0.000106145
1.90837e-06
-1.23486e-10
-0.000105706
1.30827e-06
-1.55269e-11
-0.000105339
1.05798e-06
1.98522e-11
-0.000104992
1.03118e-06
2.41361e-11
-0.00010463
1.15428e-06
1.42564e-11
-0.000104235
1.37422e-06
-4.22862e-12
-0.000103813
1.63495e-06
-3.08045e-11
-0.000103401
1.85493e-06
-6.67769e-11
-0.000103074
1.89938e-06
-1.15401e-10
-0.000102943
1.54007e-06
-1.52418e-10
-0.000103137
3.91906e-07
-7.88006e-11
-0.000103721
-2.17013e-06
9.21807e-11
-0.000104506
-7.10915e-06
4.65995e-10
-0.000104694
-1.57806e-05
3.7302e-09
-2.96727e-05
8.97692e-09
-0.000102369
-9.81641e-05
2.56776e-05
-9.96566e-09
-9.49965e-05
1.27834e-05
-4.0541e-09
-9.22372e-05
6.41167e-06
-8.25355e-10
-9.02776e-05
3.30898e-06
-3.13877e-10
-8.89771e-05
1.78841e-06
3.98995e-11
-8.81145e-05
1.04563e-06
1.64344e-10
-8.75044e-05
6.98011e-07
1.55463e-10
-8.7013e-05
5.66456e-07
1.27847e-10
-8.65484e-05
5.66438e-07
1.05942e-10
-8.60498e-05
6.55588e-07
9.05409e-11
-8.54833e-05
8.07652e-07
7.77824e-11
-8.48451e-05
9.96698e-07
6.17714e-11
-8.41732e-05
1.183e-06
3.31743e-11
-8.35677e-05
1.29393e-06
-3.43039e-11
-8.32178e-05
1.19031e-06
-1.32951e-10
-8.34242e-05
5.98283e-07
-4.38636e-11
-8.45626e-05
-1.03185e-06
1.23735e-10
-8.69475e-05
-4.72374e-06
-4.62899e-10
-9.02462e-05
-1.24853e-05
3.29755e-09
-2.79318e-05
1.43434e-08
-9.20014e-05
-7.49719e-05
1.81352e-05
-1.24519e-08
-6.86629e-05
6.46884e-06
5.51567e-09
-6.47787e-05
2.52126e-06
6.17892e-09
-6.25405e-05
1.06815e-06
2.64071e-09
-6.12508e-05
4.97403e-07
1.36699e-09
-6.04726e-05
2.66591e-07
8.30024e-10
-5.99508e-05
1.75661e-07
5.22445e-10
-5.95349e-05
1.50129e-07
3.96446e-10
-5.91312e-05
1.62372e-07
3.81335e-10
-5.8678e-05
2.01941e-07
4.2909e-10
-5.81352e-05
2.64341e-07
5.14805e-10
-5.74851e-05
3.45958e-07
6.16832e-10
-5.67429e-05
4.40166e-07
6.97008e-10
-5.59809e-05
5.31285e-07
6.57404e-10
-5.5372e-05
5.80997e-07
3.7281e-10
-5.5274e-05
5.00367e-07
-9.11792e-11
-5.62695e-05
-3.46322e-08
-1.66365e-09
-5.94004e-05
-1.58516e-06
-7.67847e-09
-6.57582e-05
-6.11705e-06
-1.04257e-08
-1.93682e-05
1.55018e-08
-7.43373e-05
-3.40611e-05
-6.9101e-08
-2.75805e-05
-1.17696e-08
-2.50584e-05
-8.57064e-10
-2.39884e-05
-1.8917e-09
-2.34897e-05
-1.22992e-09
-2.32226e-05
-5.78754e-10
-2.30466e-05
-3.28105e-10
-2.28962e-05
-2.33061e-10
-2.27336e-05
-2.07057e-10
-2.25315e-05
-2.28105e-10
-2.22668e-05
-2.82272e-10
-2.19205e-05
-3.56135e-10
-2.14799e-05
-4.3061e-10
-2.09482e-05
-4.72004e-10
-2.03668e-05
-3.64234e-10
-1.98667e-05
2.08168e-10
-1.99021e-05
7.70355e-10
-2.14847e-05
-2.55696e-09
-2.76068e-05
5.07509e-09
8.74371e-08
-4.70624e-05
-1.97772e-05
1.43532e-06
-1.40533e-13
-2.08307e-05
1.05499e-06
-4.58113e-14
-2.15673e-05
7.37679e-07
-4.91411e-14
-2.20644e-05
4.97719e-07
-7.73602e-14
-2.23953e-05
3.31257e-07
-1.36161e-13
-2.26212e-05
2.26121e-07
-2.09895e-13
-2.27899e-05
1.68869e-07
-1.47691e-13
-2.29379e-05
1.48211e-07
-1.7849e-14
-2.30935e-05
1.55716e-07
9.89308e-14
-2.32783e-05
1.84969e-07
6.55488e-14
-2.3508e-05
2.2996e-07
-8.60379e-15
-2.37907e-05
2.83078e-07
-7.33667e-14
-2.41232e-05
3.3291e-07
-4.12401e-14
-2.44848e-05
3.62116e-07
1.48787e-13
-2.48302e-05
3.4594e-07
1.78872e-13
-2.50822e-05
2.52439e-07
1.00223e-13
-2.51288e-05
4.68589e-08
5.53872e-14
-2.48258e-05
-3.03032e-07
6.60398e-14
-2.40206e-05
-8.05795e-07
1.19509e-13
-1.43595e-06
3.14809e-13
-2.25863e-05
-5.16052e-05
4.97216e-06
-2.24121e-13
-5.42234e-05
3.6716e-06
-2.26492e-13
-5.60753e-05
2.58825e-06
-4.88422e-14
-5.73451e-05
1.76656e-06
7.51462e-16
-5.82064e-05
1.19187e-06
-1.64008e-13
-5.88038e-05
8.22954e-07
-1.17255e-13
-5.92498e-05
6.14458e-07
1.3702e-14
-5.96295e-05
5.27536e-07
3.3065e-14
-6.00062e-05
5.3199e-07
1.87584e-14
-6.04252e-05
6.03629e-07
5.3235e-14
-6.0915e-05
7.19287e-07
-1.18295e-13
-6.14831e-05
8.50716e-07
-1.02279e-13
-6.21088e-05
9.58114e-07
3.91939e-14
-6.27314e-05
9.84235e-07
1.63219e-13
-6.32366e-05
8.50873e-07
1.33046e-13
-6.3445e-05
4.60902e-07
5.98667e-14
-6.31083e-05
-2.89378e-07
4.67453e-15
-6.19261e-05
-1.48409e-06
2.47784e-14
-5.95861e-05
-3.14386e-06
2.04272e-13
-5.1754e-06
4.41402e-13
-5.5844e-05
-7.66254e-05
9.85575e-06
-1.57028e-13
-8.01574e-05
7.20315e-06
-1.62459e-14
-8.26035e-05
5.0339e-06
5.66946e-15
-8.42516e-05
3.41426e-06
3.0052e-14
-8.53542e-05
2.29408e-06
6.74613e-14
-8.61098e-05
1.57824e-06
-9.91252e-14
-8.66658e-05
1.17029e-06
-1.81772e-13
-8.71291e-05
9.90662e-07
-6.2908e-14
-8.75759e-05
9.78559e-07
9.65207e-14
-8.8058e-05
1.0857e-06
2.8929e-13
-8.86053e-05
1.26647e-06
1.72064e-13
-8.92212e-05
1.46658e-06
4.09458e-14
-8.98744e-05
1.6112e-06
9.65053e-14
-9.04844e-05
1.59426e-06
1.39839e-13
-9.09052e-05
1.27165e-06
1.06116e-13
-9.0908e-05
4.63889e-07
4.64573e-14
-9.0174e-05
-1.02316e-06
1.37345e-14
-8.83068e-05
-3.35087e-06
4.41989e-14
-8.4882e-05
-6.56814e-06
2.19472e-13
-1.05076e-05
3.23415e-13
-7.95494e-05
-9.51165e-05
1.53316e-05
-1.05959e-13
-9.88699e-05
1.09559e-05
-1.22748e-14
-0.000101332
7.49559e-06
-3.94387e-14
-0.000102909
4.99072e-06
-3.82687e-14
-0.000103917
3.30195e-06
9.34683e-14
-0.000104582
2.24206e-06
-2.35374e-13
-0.000105054
1.64223e-06
-2.38997e-13
-0.000105436
1.37256e-06
5.74576e-14
-0.000105796
1.33861e-06
3.0668e-13
-0.000106179
1.4684e-06
1.97839e-13
-0.000106609
1.69629e-06
3.35066e-14
-0.000107088
1.94578e-06
-5.39993e-14
-0.000107589
2.11196e-06
-2.16266e-14
-0.000108039
2.04475e-06
2.48539e-15
-0.000108304
1.53605e-06
-1.20845e-14
-0.000108157
3.17601e-07
-5.82687e-14
-0.000107264
-1.91618e-06
-1.06237e-13
-0.000105168
-5.44645e-06
-2.70978e-16
-0.000101327
-1.04086e-05
2.13864e-13
-1.66087e-05
2.70154e-13
-9.52257e-05
-0.000107036
2.06243e-05
-1.61279e-13
-0.000110279
1.41977e-05
-2.89884e-14
-0.000112161
9.37651e-06
-4.34879e-14
-0.000113223
6.05172e-06
-2.27707e-13
-0.000113821
3.89979e-06
-2.09377e-13
-0.000114171
2.59094e-06
-2.59774e-13
-0.000114394
1.86496e-06
-1.08948e-13
-0.00011456
1.53923e-06
-3.75568e-14
-0.000114712
1.49041e-06
1.04822e-13
-0.000114874
1.63049e-06
9.48684e-14
-0.000115062
1.88348e-06
6.53637e-15
-0.000115279
2.16292e-06
-2.73771e-14
-0.000115516
2.34929e-06
-1.61713e-14
-0.000115738
2.26661e-06
-1.8751e-14
-0.000115862
1.65999e-06
-4.30192e-14
-0.000115724
1.79362e-07
-1.1256e-13
-0.00011503
-2.60975e-06
-1.3309e-13
-0.000113305
-7.17157e-06
3.18938e-14
-0.000109866
-1.38464e-05
1.95238e-13
-2.25603e-05
1.91453e-13
-0.000103913
-0.000112081
2.48738e-05
-1.09261e-13
-0.000114023
1.61373e-05
-1.25812e-13
-0.000114742
1.00947e-05
-1.44842e-13
-0.000114908
6.21721e-06
-2.22842e-13
-0.000114863
3.85358e-06
-9.60211e-14
-0.000114754
2.48218e-06
-2.41547e-13
-0.000114636
1.74717e-06
-2.59028e-13
-0.000114522
1.42499e-06
-1.31315e-13
-0.00011441
1.37811e-06
-7.91219e-15
-0.000114296
1.51678e-06
4.8219e-14
-0.000114182
1.76917e-06
1.30492e-14
-0.000114075
2.05603e-06
-2.35241e-14
-0.000113991
2.26566e-06
-4.51401e-14
-0.00011395
2.22558e-06
-2.80511e-14
-0.00011396
1.66895e-06
-2.55508e-14
-0.000113975
1.95056e-07
-4.01247e-14
-0.000113829
-2.75618e-06
2.45988e-15
-0.000113105
-7.89524e-06
1.103e-13
-0.000110995
-1.59548e-05
1.18666e-13
-2.73156e-05
9.47304e-14
-0.000106236
-0.000109574
2.70201e-05
-8.23259e-14
-0.000109362
1.59211e-05
-2.58326e-13
-0.000108432
9.16309e-06
-2.76338e-13
-0.000107482
5.2664e-06
-2.23924e-13
-0.000106717
3.08862e-06
-1.11401e-13
-0.000106144
1.90863e-06
-6.88925e-14
-0.000105705
1.30858e-06
-8.87307e-15
-0.000105339
1.05822e-06
1.12762e-13
-0.000104992
1.03132e-06
2.08914e-13
-0.000104629
1.1543e-06
1.96059e-13
-0.000104234
1.37409e-06
1.00442e-13
-0.000103813
1.63458e-06
4.50853e-14
-0.000103401
1.85418e-06
1.00161e-13
-0.000103074
1.89802e-06
1.88713e-13
-0.000102943
1.53786e-06
2.08195e-13
-0.000103137
3.89257e-07
1.64902e-13
-0.000103719
-2.17423e-06
1.33912e-13
-0.000104502
-7.1123e-06
1.64336e-13
-0.000104689
-1.57632e-05
1.58173e-13
-2.96179e-05
1.5137e-13
-0.000102378
-9.81495e-05
2.55865e-05
-3.63762e-13
-9.49859e-05
1.27534e-05
-3.43232e-13
-9.22337e-05
6.41006e-06
-2.62943e-13
-9.02772e-05
3.30965e-06
-2.38007e-13
-8.89776e-05
1.78903e-06
-2.04502e-13
-8.8115e-05
1.04617e-06
-1.81142e-13
-8.75046e-05
6.98356e-07
3.15567e-14
-8.70129e-05
5.66643e-07
2.30722e-13
-8.6548e-05
5.66528e-07
2.77253e-13
-8.60492e-05
6.55604e-07
1.72186e-13
-8.54826e-05
8.07588e-07
9.14036e-14
-8.48445e-05
9.96519e-07
1.34483e-13
-8.41729e-05
1.18263e-06
2.29257e-13
-8.35681e-05
1.29316e-06
2.54424e-13
-8.32192e-05
1.18884e-06
1.55281e-13
-8.34261e-05
5.96076e-07
4.71534e-14
-8.45662e-05
-1.03401e-06
5.20821e-14
-8.69502e-05
-4.72877e-06
-1.53482e-14
-9.02438e-05
-1.24662e-05
-8.11065e-14
-2.78303e-05
3.84437e-14
-9.20171e-05
-7.49533e-05
1.80547e-05
-3.64532e-13
-6.86704e-05
6.47604e-06
-2.90185e-13
-6.47874e-05
2.5332e-06
-9.72433e-14
-6.25469e-05
1.07179e-06
-1.4125e-13
-6.12546e-05
4.98112e-07
-1.6361e-13
-6.04744e-05
2.66829e-07
-4.73969e-14
-5.99514e-05
1.75859e-07
1.43721e-13
-5.95347e-05
1.50377e-07
2.31259e-13
-5.91306e-05
1.62727e-07
1.62582e-13
-5.8677e-05
2.02455e-07
8.16707e-14
-5.8134e-05
2.65081e-07
1.18189e-13
-5.74838e-05
3.47e-07
2.39524e-13
-5.67421e-05
4.41604e-07
3.3011e-13
-5.59815e-05
5.33238e-07
2.84008e-13
-5.53757e-05
5.83419e-07
1.6072e-13
-5.52803e-05
5.00603e-07
1.97709e-13
-5.62847e-05
-3.13689e-08
2.58829e-13
-5.94269e-05
-1.59418e-06
4.59072e-14
-6.57742e-05
-6.12937e-06
-1.89996e-13
-1.93041e-05
-1.20882e-13
-7.42848e-05
-3.40511e-05
-2.80251e-13
-2.75868e-05
-1.82794e-13
-2.50544e-05
1.26296e-14
-2.39846e-05
3.29383e-14
-2.34877e-05
8.08576e-14
-2.32214e-05
2.02643e-13
-2.30459e-05
2.42397e-13
-2.28957e-05
1.86594e-13
-2.27332e-05
9.66537e-14
-2.2531e-05
8.81385e-14
-2.22662e-05
2.05452e-13
-2.19196e-05
3.53336e-13
-2.14784e-05
3.69138e-13
-2.09456e-05
2.06356e-13
-2.03626e-05
1.75789e-13
-1.98617e-05
4.32041e-13
-1.98923e-05
4.39581e-13
-2.14891e-05
-1.73414e-13
-2.76134e-05
-4.81791e-13
-2.1502e-13
-4.68301e-05
-1.97772e-05
1.43532e-06
-2.17318e-09
-2.08307e-05
1.05499e-06
-1.52202e-09
-2.15673e-05
7.37679e-07
-1.00933e-09
-2.20644e-05
4.97719e-07
-6.38752e-10
-2.23953e-05
3.31257e-07
-3.93232e-10
-2.26212e-05
2.26122e-07
-2.45321e-10
-2.27899e-05
1.68869e-07
-1.68355e-10
-2.29379e-05
1.48211e-07
-1.42424e-10
-2.30935e-05
1.55716e-07
-1.53628e-10
-2.32783e-05
1.84969e-07
-1.93251e-10
-2.3508e-05
2.2996e-07
-2.5479e-10
-2.37907e-05
2.83078e-07
-3.32318e-10
-2.41232e-05
3.3291e-07
-4.15949e-10
-2.44848e-05
3.62116e-07
-4.89356e-10
-2.48302e-05
3.4594e-07
-5.25548e-10
-2.50822e-05
2.52439e-07
-4.81095e-10
-2.51288e-05
4.68589e-08
-3.01515e-10
-2.48258e-05
-3.03032e-07
4.6603e-11
-2.40206e-05
-8.05794e-07
6.58963e-10
-1.43595e-06
1.58074e-09
-2.25863e-05
-5.16052e-05
4.97216e-06
1.9348e-09
-5.42234e-05
3.6716e-06
1.61585e-09
-5.60753e-05
2.58825e-06
1.27871e-09
-5.73451e-05
1.76656e-06
9.77912e-10
-5.82064e-05
1.19187e-06
7.32636e-10
-5.88038e-05
8.22954e-07
5.52038e-10