/*--------------------------------*- C++ -*----------------------------------*\
| =========                 |                                                 |
| \\      /  F ield         | OpenFOAM: The Open Source CFD Toolbox           |
|  \\    /   O peration     | Version:  2.4.0                                 |
|   \\  /    A nd           | Web:      www.OpenFOAM.org                      |
|    \\/     M anipulation  |                                                 |
\*---------------------------------------------------------------------------*/
FoamFile
{
    version     2.0;
    format      ascii;
    class       volVectorField;
    location    "3.5";
    object      U;
}
// * * * * * * * * * * * * * * * * * * * * * * * * * * * * * * * * * * * * * //

dimensions      [0 1 -1 0 0 0 0];

internalField   nonuniform List<vector> 
4800
(
(0.000306208 -0.000309587 6.91305e-08)
(1.65007e-05 0.000157588 0.00021755)
(-0.00184583 0.000665203 0.000445202)
(-0.00483876 0.00100823 0.000613802)
(-0.00856593 0.00120286 0.000679411)
(-0.0126858 0.00128683 0.00062163)
(-0.016915 0.00128773 0.000434172)
(-0.0210152 0.00121943 0.000117554)
(-0.0247765 0.00108931 -0.000322181)
(-0.0280218 0.00090948 -0.000872101)
(-0.000182954 -1.75713e-05 -0.000216638)
(-0.00248446 0.00239457 5.51123e-06)
(-0.00806825 0.00474659 0.000174361)
(-0.0159456 0.00644247 0.000274922)
(-0.0253717 0.00747656 0.000289076)
(-0.0356671 0.00794187 0.00020088)
(-0.0461912 0.0079251 3.63089e-06)
(-0.0563632 0.00748649 -0.000305048)
(-0.0656644 0.00668178 -0.00072384)
(-0.0736686 0.00560083 -0.0012462)
(-0.00077929 0.00197386 -0.000449719)
(-0.00521695 0.00809789 -0.000156284)
(-0.0143037 0.0135495 1.34784e-05)
(-0.026357 0.0175369 9.23939e-05)
(-0.0403735 0.0200189 8.90726e-05)
(-0.0554814 0.0211259 -5.35686e-06)
(-0.0708112 0.0210008 -0.0001952)
(-0.0855386 0.0197669 -0.000484304)
(-0.0989048 0.0175724 -0.000875825)
(-0.110274 0.0146686 -0.00136943)
(-0.00125764 0.00539236 -0.00060773)
(-0.00749735 0.0166115 -0.000227935)
(-0.0195445 0.0258878 -3.41485e-05)
(-0.0350073 0.0325808 4.68928e-05)
(-0.0526421 0.0367236 4.58883e-05)
(-0.0714425 0.0385037 -4.00193e-05)
(-0.0903831 0.0381065 -0.000213434)
(-0.108457 0.0357031 -0.000480817)
(-0.124695 0.0315369 -0.000851609)
(-0.138239 0.026064 -0.0013342)
(-0.00158565 0.00990558 -0.000615738)
(-0.00912787 0.0273303 -0.000160952)
(-0.0233516 0.0409659 5.84434e-05)
(-0.0412979 0.0506101 0.000152054)
(-0.0615271 0.0564978 0.00016667)
(-0.0829373 0.0589099 0.000102958)
(-0.104396 0.0580597 -4.25512e-05)
(-0.124756 0.0541293 -0.000281836)
(-0.142846 0.0474221 -0.000634491)
(-0.157513 0.0386005 -0.00112452)
(-0.00175716 0.0151212 -0.000424122)
(-0.0100201 0.0395157 8.65591e-05)
(-0.0254772 0.0578882 0.000327212)
(-0.0448332 0.070648 0.00044072)
(-0.0665262 0.0783273 0.000483483)
(-0.0894018 0.081333 0.000456984)
(-0.112271 0.0798883 0.00035363)
(-0.133891 0.0741281 0.00015203)
(-0.152908 0.0643272 -0.000183194)
(-0.16775 0.051269 -0.000706662)
(-0.00177233 0.0206145 -8.87453e-06)
(-0.0101384 0.0523106 0.000535592)
(-0.0257964 0.0755891 0.000789929)
(-0.0453741 0.0915326 0.00092851)
(-0.0672732 0.101018 0.00101137)
(-0.0903328 0.104601 0.00103875)
(-0.113364 0.102496 0.000995912)
(-0.135105 0.0947145 0.000848186)
(-0.154104 0.0813449 0.00053853)
(-0.16823 0.0630204 -4.91007e-05)
(-0.0016385 0.0259572 0.000630418)
(-0.00949902 0.0648215 0.00118663)
(-0.0243119 0.0929273 0.00144579)
(-0.0428687 0.111987 0.00161302)
(-0.0636048 0.123222 0.00174717)
(-0.0853799 0.127348 0.0018466)
(-0.107047 0.124571 0.00188807)
(-0.127423 0.114717 0.00182158)
(-0.145191 0.0974772 0.00156776)
(-0.157621 0.0727243 0.000893063)
(-0.00137563 0.030749 0.00147148)
(-0.00819086 0.0761926 0.00202014)
(-0.0212027 0.108772 0.00227505)
(-0.0375503 0.130688 0.00247209)
(-0.0557299 0.143454 0.00266553)
(-0.0745943 0.147957 0.00285324)
(-0.0930039 0.144444 0.00300421)
(-0.109867 0.132601 0.0030525)
(-0.124389 0.111669 0.00290849)
(-0.13368 0.0799194 0.00213251)
(-0.00102331 0.034664 0.00247179)
(-0.0064 0.0857042 0.00299909)
(-0.0168828 0.122126 0.00324086)
(-0.0300657 0.14639 0.00346467)
(-0.0444815 0.160179 0.00371899)
(-0.058861 0.164512 0.00400615)
(-0.071854 0.15973 0.00429695)
(-0.0820701 0.14551 0.00452156)
(-0.0892192 0.12096 0.00464811)
(-0.0922903 0.0833722 0.00405173)
(0.000311188 -0.000314103 7.36111e-08)
(2.36287e-05 0.000151711 1.37348e-06)
(-0.0018421 0.000651225 2.02965e-06)
(-0.00483615 0.000988505 2.59727e-06)
(-0.00856446 0.00117996 2.93631e-06)
(-0.0126853 0.00126239 3.07608e-06)
(-0.0169152 0.00126323 3.08411e-06)
(-0.0210163 0.00119624 2.96224e-06)
(-0.0247788 0.00106854 2.68985e-06)
(-0.0280252 0.000891768 2.24865e-06)
(-0.000175577 -2.48762e-05 -1.10197e-06)
(-0.00248143 0.0023926 3.32318e-07)
(-0.00807579 0.00473539 -1.15634e-06)
(-0.0159503 0.00642614 -1.8456e-06)
(-0.0253741 0.00745841 -2.19175e-06)
(-0.0356678 0.00792287 -2.40934e-06)
(-0.0461902 0.00790623 -2.41775e-06)
(-0.0563612 0.0074688 -2.24824e-06)
(-0.0656623 0.00666613 -1.97194e-06)
(-0.0736673 0.0055873 -1.70134e-06)
(-0.000763272 0.0019683 -1.93375e-06)
(-0.00520567 0.00810451 1.77723e-06)
(-0.0143106 0.0135527 9.69797e-08)
(-0.0263592 0.0175402 -5.99076e-08)
(-0.0403736 0.0200241 1.03151e-07)
(-0.0554811 0.0211321 9.57726e-08)
(-0.0708103 0.0210075 1.0371e-07)
(-0.0855373 0.0197738 1.48531e-07)
(-0.0989045 0.0175794 2.00686e-07)
(-0.110276 0.0146743 1.24577e-07)
(-0.00123465 0.00538754 -2.82035e-06)
(-0.00748098 0.0166157 2.4969e-06)
(-0.0195537 0.0258869 3.27347e-09)
(-0.0350092 0.0325782 -2.07727e-07)
(-0.052641 0.0367214 7.73076e-08)
(-0.0714415 0.0385019 1.09134e-07)
(-0.0903816 0.0381052 1.3976e-07)
(-0.108455 0.0357028 2.21365e-07)
(-0.124695 0.0315387 3.76109e-07)
(-0.138243 0.0260661 3.31072e-07)
(-0.0015581 0.00990264 -3.44839e-06)
(-0.00910932 0.0273328 2.93547e-06)
(-0.0233642 0.040964 -3.18466e-07)
(-0.041301 0.050606 -7.07668e-07)
(-0.0615261 0.0564933 -4.24698e-07)
(-0.0829361 0.0589053 -4.06526e-07)
(-0.104394 0.0580553 -3.63482e-07)
(-0.124751 0.0541261 -2.11602e-07)
(-0.142843 0.0474234 2.39206e-07)
(-0.15752 0.038604 4.62466e-07)
(-0.00172718 0.0151206 -3.7377e-06)
(-0.0100007 0.0395172 3.25372e-06)
(-0.0254922 0.0578872 -4.18939e-07)
(-0.0448373 0.0706456 -9.02254e-07)
(-0.0665255 0.0783243 -6.24283e-07)
(-0.0894007 0.0813294 -6.22267e-07)
(-0.112268 0.0798842 -6.09928e-07)
(-0.133884 0.0741245 -4.90684e-07)
(-0.152901 0.0643318 4.08e-07)
(-0.167765 0.0512809 1.27838e-06)
(-0.00174227 0.0206157 -3.65886e-06)
(-0.0101195 0.0523108 3.34996e-06)
(-0.0258126 0.075589 -4.47511e-07)
(-0.0453791 0.0915318 -9.87864e-07)
(-0.0672732 0.101017 -7.5316e-07)
(-0.0903325 0.104599 -7.84355e-07)
(-0.113361 0.102492 -8.71874e-07)
(-0.135092 0.0947098 -1.04849e-06)
(-0.154086 0.0813556 5.33124e-07)
(-0.168259 0.0630588 3.23976e-06)
(-0.00161007 0.0259602 -3.45175e-06)
(-0.00948138 0.0648207 3.20262e-06)
(-0.0243279 0.0929282 -4.10196e-07)
(-0.0428742 0.111988 -9.62216e-07)
(-0.0636055 0.123222 -7.87364e-07)
(-0.0853807 0.127347 -8.03117e-07)
(-0.107046 0.124566 -9.12776e-07)
(-0.1274 0.114702 -1.62624e-06)
(-0.145138 0.0974732 1.56301e-06)
(-0.157667 0.0727856 1.12696e-05)
(-0.0013508 0.0307539 -2.8943e-06)
(-0.00817561 0.0761913 2.8967e-06)
(-0.0212171 0.108774 -2.83321e-07)
(-0.0375559 0.130692 -8.06671e-07)
(-0.0557318 0.143458 -7.40879e-07)
(-0.0745987 0.14796 -8.04838e-07)
(-0.0930148 0.144442 -1.08555e-06)
(-0.10985 0.132568 -3.81407e-06)
(-0.124283 0.111594 -1.13364e-06)
(-0.133728 0.0798891 2.52942e-05)
(-0.00100342 0.03467 -2.10123e-06)
(-0.00638767 0.0857028 2.49926e-06)
(-0.0168941 0.122129 -4.33823e-08)
(-0.0300698 0.146398 -4.58146e-07)
(-0.0444828 0.160191 -4.87984e-07)
(-0.0588677 0.164535 -7.2015e-07)
(-0.0718872 0.159774 -1.53748e-06)
(-0.0821115 0.145575 -9.50254e-06)
(-0.0891294 0.121023 -2.22273e-05)
(-0.0923693 0.0834915 7.61757e-06)
(0.000311189 -0.000314102 -7.36261e-08)
(2.36302e-05 0.000151712 -1.37657e-06)
(-0.0018421 0.000651226 -2.03142e-06)
(-0.00483615 0.000988505 -2.59819e-06)
(-0.00856446 0.00117996 -2.93727e-06)
(-0.0126853 0.00126239 -3.07698e-06)
(-0.0169152 0.00126323 -3.085e-06)
(-0.0210163 0.00119624 -2.96314e-06)
(-0.0247788 0.00106854 -2.69072e-06)
(-0.0280252 0.000891768 -2.24939e-06)
(-0.000175577 -2.48749e-05 1.1024e-06)
(-0.00248142 0.0023926 -3.33849e-07)
(-0.00807579 0.00473539 1.15544e-06)
(-0.0159503 0.00642614 1.84474e-06)
(-0.0253741 0.00745841 2.19075e-06)
(-0.0356678 0.00792287 2.40848e-06)
(-0.0461902 0.00790623 2.41691e-06)
(-0.0563612 0.00746879 2.2473e-06)
(-0.0656623 0.00666613 1.97105e-06)
(-0.0736673 0.0055873 1.70062e-06)
(-0.000763271 0.0019683 1.9326e-06)
(-0.00520567 0.00810451 -1.77909e-06)
(-0.0143106 0.0135527 -9.82245e-08)
(-0.0263592 0.0175402 5.89845e-08)
(-0.0403736 0.0200241 -1.03935e-07)
(-0.0554811 0.0211321 -9.6454e-08)
(-0.0708103 0.0210075 -1.04466e-07)
(-0.0855373 0.0197738 -1.49399e-07)
(-0.0989045 0.0175794 -2.01548e-07)
(-0.110276 0.0146743 -1.25249e-07)
(-0.00123465 0.00538754 2.81864e-06)
(-0.00748098 0.0166157 -2.49846e-06)
(-0.0195537 0.0258869 -4.33419e-09)
(-0.0350092 0.0325782 2.07037e-07)
(-0.052641 0.0367214 -7.77979e-08)
(-0.0714415 0.0385019 -1.09607e-07)
(-0.0903816 0.0381052 -1.40474e-07)
(-0.108455 0.0357028 -2.22234e-07)
(-0.124695 0.0315387 -3.76915e-07)
(-0.138243 0.0260661 -3.31639e-07)
(-0.0015581 0.00990264 3.44726e-06)
(-0.00910932 0.0273328 -2.93656e-06)
(-0.0233642 0.040964 3.17726e-07)
(-0.041301 0.050606 7.07317e-07)
(-0.0615261 0.0564933 4.24362e-07)
(-0.0829361 0.0589053 4.05951e-07)
(-0.104394 0.0580553 3.62668e-07)
(-0.124751 0.0541261 2.10783e-07)
(-0.142843 0.0474234 -2.39843e-07)
(-0.15752 0.038604 -4.62905e-07)
(-0.00172718 0.0151206 3.7368e-06)
(-0.0100007 0.0395172 -3.25447e-06)
(-0.0254922 0.0578872 4.18351e-07)
(-0.0448373 0.0706456 9.01951e-07)
(-0.0665255 0.0783243 6.23802e-07)
(-0.0894007 0.0813294 6.21559e-07)
(-0.112268 0.0798842 6.09157e-07)
(-0.133884 0.0741245 4.90033e-07)
(-0.152901 0.0643318 -4.08427e-07)
(-0.167765 0.0512809 -1.27868e-06)
(-0.00174227 0.0206157 3.65823e-06)
(-0.0101195 0.0523108 -3.35052e-06)
(-0.0258126 0.075589 4.46931e-07)
(-0.0453791 0.0915318 9.87378e-07)
(-0.0672732 0.101017 7.52549e-07)
(-0.0903324 0.104599 7.83665e-07)
(-0.113361 0.102492 8.7129e-07)
(-0.135092 0.0947098 1.0481e-06)
(-0.154086 0.0813556 -5.33355e-07)
(-0.168259 0.0630588 -3.23999e-06)
(-0.00161007 0.0259602 3.45124e-06)
(-0.00948138 0.0648207 -3.20317e-06)
(-0.0243279 0.0929282 4.09582e-07)
(-0.0428742 0.111988 9.61701e-07)
(-0.0636055 0.123222 7.86884e-07)
(-0.0853807 0.127347 8.02685e-07)
(-0.107046 0.124566 9.1252e-07)
(-0.1274 0.114702 1.62606e-06)
(-0.145138 0.0974732 -1.56318e-06)
(-0.157667 0.0727856 -1.12699e-05)
(-0.0013508 0.0307539 2.89381e-06)
(-0.00817561 0.0761913 -2.89717e-06)
(-0.0212171 0.108774 2.82766e-07)
(-0.0375559 0.130692 8.06333e-07)
(-0.0557318 0.143458 7.40747e-07)
(-0.0745987 0.14796 8.0473e-07)
(-0.0930148 0.144442 1.08545e-06)
(-0.10985 0.132568 3.81388e-06)
(-0.124283 0.111594 1.13327e-06)
(-0.133728 0.0798891 -2.52948e-05)
(-0.00100342 0.03467 2.10086e-06)
(-0.00638767 0.0857028 -2.4996e-06)
(-0.0168941 0.122129 4.30877e-08)
(-0.0300698 0.146398 4.58098e-07)
(-0.0444828 0.160191 4.88045e-07)
(-0.0588677 0.164535 7.20056e-07)
(-0.0718872 0.159774 1.53723e-06)
(-0.0821115 0.145575 9.50218e-06)
(-0.0891294 0.121023 2.22267e-05)
(-0.0923693 0.0834915 -7.61807e-06)
(0.000306214 -0.00030958 -6.91147e-08)
(1.65118e-05 0.000157591 -0.000217547)
(-0.00184582 0.000665205 -0.0004452)
(-0.00483875 0.00100823 -0.000613801)
(-0.00856593 0.00120286 -0.00067941)
(-0.0126858 0.00128683 -0.000621629)
(-0.016915 0.00128773 -0.000434171)
(-0.0210152 0.00121943 -0.000117553)
(-0.0247765 0.00108931 0.000322181)
(-0.0280218 0.00090948 0.000872102)
(-0.000182953 -1.75597e-05 0.000216638)
(-0.00248446 0.00239458 -5.50961e-06)
(-0.00806825 0.00474659 -0.00017436)
(-0.0159456 0.00644247 -0.000274921)
(-0.0253717 0.00747656 -0.000289075)
(-0.0356671 0.00794187 -0.000200879)
(-0.0461912 0.0079251 -3.63e-06)
(-0.0563632 0.00748649 0.000305049)
(-0.0656644 0.00668178 0.000723841)
(-0.0736686 0.00560083 0.0012462)
(-0.00077929 0.00197386 0.00044972)
(-0.00521695 0.00809789 0.000156286)
(-0.0143037 0.0135495 -1.34771e-05)
(-0.026357 0.0175369 -9.23929e-05)
(-0.0403735 0.0200189 -8.90718e-05)
(-0.0554814 0.0211259 5.35758e-06)
(-0.0708112 0.0210008 0.000195201)
(-0.0855386 0.0197669 0.000484305)
(-0.0989048 0.0175724 0.000875825)
(-0.110274 0.0146686 0.00136943)
(-0.00125764 0.00539236 0.000607732)
(-0.00749735 0.0166115 0.000227937)
(-0.0195445 0.0258878 3.41497e-05)
(-0.0350073 0.0325808 -4.68921e-05)
(-0.0526421 0.0367236 -4.58878e-05)
(-0.0714425 0.0385036 4.00198e-05)
(-0.0903831 0.0381065 0.000213435)
(-0.108457 0.0357031 0.000480818)
(-0.124695 0.0315369 0.00085161)
(-0.138239 0.026064 0.0013342)
(-0.00158565 0.00990558 0.000615739)
(-0.00912787 0.0273303 0.000160953)
(-0.0233516 0.0409659 -5.84426e-05)
(-0.0412979 0.0506101 -0.000152054)
(-0.0615271 0.0564978 -0.000166669)
(-0.0829373 0.0589099 -0.000102957)
(-0.104396 0.0580597 4.25521e-05)
(-0.124756 0.0541293 0.000281837)
(-0.142846 0.0474221 0.000634491)
(-0.157513 0.0386005 0.00112452)
(-0.00175716 0.0151212 0.000424123)
(-0.0100201 0.0395157 -8.65583e-05)
(-0.0254772 0.0578882 -0.000327212)
(-0.0448332 0.070648 -0.00044072)
(-0.0665262 0.0783273 -0.000483483)
(-0.0894018 0.081333 -0.000456983)
(-0.112271 0.0798883 -0.00035363)
(-0.133891 0.0741281 -0.00015203)
(-0.152908 0.0643272 0.000183194)
(-0.16775 0.0512689 0.000706663)
(-0.00177233 0.0206145 8.8752e-06)
(-0.0101384 0.0523106 -0.000535591)
(-0.0257964 0.0755891 -0.000789928)
(-0.0453741 0.0915326 -0.000928509)
(-0.0672732 0.101018 -0.00101137)
(-0.0903328 0.104601 -0.00103875)
(-0.113364 0.102496 -0.000995912)
(-0.135105 0.0947145 -0.000848186)
(-0.154104 0.0813449 -0.00053853)
(-0.16823 0.0630204 4.91009e-05)
(-0.0016385 0.0259572 -0.000630418)
(-0.00949902 0.0648215 -0.00118663)
(-0.0243119 0.0929273 -0.00144579)
(-0.0428687 0.111987 -0.00161302)
(-0.0636048 0.123222 -0.00174717)
(-0.0853799 0.127348 -0.0018466)
(-0.107047 0.124571 -0.00188807)
(-0.127423 0.114717 -0.00182158)
(-0.145191 0.0974772 -0.00156776)
(-0.157621 0.0727243 -0.000893063)
(-0.00137562 0.030749 -0.00147148)
(-0.00819086 0.0761926 -0.00202014)
(-0.0212027 0.108772 -0.00227505)
(-0.0375503 0.130688 -0.00247209)
(-0.0557299 0.143454 -0.00266553)
(-0.0745943 0.147957 -0.00285324)
(-0.0930039 0.144444 -0.00300421)
(-0.109867 0.132601 -0.0030525)
(-0.124389 0.111669 -0.00290849)
(-0.13368 0.0799194 -0.00213251)
(-0.00102331 0.034664 -0.00247179)
(-0.0064 0.0857042 -0.00299909)
(-0.0168828 0.122126 -0.00324086)
(-0.0300657 0.14639 -0.00346467)
(-0.0444815 0.160179 -0.00371899)
(-0.058861 0.164512 -0.00400615)
(-0.071854 0.15973 -0.00429695)
(-0.0820701 0.14551 -0.00452156)
(-0.0892192 0.12096 -0.00464811)
(-0.0922903 0.0833722 -0.00405173)
(-0.0306382 0.000705412 -0.00151148)
(-0.0326117 0.000511309 -0.00221485)
(-0.0340183 0.000350104 -0.00295928)
(-0.0349783 0.000229661 -0.0037275)
(-0.0356167 0.000147762 -0.00450807)
(-0.0360427 9.7711e-05 -0.00529434)
(-0.0363435 7.23329e-05 -0.00608312)
(-0.0365855 6.5897e-05 -0.00687367)
(-0.0368198 7.44868e-05 -0.0076671)
(-0.0370858 9.55022e-05 -0.00846613)
(-0.0374137 0.000126721 -0.00927515)
(-0.0378235 0.000165097 -0.0101003)
(-0.0383207 0.000205397 -0.0109497)
(-0.0388885 0.000238763 -0.0118329)
(-0.0394763 0.000251513 -0.0127602)
(-0.0399879 0.000224786 -0.0137409)
(-0.0402713 0.000136406 -0.0147803)
(-0.040117 -3.32971e-05 -0.0158761)
(-0.0392773 -0.000296213 -0.0170123)
(-0.0375136 -0.000640448 -0.0181567)
(-0.0801171 0.00439583 -0.00185837)
(-0.0849952 0.00325176 -0.00254054)
(-0.088501 0.00229179 -0.0032742)
(-0.0909267 0.0015604 -0.00404401)
(-0.0925694 0.00104831 -0.00483818)
(-0.0936868 0.000720901 -0.00564848)
(-0.0944839 0.000538742 -0.00646972)
(-0.0951164 0.000467897 -0.00729926)
(-0.095701 0.000482267 -0.00813657)
(-0.0963237 0.000561373 -0.00898299)
(-0.0970441 0.000685757 -0.00984153)
(-0.0978931 0.000831184 -0.0107168)
(-0.098864 0.000962339 -0.0116149)
(-0.0998966 0.0010269 -0.0125428)
(-0.100856 0.000951734 -0.0135076)
(-0.10151 0.000644228 -0.0145151)
(-0.101515 3.76133e-06 -0.0155677)
(-0.100421 -0.00105225 -0.0166608)
(-0.0977127 -0.00255018 -0.0177803)
(-0.0929088 -0.00440685 -0.0188989)
(-0.119265 0.0114684 -0.00195592)
(-0.125908 0.00846551 -0.0026151)
(-0.130574 0.00596973 -0.00332945)
(-0.133741 0.00407922 -0.00408429)
(-0.135854 0.00275679 -0.00486765)
(-0.137274 0.00190574 -0.00567068)
(-0.138275 0.00142083 -0.00648745)
(-0.139056 0.00121209 -0.00731447)
(-0.13976 0.00120928 -0.00815031)
(-0.140487 0.00135574 -0.00899532)
(-0.141304 0.00159724 -0.00985143)
(-0.14224 0.00186833 -0.0107219)
(-0.143277 0.0020781 -0.0116113)
(-0.144331 0.00209737 -0.0125249)
(-0.145229 0.00175124 -0.0134685)
(-0.145676 0.000823993 -0.0144469)
(-0.145233 -0.00091353 -0.0154632)
(-0.143316 -0.00364538 -0.0165154)
(-0.13924 -0.00741478 -0.0175944)
(-0.132327 -0.0120094 -0.0186794)
(-0.148556 0.0200836 -0.00192323)
(-0.155782 0.0145911 -0.00258881)
(-0.16058 0.0101396 -0.00331037)
(-0.163668 0.00684408 -0.00407213)
(-0.165632 0.00458054 -0.00486131)
(-0.166899 0.00314039 -0.00566888)
(-0.16776 0.00231954 -0.00648887)
(-0.168412 0.00195289 -0.0073177)
(-0.168985 0.00191588 -0.00815365)
(-0.169566 0.00211058 -0.0089965)
(-0.170211 0.00244541 -0.00984725)
(-0.170943 0.00281234 -0.010708)
(-0.171746 0.00306345 -0.0115818)
(-0.172547 0.0029894 -0.0124728)
(-0.173189 0.00230521 -0.0133859)
(-0.173394 0.000653775 -0.0143269)
(-0.17272 -0.00235549 -0.0153014)
(-0.17053 -0.00705526 -0.0163135)
(-0.165998 -0.0135604 -0.0173627)
(-0.158195 -0.0215505 -0.0184391)
(-0.167957 0.0290001 -0.00175304)
(-0.174513 0.0204685 -0.00246044)
(-0.17836 0.0138341 -0.00321882)
(-0.180543 0.00911002 -0.00401063)
(-0.181765 0.00597016 -0.00482246)
(-0.182462 0.0040213 -0.00564611)
(-0.182885 0.00292559 -0.00647683)
(-0.183176 0.00243157 -0.00731198)
(-0.183419 0.00236122 -0.00815024)
(-0.183662 0.00258202 -0.0089912)
(-0.183938 0.00297552 -0.00983509)
(-0.184262 0.00340508 -0.0106827)
(-0.184635 0.00368322 -0.0115357)
(-0.185025 0.00353954 -0.0123965)
(-0.185349 0.00259399 -0.0132693)
(-0.185427 0.000347092 -0.0141607)
(-0.184913 -0.0037885 -0.0150804)
(-0.183212 -0.010378 -0.016041)
(-0.17939 -0.0197435 -0.0170556)
(-0.172144 -0.0315889 -0.0181346)
(-0.177058 0.0369925 -0.00143824)
(-0.181541 0.0249259 -0.00223755)
(-0.183322 0.0161207 -0.00306763)
(-0.183849 0.01021 -0.00391304)
(-0.183861 0.00647345 -0.00476233)
(-0.183704 0.00424389 -0.00561097)
(-0.183513 0.00302438 -0.00645761)
(-0.183326 0.0024815 -0.00730192)
(-0.183146 0.00239867 -0.00814383)
(-0.182966 0.00262707 -0.00898315)
(-0.182782 0.00304223 -0.00981945)
(-0.1826 0.00350432 -0.0106522)
(-0.182441 0.00381858 -0.011481)
(-0.182336 0.00369276 -0.0123062)
(-0.182317 0.00269224 -0.0131304)
(-0.182377 0.000200092 -0.0139602)
(-0.182383 -0.0045919 -0.0148092)
(-0.181931 -0.0125964 -0.0156996)
(-0.180102 -0.024589 -0.016663)
(-0.175096 -0.0406329 -0.0177496)
(-0.174916 0.042565 -0.000999215)
(-0.17567 0.0266317 -0.0019592)
(-0.174323 0.0160978 -0.00289588)
(-0.172679 0.00961912 -0.00381165)
(-0.171283 0.00581253 -0.00470473)
(-0.170227 0.00366973 -0.00557984)
(-0.169442 0.00254818 -0.00644209)
(-0.16882 0.00206666 -0.00729488)
(-0.168265 0.0020028 -0.00813991)
(-0.167708 0.00221901 -0.00897738)
(-0.167103 0.00261035 -0.00980617)
(-0.166442 0.00306326 -0.0106241)
(-0.165755 0.00341507 -0.0114284)
(-0.165128 0.00340628 -0.0122166)
(-0.164716 0.002618 -0.0129878)
(-0.164729 0.000388634 -0.0137463)
(-0.165364 -0.0042763 -0.0145078)
(-0.16664 -0.012723 -0.0153029)
(-0.167991 -0.0265315 -0.0161854)
(-0.16717 -0.0468468 -0.017278)
(-0.159535 0.0435484 -0.000493551)
(-0.154618 0.0239867 -0.00169813)
(-0.149476 0.013016 -0.00276354)
(-0.145724 0.00712155 -0.00374988)
(-0.143203 0.00401362 -0.00467813)
(-0.14155 0.00240851 -0.00557025)
(-0.14043 0.00162349 -0.00644087)
(-0.13959 0.00130945 -0.00729744)
(-0.138852 0.00128845 -0.00814315)
(-0.138099 0.00146433 -0.00897819)
(-0.137253 0.00177288 -0.00980044)
(-0.136283 0.00214847 -0.0106059)
(-0.13521 0.00249294 -0.0113889)
(-0.134134 0.00263502 -0.0121431)
(-0.133281 0.00226493 -0.0128627)
(-0.133042 0.00081872 -0.0135467)
(-0.133972 -0.00271231 -0.0142102)
(-0.136758 -0.0100095 -0.0148862)
(-0.141888 -0.0237707 -0.0156448)
(-0.147422 -0.047649 -0.016721)
(-0.126491 0.0374243 -0.000211916)
(-0.114182 0.0160811 -0.00168798)
(-0.105982 0.00710956 -0.00280122)
(-0.1014 0.00330575 -0.00379505)
(-0.0987875 0.0016458 -0.00471595)
(-0.0972486 0.000912117 -0.00559855)
(-0.096277 0.000597855 -0.00646236)
(-0.095569 0.000493311 -0.00731493)
(-0.0949405 0.00051174 -0.00815831)
(-0.0942727 0.000615876 -0.00899134)
(-0.0934858 0.000786605 -0.00981024)
(-0.0925313 0.00100687 -0.0106087)
(-0.0914009 0.00124833 -0.011378)
(-0.0901528 0.00145168 -0.0121067)
(-0.0889669 0.00148616 -0.0127813)
(-0.088236 0.00105772 -0.0133909)
(-0.0886452 -0.000513628 -0.0139434)
(-0.0915055 -0.0048464 -0.014444)
(-0.0992974 -0.0155045 -0.014937)
(-0.113108 -0.0405028 -0.0158176)
(-0.0643817 0.0229336 -0.000862185)
(-0.0480329 0.00661219 -0.00233027)
(-0.0413329 0.00201619 -0.0030838)
(-0.0389046 0.000647743 -0.0038321)
(-0.0378506 0.000223039 -0.00459682)
(-0.0373125 9.29539e-05 -0.00537444)
(-0.036992 5.80664e-05 -0.00616271)
(-0.0367494 5.74157e-05 -0.00695644)
(-0.0365107 7.40668e-05 -0.00775061)
(-0.0362273 0.000104677 -0.00854021)
(-0.0358601 0.000150027 -0.00931902)
(-0.0353749 0.000212021 -0.0100785)
(-0.0347437 0.000292092 -0.0108063)
(-0.0339533 0.000387906 -0.0114848)
(-0.0330264 0.000483009 -0.0120887)
(-0.0320738 0.000515094 -0.0125823)
(-0.0314384 0.000259768 -0.0129182)
(-0.0320818 -0.00113879 -0.0130599)
(-0.0376917 -0.00640568 -0.0128868)
(-0.0563734 -0.0256651 -0.0130302)
(-0.0306419 0.000690897 1.69243e-06)
(-0.0326148 0.000500051 1.18534e-06)
(-0.0340206 0.000341785 7.85972e-07)
(-0.0349798 0.00022372 4.97203e-07)
(-0.0356176 0.000143593 3.05876e-07)
(-0.0360432 9.47496e-05 1.90811e-07)
(-0.0363436 7.01007e-05 1.30938e-07)
(-0.0365854 6.40083e-05 1.10762e-07)
(-0.0368195 7.26403e-05 1.19537e-07)
(-0.0370854 9.34713e-05 1.50415e-07)
(-0.0374132 0.000124355 1.98527e-07)
(-0.0378229 0.000162338 2.58907e-07)
(-0.0383201 0.000202314 3.24066e-07)
(-0.0388879 0.000235609 3.81305e-07)
(-0.0394759 0.000248781 4.09618e-07)
(-0.0399879 0.000223271 3.75064e-07)
(-0.0402721 0.000137176 2.35232e-07)
(-0.040119 -2.90533e-05 -3.58263e-08)
(-0.0392811 -0.000287235 -5.12671e-07)
(-0.0375191 -0.000625992 -1.23051e-06)
(-0.0801161 0.00438383 -1.50523e-06)
(-0.0849936 0.00324192 -1.25705e-06)
(-0.088499 0.00228426 -9.94894e-07)
(-0.0909247 0.00155489 -7.60909e-07)
(-0.0925676 0.00104441 -5.70075e-07)
(-0.0936854 0.000718155 -4.29595e-07)
(-0.0944829 0.000536753 -3.39424e-07)
(-0.0951158 0.00046633 -2.93652e-07)
(-0.0957006 0.000480856 -2.84267e-07)
(-0.0963235 0.000559909 -3.01866e-07)
(-0.0970439 0.000684087 -3.34991e-07)
(-0.0978928 0.000829216 -3.68351e-07)
(-0.0988633 0.000960065 -3.8114e-07)
(-0.0998952 0.00102445 -3.45791e-07)
(-0.100854 0.000949412 -2.2851e-07)
(-0.101507 0.000642611 6.08992e-09)
(-0.101511 3.66388e-06 3.81348e-07)
(-0.100416 -0.00104983 8.88429e-07)
(-0.0977082 -0.00254419 1.49606e-06)
(-0.0929061 -0.00439721 2.06759e-06)
(-0.119267 0.0114705 -1.8236e-07)
(-0.125909 0.00846591 -3.21265e-07)
(-0.130574 0.00596969 -3.53591e-07)
(-0.13374 0.00407911 -3.36972e-07)
(-0.135852 0.00275679 -2.8854e-07)
(-0.137272 0.0019059 -2.30878e-07)
(-0.138274 0.00142117 -1.78534e-07)
(-0.139055 0.00121262 -1.37029e-07)
(-0.139759 0.00120999 -1.06735e-07)
(-0.140487 0.00135664 -8.61206e-08)
(-0.141304 0.00159829 -7.19617e-08)
(-0.14224 0.00186946 -5.96285e-08)
(-0.143276 0.00207916 -4.37479e-08)
(-0.14433 0.00209815 -1.77695e-08)
(-0.145227 0.0017515 2.67962e-08)
(-0.145673 0.000823455 9.71413e-08)
(-0.14523 -0.000915125 1.89212e-07)
(-0.143313 -0.00364799 2.96955e-07)
(-0.139239 -0.00741827 4.07863e-07)
(-0.132329 -0.0120153 3.45692e-07)
(-0.148561 0.0200801 -2.92033e-07)
(-0.155782 0.0145872 -4.74118e-07)
(-0.160578 0.010137 -4.7219e-07)
(-0.163666 0.00684266 -4.20539e-07)
(-0.16563 0.00457998 -3.3523e-07)
(-0.166897 0.00314038 -2.48596e-07)
(-0.167759 0.00231982 -1.76471e-07)
(-0.168411 0.00195331 -1.21608e-07)
(-0.168984 0.00191635 -8.22543e-08)
(-0.169565 0.00211106 -5.57574e-08)
(-0.17021 0.00244586 -3.89755e-08)
(-0.170942 0.00281269 -2.86458e-08)
(-0.171745 0.00306361 -2.19048e-08)
(-0.172546 0.00298927 -1.44517e-08)
(-0.173188 0.00230475 4.67501e-09)
(-0.173392 0.000653066 4.75592e-08)
(-0.172717 -0.00235628 1.00597e-07)
(-0.170527 -0.00705524 2.01026e-07)
(-0.165997 -0.0135581 3.93761e-07)
(-0.158201 -0.0215477 3.46341e-07)
(-0.167965 0.0289912 -8.00629e-07)
(-0.174512 0.0204609 -8.99357e-07)
(-0.178357 0.0138305 -7.29757e-07)
(-0.18054 0.00910865 -5.71247e-07)
(-0.181762 0.00597011 -4.02722e-07)
(-0.182459 0.00402185 -2.65198e-07)
(-0.182883 0.0029263 -1.69651e-07)
(-0.183175 0.00243226 -1.07754e-07)
(-0.183418 0.0023618 -7.03759e-08)
(-0.183662 0.00258248 -5.05089e-08)
(-0.183937 0.00297585 -4.31201e-08)
(-0.184262 0.00340526 -4.48583e-08)
(-0.184634 0.00368319 -5.32193e-08)
(-0.185024 0.00353925 -6.33571e-08)
(-0.185348 0.00259346 -5.61642e-08)
(-0.185425 0.000346566 -4.80181e-09)
(-0.18491 -0.00378854 4.84112e-08)
(-0.183206 -0.0103759 1.98277e-07)
(-0.179386 -0.0197349 6.9519e-07)
(-0.172154 -0.0315759 9.97092e-07)
(-0.177074 0.0369746 -1.7132e-06)
(-0.181536 0.0249137 -1.46403e-06)
(-0.183314 0.016117 -9.18532e-07)
(-0.183843 0.0102097 -6.15654e-07)
(-0.183857 0.00647458 -3.62598e-07)
(-0.183701 0.00424534 -1.91637e-07)
(-0.183511 0.00302567 -9.51525e-08)
(-0.183325 0.00248253 -4.38521e-08)
(-0.183145 0.00239946 -1.87442e-08)
(-0.182965 0.00262768 -9.1734e-09)
(-0.182781 0.00304269 -9.81521e-09)
(-0.1826 0.00350465 -1.8741e-08)
(-0.182441 0.00381874 -3.6046e-08)
(-0.182335 0.00369267 -6.10452e-08)
(-0.182316 0.00269189 -7.5878e-08)
(-0.182375 0.000199817 -4.58129e-08)
(-0.182378 -0.00459132 -2.51508e-08)
(-0.181919 -0.0125925 1.09345e-07)
(-0.180091 -0.0245726 1.19854e-06)
(-0.175112 -0.0406053 2.53841e-06)
(-0.174948 0.0425401 -4.56216e-06)
(-0.175655 0.0266236 -3.01544e-06)
(-0.174307 0.0161014 -1.39543e-06)
(-0.172671 0.00962345 -7.27889e-07)
(-0.171278 0.00581606 -3.09645e-07)
(-0.170225 0.00367235 -9.6093e-08)
(-0.169441 0.00254998 -1.20827e-08)
(-0.168819 0.00206793 1.5513e-08)
(-0.168265 0.00200379 1.89109e-08)
(-0.167707 0.00221989 1.12179e-08)
(-0.167103 0.00261122 -3.22444e-09)
(-0.166442 0.00306415 -2.39269e-08)
(-0.165755 0.00341591 -5.18724e-08)
(-0.165128 0.00340685 -8.96375e-08)
(-0.164715 0.00261802 -1.18417e-07)
(-0.164726 0.000388094 -6.11853e-08)
(-0.165357 -0.00427779 7.17959e-08)
(-0.166619 -0.0127255 3.62566e-07)
(-0.167965 -0.02652 2.90139e-06)
(-0.167202 -0.0468112 6.98216e-06)
(-0.159595 0.0435071 -7.75131e-06)
(-0.154586 0.023997 -3.15342e-06)
(-0.149457 0.0130378 -6.42123e-07)
(-0.145719 0.00713385 -2.4429e-07)
(-0.143201 0.00401989 3.08863e-08)
(-0.141549 0.00241192 1.27694e-07)
(-0.14043 0.00162544 1.20933e-07)
(-0.139589 0.00131079 9.95865e-08)
(-0.138852 0.00128969 8.25809e-08)
(-0.138098 0.00146573 7.05329e-08)
(-0.137253 0.0017746 6.05548e-08)
(-0.136283 0.00215056 4.81289e-08)
(-0.13521 0.0024953 2.59515e-08)
(-0.134135 0.00263724 -2.65109e-08)
(-0.133281 0.00226611 -1.03303e-07)
(-0.133042 0.000817318 -3.40883e-08)
(-0.13397 -0.00272079 9.6268e-08)
(-0.136737 -0.010032 -3.60044e-07)
(-0.141841 -0.0237839 2.56469e-06)
(-0.147481 -0.047593 1.1156e-05)
(-0.126564 0.0372274 -9.68508e-06)
(-0.114114 0.0160215 4.28978e-06)
(-0.10597 0.00709848 4.80574e-06)
(-0.10141 0.00329853 2.05377e-06)
(-0.0987927 0.00164043 1.0631e-06)
(-0.097251 0.000908767 6.45537e-07)
(-0.0962782 0.000595653 4.06436e-07)
(-0.0955693 0.000491664 3.08501e-07)
(-0.0949402 0.000510306 2.96706e-07)
(-0.0942721 0.000614425 3.33789e-07)
(-0.0934851 0.000784987 4.00474e-07)
(-0.0925308 0.00100503 4.79909e-07)
(-0.0914011 0.00124637 5.42337e-07)
(-0.0901543 0.00144994 5.11513e-07)
(-0.0889704 0.00148541 2.90081e-07)
(-0.0882447 0.00105895 -7.077e-08)
(-0.0886642 -0.000510315 -1.29375e-06)
(-0.0915018 -0.00483911 -5.9721e-06)
(-0.0992072 -0.0154401 -8.10903e-06)
(-0.113159 -0.0402467 1.20569e-05)
(-0.0644244 0.0227885 -5.38262e-05)
(-0.047874 0.00654324 -9.16802e-06)
(-0.0412878 0.00198838 -6.67598e-07)
(-0.0389002 0.000632039 -1.47351e-06)
(-0.0378476 0.000213886 -9.57978e-07)
(-0.0373104 8.77968e-05 -4.50688e-07)
(-0.036991 5.492e-05 -2.55419e-07)
(-0.0367491 5.51187e-05 -1.81419e-07)
(-0.0365107 7.19766e-05 -1.61224e-07)
(-0.0362275 0.000102407 -1.77631e-07)
(-0.0358604 0.000147337 -2.19749e-07)
(-0.0353752 0.000208816 -2.77182e-07)
(-0.034744 0.000288503 -3.35173e-07)
(-0.0339533 0.00038452 -3.67521e-07)
(-0.0330253 0.000481175 -2.83596e-07)
(-0.0320728 0.000517046 1.62451e-07)
(-0.0314408 0.000269111 6.00385e-07)
(-0.03204 -0.00111519 -1.99185e-06)
(-0.0374758 -0.00633157 3.9529e-06)
(-0.0563602 -0.0254703 6.81088e-05)
(-0.0306419 0.000690897 -1.69292e-06)
(-0.0326148 0.000500051 -1.18561e-06)
(-0.0340206 0.000341785 -7.86251e-07)
(-0.0349798 0.000223721 -4.97616e-07)
(-0.0356176 0.000143593 -3.06431e-07)
(-0.0360432 9.47498e-05 -1.91238e-07)
(-0.0363436 7.0101e-05 -1.31244e-07)
(-0.0365854 6.40085e-05 -1.10955e-07)
(-0.0368195 7.26401e-05 -1.19593e-07)
(-0.0370854 9.34712e-05 -1.50484e-07)
(-0.0374132 0.000124355 -1.98479e-07)
(-0.0378229 0.000162338 -2.58917e-07)
(-0.0383201 0.000202315 -3.24035e-07)
(-0.0388879 0.000235609 -3.81083e-07)
(-0.0394759 0.000248781 -4.09256e-07)
(-0.0399879 0.000223271 -3.7467e-07)
(-0.0402721 0.000137176 -2.34808e-07)
(-0.040119 -2.90532e-05 3.63541e-08)
(-0.0392811 -0.000287235 5.1341e-07)
(-0.0375191 -0.000625992 1.23157e-06)
(-0.0801161 0.00438383 1.50469e-06)
(-0.0849936 0.00324192 1.25662e-06)
(-0.088499 0.00228426 9.94512e-07)
(-0.0909247 0.00155489 7.60599e-07)
(-0.0925676 0.00104441 5.69712e-07)