/*--------------------------------*- C++ -*----------------------------------*\
| =========                 |                                                 |
| \\      /  F ield         | OpenFOAM: The Open Source CFD Toolbox           |
|  \\    /   O peration     | Version:  2.4.0                                 |
|   \\  /    A nd           | Web:      www.OpenFOAM.org                      |
|    \\/     M anipulation  |                                                 |
\*---------------------------------------------------------------------------*/
FoamFile
{
    version     2.0;
    format      ascii;
    class       volScalarField;
    location    "0.08";
    object      T;
}
// * * * * * * * * * * * * * * * * * * * * * * * * * * * * * * * * * * * * * //

dimensions      [0 0 0 1 0 0 0];

internalField   nonuniform List<scalar> 
1600
(
97.9408
93.8415
89.7992
85.8516
82.0359
78.389
74.9468
71.7441
68.8147
66.191
63.9039
61.9827
60.4545
59.3447
58.6763
58.47
58.744
59.514
60.7928
62.5903
64.9136
67.7667
71.1505
75.0627
79.498
84.4475
89.8996
95.8388
102.247
109.102
116.379
124.051
132.084
140.446
149.099
158.003
167.115
176.392
185.787
195.255
97.941
93.842
89.8
85.8527
82.0373
78.3908
74.9488
71.7465
68.8176
66.1945
63.908
61.9875
60.4602
59.3514
58.6841
58.4791
58.7545
59.5259
60.8061
62.6051
64.9298
67.7841
71.169
75.0821
79.5179
84.4677
89.9196
95.8585
102.266
109.12
116.396
124.066
132.098
140.458
149.109
158.011
167.122
176.397
185.79
195.256
97.9413
93.843
89.8016
85.8549
82.0403
78.3944
74.9532
71.7517
68.8237
66.2017
63.9166
61.9975
60.4719
59.3651
58.6999
58.4973
58.7752
59.5493
60.8323
62.634
64.9613
67.8181
71.2052
75.12
79.5571
84.5076
89.9596
95.8979
102.304
109.156
116.43
124.097
132.125
140.482
149.129
158.028
167.134
176.406
185.796
195.257
97.9419
93.8446
89.8043
85.8587
82.0451
78.4003
74.9603
71.7601
68.8336
66.2133
63.9301
62.0132
60.4901
59.386
58.7239
58.5246
58.8061
59.5839
60.8708
62.6763
65.0074
67.8677
71.2578
75.1752
79.6142
84.5659
90.0182
95.9559
102.36
109.21
116.48
124.143
132.167
140.519
149.16
158.053
167.154
176.42
185.804
195.26
97.9427
93.847
89.8083
85.8643
82.0523
78.4091
74.9709
71.7725
68.8481
66.23
63.9493
62.0353
60.5154
59.4147
58.7565
58.5613
58.8473
59.6298
60.9214
62.7318
65.0675
67.9322
71.3263
75.2471
79.6887
84.642
90.0948
96.0318
102.434
109.281
116.547
124.205
132.223
140.567
149.202
158.087
167.181
176.439
185.815
195.264
97.9438
93.8503
89.8138
85.872
82.0622
78.4212
74.9853
71.7894
68.8676
66.2524
63.9749
62.0643
60.5481
59.4516
58.7979
58.6076
58.8988
59.6867
60.9839
62.7999
65.1412
68.0111
71.4099
75.3348
79.7795
84.7349
90.1886
96.125
102.526
109.369
116.63
124.281
132.292
140.628
149.254
158.13
167.214
176.462
185.83
195.269
97.9453
93.8547
89.8212
85.8822
82.0752
78.4372
75.0043
71.8115
68.8929
66.2812
64.0074
62.1008
60.589
59.4973
58.8486
58.6638
58.9607
59.7547
61.0581
62.8803
65.2277
68.1035
71.5077
75.4372
79.8857
84.8436
90.2984
96.2344
102.633
109.472
116.728
124.372
132.374
140.701
149.316
158.181
167.254
176.491
185.846
195.274
97.9472
93.8603
89.8306
85.8954
82.0921
78.4578
75.0286
71.8396
68.925
66.3173
64.0478
62.1458
60.6389
59.5523
58.9092
58.7302
59.0333
59.8337
61.1437
62.9726
65.3266
68.2087
71.6187
75.5533
80.0059
84.9667
90.423
96.3587
102.755
109.59
116.84
124.476
132.468
140.784
149.387
158.24
167.299
176.523
185.866
195.281
97.9497
93.8675
89.8426
85.912
82.1134
78.4837
75.059
71.8747
68.9647
66.3618
64.0972
62.2003
60.6986
59.6176
58.9804
58.8076
59.1171
59.9241
61.2408
63.0765
65.4372
68.3257
71.7418
75.6817
80.1387
85.1027
90.5606
96.4962
102.89
109.721
116.964
124.592
132.574
140.878
149.468
158.306
167.351
176.56
185.888
195.288
97.9527
93.8765
89.8575
85.9327
82.1398
78.5157
75.0966
71.9177
69.0132
66.4157
64.1566
62.2653
60.7694
59.6943
59.0631
58.8965
59.2124
60.0259
61.3493
63.1916
65.5589
68.4537
71.8756
75.8208
80.2821
85.2494
90.7091
96.6448
103.037
109.864
117.101
124.719
132.69
140.981
149.557
158.379
167.408
176.601
185.913
195.296
97.9564
93.8875
89.8757
85.9581
82.1722
78.5548
75.1423
71.9699
69.0717
66.4805
64.2275
62.3422
60.8524
59.7833
59.1583
58.9978
59.3199
60.1397
61.4693
63.3178
65.691
68.5915
72.0188
75.9688
80.4343
85.4046
90.8662
96.8022
103.193
110.016
117.246
124.856
132.816
141.093
149.653
158.459
167.471
176.646
185.939
195.305
97.9608
93.9008
89.8979
85.9889
82.2113
78.6021
75.1974
72.0326
69.1417
66.5575
64.3113
62.4326
60.9491
59.8863
59.2673
59.1128
59.4406
60.2661
61.6011
63.4549
65.8331
68.7385
72.1702
76.1242
80.5931
85.5661
91.0293
96.9655
103.355
110.174
117.398
125
132.948
141.212
149.756
158.544
167.537
176.693
185.968
195.314
97.9662
93.9168
89.9244
86.0257
82.2581
78.6585
75.2632
72.1071
69.2246
66.6484
64.4097
62.5382
61.0614
60.0048
59.3917
59.2427
59.5757
60.4059
61.7454
63.6033
65.9853
68.8942
72.329
76.2859
80.7571
85.7319
91.1961
97.1324
103.52
110.336
117.555
125.148
133.086
141.336
149.864
158.634
167.608
176.744
185.998
195.325
97.9726
93.9359
89.956
86.0695
82.3137
78.7255
75.3409
72.1952
69.3223
66.755
64.5247
62.6608
61.191
60.1407
59.5333
59.3893
59.7267
60.5606
61.9034
63.7639
66.1482
69.0588
72.4952
76.4532
80.9253
85.9007
91.365
97.3006
103.687
110.5
117.714
125.3
133.227
141.464
149.977
158.728
167.682
176.797
186.03
195.335
97.9801
93.9583
89.9932
86.121
82.3792
78.8043
75.4323
72.2984
69.4365
66.8794
64.6583
62.8027
61.3402
60.2963
59.6943
59.5547
59.8956
60.7322
62.0767
63.9383
66.323
69.2336
72.6695
76.6267
81.098
86.0722
91.5353
97.4693
103.853
110.663
117.872
125.452
133.37
141.595
150.092
158.826
167.759
176.852
186.064
195.346
97.9889
93.9847
90.0367
86.1814
82.4558
78.8963
75.539
72.4187
69.5695
67.0238
64.8129
62.9663
61.5116
60.4741
59.8772
59.7415
60.085
60.923
62.2679
64.1289
66.5122
69.4206
72.8539
76.8083
81.2764
86.2477
91.7076
97.6386
104.019
110.826
118.03
125.603
133.513
141.726
150.209
158.925
167.838
176.91
186.098
195.357
97.9991
94.0153
90.0874
86.2517
82.5448
79.0033
75.6628
72.5582
69.7233
67.1906
64.9911
63.1544
61.7078
60.677
60.085
59.9526
60.2979
61.1362
62.48
64.3387
66.7186
69.623
73.0515
77.0007
81.4635
86.4295
91.8843
97.8103
104.186
110.987
118.186
125.753
133.655
141.858
150.327
159.026
167.919
176.968
186.134
195.369
98.011
94.0508
90.1461
86.3329
82.6478
79.1269
75.8058
72.7191
69.9005
67.3824
65.1957
63.3698
61.9321
60.9081
60.321
60.1915
60.5378
61.3753
62.7167
64.5715
66.9463
69.8445
73.2662
77.208
81.6632
86.6214
92.0688
97.9876
104.357
111.151
118.344
125.903
133.796
141.989
150.445
159.128
168.002
177.029
186.171
195.381
98.0246
94.0916
90.2137
86.4264
82.7663
79.2691
75.9702
72.9039
70.1038
67.6022
65.4298
63.6158
62.1878
61.1711
60.5888
60.4619
60.8086
61.6444
62.9822
64.8317
67.1997
70.0899
73.5027
77.435
81.8802
86.8285
92.2659
98.1752
104.535
111.321
118.505
126.056
133.94
142.122
150.565
159.232
168.087
177.091
186.209
195.394
98.0403
94.1385
90.2911
86.5337
82.9021
79.4319
76.1583
73.1153
70.3362
67.8531
65.6967
63.8961
62.4786
61.4698
60.8926
60.7682
61.1148
61.9481
63.2812
65.1241
67.4839
70.3645
73.7665
77.6871
82.1203
87.0561
92.4812
98.3783
104.727
111.501
118.674
126.214
134.087
142.257
150.687
159.339
168.174
177.156
186.249
195.407
98.0582
94.1921
90.3796
86.6561
83.0571
79.6178
76.3728
73.3562
70.6008
68.1386
66.0002
64.2145
62.8088
61.8085
61.2369
61.1149
61.4611
62.2914
63.619
65.4542
67.8045
70.6738
74.0633
77.9704
82.3894
87.3105
92.7208
98.6032
104.937
111.698
118.857
126.384
134.244
142.4
150.815
159.45
168.266
177.224
186.291
195.421
98.0786
94.2531
90.4805
86.7956
83.2336
79.8292
76.6168
73.6299
70.9013
68.4626
66.3443
64.5752
63.1826
62.1919
61.6263
61.5071
61.8528
62.6796
64.0011
65.8277
68.1672
71.024
74.3993
78.2912
82.6939
87.5982
92.9913
98.8564
105.173
111.917
119.06
126.57
134.414
142.554
150.952
159.568
168.362
177.297
186.335
195.436
98.1018
94.3225
90.5951
86.9541
83.434
80.0691
76.8934
73.9401
71.2416
68.8293
66.7336
64.9831
63.6051
62.6251
62.0663
61.9501
62.2954
63.1186
64.4333
66.2505
68.5782
71.4212
74.7811
78.6559
83.0405
87.9259
93.2994
99.1446
105.441
112.165
119.288
126.78
134.604
142.724
151.102
159.696
168.467
177.375
186.384
195.452
98.1281
94.4012
90.7251
87.1338
83.6611
80.3409
77.2065
74.2908
71.6261
69.2434
67.1728
65.4431
64.0815
63.1134
62.5624
62.4499
62.7949
63.6142
64.9219
66.7291
69.0442
71.8722
75.2151
79.0715
83.4362
88.3006
93.6522
99.475
105.749
112.45
119.55
127.018
134.819
142.916
151.27
159.839
168.583
177.461
186.438
195.47
98.158
94.4905
90.8725
87.3374
83.9182
80.6482
77.5602
74.6868
72.0597
69.71
67.6675
65.961
64.6176
63.6629
63.1207
63.0124
63.3576
64.1731
65.4734
67.27
69.5716
72.3837
75.7085
79.5448
83.8879
88.7293
94.0569
99.8547
106.103
112.777
119.851
127.292
135.067
143.136
151.461
160.001
168.713
177.558
186.499
195.49
98.1919
94.5917
91.0396
87.5679
84.209
80.9954
77.9594
75.1331
72.548
70.2349
68.2236
66.5427
65.2196
64.2799
63.7475
63.6443
63.99
64.8019
66.0946
67.8802
70.1677
72.9629
76.2683
80.0832
84.4029
89.2195
94.5209
100.291
106.511
113.156
120.2
127.61
135.352
143.39
151.681
160.186
168.862
177.668
186.568
195.512
98.2303
94.7065
91.2289
87.8288
84.5378
81.3875
78.4096
75.6358
73.0972
70.8245
68.8475
67.1949
65.8941
64.971
64.4497
64.3524
64.6991
65.5075
66.7926
68.5669
70.8396
73.617
76.902
80.6941
84.989
89.7789
95.0519
100.792
106.981
113.593
120.603
127.978
135.684
143.684
151.936
160.401
169.034
177.795
186.647
195.539
98.274
94.8369
91.4437
88.1246
84.9099
81.8304
78.9172
76.2014
73.7141
71.4858
69.5464
67.9247
66.6483
65.7434
65.2344
65.1439
65.4921
66.2972
67.5747
69.3373
71.5947
74.3536
77.6172
81.3852
85.6538
90.4153
95.6578
101.366
107.52
114.097
121.069
128.405
136.069
144.026
152.233
160.65
169.233
177.942
186.738
195.569
98.3238
94.9853
91.6879
88.4602
85.3313
82.3309
79.4894
76.8377
74.4066
72.2268
70.3282
68.74
67.49
66.6048
66.1092
66.0261
66.3764
67.1785
68.4483
70.199
72.4407
75.1803
78.4216
82.1646
86.4055
91.1368
96.3471
102.021
108.138
114.676
121.606
128.898
136.516
144.423
152.579
160.941
169.465
178.112
186.844
195.605
98.3808
95.1547
91.9664
88.8421
85.8094
82.8971
80.1349
77.5534
75.1836
73.0561
71.2014
69.6489
68.4271
67.5629
67.0817
67.0068
67.3595
68.1588
69.4209
71.1595
73.3851
76.1051
79.3233
83.0402
87.2522
91.952
97.1282
102.765
108.843
115.339
122.224
129.467
137.034
144.885
152.981
161.28
169.737
178.312
186.967
195.646
98.4462
95.3491
92.2852
89.278
86.3533
83.5388
80.8637
78.3587
76.0547
73.9832
72.1751
70.6604
69.4682
68.6261
68.1599
68.0937
68.4491
69.2456
70.5001
72.2264
74.4357
77.1355
80.3301
84.0202
88.2023
92.8694
98.0099
103.608
109.645
116.095
122.931
130.122
137.631
145.421
153.45
161.675
170.055
178.547
187.111
195.695
98.5218
95.5736
92.6522
89.7778
86.9741
84.2676
81.6876
79.2649
77.0313
75.0188
73.2593
71.7839
70.6222
69.8027
69.3519
69.2944
69.6526
70.4464
71.6931
73.4072
75.5998
78.2792
81.4499
85.1126
89.2642
93.8976
99.0013
104.56
110.552
116.955
123.74
130.874
138.321
146.042
153.995
162.138
170.427
178.822
187.28
195.752
98.6101
95.8349
93.0777
90.3542
87.6856
85.0978
82.6205
80.2853
78.1255
76.1742
74.4647
73.029
71.8981
71.1012
70.6657
70.6168
70.9776
71.7685
73.0073
74.7088
76.8849
79.5437
82.6902
86.3254
90.4461
95.0454
100.112
105.629
111.577
117.931
124.661
131.735
139.115
146.762
154.632
162.682
170.867
179.148
187.48
195.821
98.7145
96.1427
93.576
91.0238
88.5053
86.0466
83.6786
81.435
79.351
77.4618
75.8022
74.4059
73.3051
72.53
72.1089
72.068
72.4309
73.2185
74.4492
76.1382
78.2976
80.936
84.0585
87.6662
91.7562
96.3214
101.35
106.826
112.729
119.033
125.708
132.72
140.03
147.597
155.376
163.323
171.389
179.536
187.72
195.905
98.8402
96.5113
94.1671
91.8091
89.4556
87.135
84.881
82.7308
80.7226
78.8945
77.2833
75.9246
74.852
74.0971
73.6892
73.6551
74.0191
74.8029
76.0252
77.7015
79.8444
82.4627
85.5616
89.1425
93.2024
97.7342
102.726
108.162
114.02
120.274
126.894
133.844
141.083
148.567
156.25
164.083
172.016
180.008
188.014
196.01
98.9959
96.9632
94.8801
92.7403
90.565
88.3881
86.2494
84.1912
82.2561
80.4855
78.9192
77.5948
76.5475
75.8102
75.4133
75.3843
75.7483
76.5274
77.7408
79.4044
81.5311
84.1299
87.2062
90.7614
94.7926
99.2928
104.25
109.647
115.463
121.671
128.238
135.127
142.296
149.698
157.282
164.993
172.778
180.591
188.381
196.142
99.1977
97.5365
95.7589
93.8588
91.8693
89.8359
87.808
85.8357
83.9672
82.2479
80.7207
79.4255
78.3992
77.6759
77.287
77.261
77.6235
78.397
79.6012
81.2524
83.3635
85.9439
88.9991
92.5307
96.5357
101.007
105.932
111.295
117.073
123.238
129.757
136.592
143.697
151.022
158.509
166.097
173.72
181.328
188.849
196.311
99.4765
98.2973
96.8685
95.2185
93.4104
91.51
89.5809
87.6826
85.8698
84.1924
82.6963
81.4235
80.4127
79.6991
79.315
79.2896
79.649
80.4162
81.6113
83.2507
85.3477
87.9117
90.9485
94.4595
98.4421
102.889
107.788
113.121
118.867
124.997
131.477
138.266
145.317
152.576
159.978
167.452
174.916
182.295
189.479
196.546
99.9454
99.3661
98.2932
96.8791
95.2298
93.4388
91.587
89.7445
87.9723
86.3246
84.8497
83.5916
82.5902
81.8818
81.4993
81.4725
81.8279
82.589
83.7759
85.4054
87.4908
90.0419
93.0642
96.5595
100.525
104.953
109.832
115.144
120.867
126.971
133.422
140.178
147.19
154.401
161.74
169.128
176.458
183.621
190.42
196.959
100.809
100.987
100.207
98.951
97.3978
95.6671
93.8551
92.04
90.287
88.6526
87.1868
85.9344
84.936
84.2285
83.8452
83.816
84.1678
84.9242
86.1054
87.7284
89.8066
92.3496
95.3633
98.8493
102.805
107.222
112.09
117.39
123.099
129.189
135.624
142.361
149.35
156.532
163.834
171.172
178.425
185.462
191.992
197.984
)
;

boundaryField
{
    carasuperior
    {
        type            fixedGradient;
        gradient        uniform 100;
    }
    lateralizquierda
    {
        type            fixedValue;
        value           uniform 100;
    }
    lateralderecha
    {
        type            fixedValue;
        value           uniform 200;
    }
    carainferior
    {
        type            zeroGradient;
    }
    frontAndBack
    {
        type            empty;
    }
}


// ************************************************************************* //
