/*--------------------------------*- C++ -*----------------------------------*\
| =========                 |                                                 |
| \\      /  F ield         | OpenFOAM: The Open Source CFD Toolbox           |
|  \\    /   O peration     | Version:  2.4.0                                 |
|   \\  /    A nd           | Web:      www.OpenFOAM.org                      |
|    \\/     M anipulation  |                                                 |
\*---------------------------------------------------------------------------*/
FoamFile
{
    version     2.0;
    format      ascii;
    class       volScalarField;
    location    "0.82";
    object      T;
}
// * * * * * * * * * * * * * * * * * * * * * * * * * * * * * * * * * * * * * //

dimensions      [0 0 0 1 0 0 0];

internalField   nonuniform List<scalar> 
1600
(
101.412
104.234
107.054
109.87
112.679
115.481
118.273
121.053
123.82
126.572
129.307
132.025
134.722
137.399
140.054
142.685
145.292
147.874
150.43
152.96
155.463
157.939
160.389
162.812
165.209
167.581
169.929
172.254
174.557
176.839
179.103
181.35
183.581
185.798
188.003
190.198
192.385
194.565
196.741
198.914
101.413
104.237
107.059
109.876
112.688
115.491
118.284
121.066
123.835
126.588
129.325
132.044
134.743
137.422
140.077
142.71
145.318
147.9
150.456
152.986
155.489
157.965
160.414
162.837
165.234
167.605
169.952
172.275
174.577
176.858
179.12
181.365
183.595
185.81
188.014
190.207
192.392
194.57
196.744
198.915
101.414
104.242
107.068
109.889
112.704
115.51
118.307
121.092
123.864
126.621
129.361
132.083
134.784
137.465
140.123
142.757
145.366
147.95
150.508
153.038
155.542
158.017
160.466
162.888
165.283
167.653
169.998
172.319
174.618
176.897
179.156
181.397
183.623
185.835
188.035
190.224
192.405
194.58
196.75
198.917
101.417
104.25
107.081
109.907
112.727
115.539
118.341
121.131
123.908
126.669
129.414
132.139
134.845
137.529
140.19
142.827
145.439
148.025
150.583
153.115
155.619
158.095
160.543
162.963
165.357
167.724
170.066
172.384
174.68
176.954
179.208
181.445
183.666
185.872
188.066
190.25
192.426
194.594
196.758
198.92
101.421
104.261
107.099
109.932
112.759
115.578
118.386
121.183
123.966
126.733
129.483
132.214
134.925
137.613
140.278
142.919
145.534
148.122
150.683
153.216
155.72
158.196
160.643
163.062
165.454
167.819
170.157
172.471
174.761
177.03
179.279
181.509
183.723
185.922
188.109
190.285
192.453
194.614
196.77
198.924
101.425
104.274
107.12
109.962
112.798
115.625
118.442
121.247
124.037
126.812
129.569
132.306
135.023
137.717
140.387
143.032
145.651
148.242
150.806
153.34
155.845
158.321
160.768
163.185
165.574
167.936
170.27
172.579
174.863
177.125
179.366
181.589
183.794
185.985
188.162
190.329
192.487
194.639
196.785
198.929
101.43
104.29
107.147
109.999
112.845
115.682
118.508
121.322
124.122
126.905
129.671
132.416
135.14
137.84
140.517
143.167
145.79
148.385
150.951
153.488
155.994
158.47
160.916
163.331
165.718
168.075
170.404
172.707
174.985
177.239
179.472
181.685
183.88
186.06
188.226
190.382
192.529
194.668
196.803
198.935
101.436
104.308
107.177
110.041
112.899
115.747
118.585
121.41
124.22
127.014
129.788
132.543
135.275
137.983
140.666
143.322
145.95
148.549
151.119
153.658
156.165
158.642
161.086
163.5
165.883
168.236
170.56
172.856
175.126
177.372
179.594
181.796
183.98
186.148
188.301
190.444
192.577
194.703
196.824
198.942
101.443
104.328
107.211
110.089
112.96
115.822
118.673
121.51
124.332
127.137
129.922
132.686
135.427
138.144
140.834
143.497
146.131
148.735
151.308
153.85
156.359
158.835
161.279
163.691
166.071
168.419
170.737
173.026
175.287
177.523
179.734
181.924
184.095
186.248
188.388
190.515
192.632
194.742
196.847
198.95
101.451
104.352
107.25
110.144
113.03
115.906
118.771
121.622
124.457
127.274
130.071
132.847
135.598
138.324
141.023
143.693
146.333
148.942
151.519
154.063
156.574
159.051
161.494
163.903
166.279
168.622
170.934
173.215
175.467
177.692
179.891
182.068
184.224
186.362
188.485
190.595
192.695
194.787
196.875
198.958
101.46
104.378
107.294
110.204
113.107
116
118.88
121.747
124.596
127.427
130.237
133.024
135.787
138.523
141.23
143.908
146.555
149.17
151.751
154.298
156.81
159.287
161.729
164.136
166.508
168.846
171.151
173.423
175.665
177.879
180.065
182.227
184.367
186.488
188.593
190.684
192.765
194.838
196.905
198.969
101.469
104.407
107.342
110.271
113.192
116.103
119.001
121.884
124.749
127.595
130.419
133.219
135.993
138.74
141.457
144.143
146.797
149.417
152.003
154.553
157.067
159.544
161.985
164.389
166.757
169.089
171.387
173.65
175.882
178.083
180.255
182.402
184.525
186.627
188.712
190.783
192.842
194.893
196.938
198.98
101.48
104.438
107.394
110.344
113.285
116.216
119.133
122.034
124.916
127.778
130.618
133.432
136.219
138.977
141.704
144.399
147.06
149.686
152.276
154.829
157.344
159.822
162.261
164.662
167.026
169.352
171.641
173.896
176.116
178.304
180.462
182.592
184.697
186.78
188.843
190.891
192.927
194.954
196.975
198.992
101.492
104.473
107.452
110.424
113.388
116.34
119.277
122.198
125.099
127.979
130.834
133.663
136.463
139.233
141.971
144.675
147.344
149.976
152.57
155.126
157.643
160.12
162.557
164.955
167.314
169.633
171.915
174.159
176.368
178.543
180.685
182.798
184.883
186.945
188.986
191.01
193.02
195.021
197.015
199.005
101.504
104.511
107.515
110.512
113.5
116.475
119.435
122.377
125.298
128.196
131.069
133.914
136.729
139.511
142.26
144.974
147.65
150.288
152.887
155.446
157.963
160.44
162.875
165.269
167.622
169.935
172.208
174.442
176.638
178.798
180.925
183.019
185.085
187.124
189.14
191.138
193.121
195.093
197.059
199.02
101.518
104.553
107.584
110.608
113.622
116.622
119.606
122.571
125.514
128.433
131.324
134.186
137.016
139.812
142.573
145.296
147.98
150.625
153.228
155.789
158.308
160.784
163.217
165.607
167.954
170.259
172.522
174.744
176.927
179.072
181.181
183.257
185.301
187.316
189.307
191.277
193.231
195.172
197.107
199.036
101.534
104.599
107.66
110.713
113.755
116.783
119.793
122.783
125.75
128.69
131.601
134.481
137.327
140.138
142.911
145.644
148.337
150.988
153.596
156.16
158.68
161.155
163.585
165.97
168.31
170.606
172.859
175.069
177.238
179.366
181.457
183.511
185.532
187.523
189.487
191.427
193.349
195.258
197.158
199.053
101.55
104.649
107.743
110.828
113.901
116.959
119.998
123.014
126.006
128.969
131.902
134.801
137.665
140.491
143.277
146.021
148.723
151.381
153.994
156.561
159.082
161.555
163.982
166.362
168.695
170.982
173.223
175.419
177.572
179.682
181.753
183.785
185.781
187.745
189.68
191.589
193.478
195.35
197.215
199.071
101.569
104.703
107.833
110.954
114.061
117.151
120.221
123.267
126.286
129.274
132.23
135.15
138.032
140.874
143.674
146.431
149.142
151.807
154.425
156.995
159.517
161.989
164.413
166.787
169.112
171.388
173.616
175.798
177.933
180.024
182.072
184.08
186.05
187.985
189.888
191.764
193.616
195.451
197.275
199.091
101.589
104.763
107.933
111.091
114.236
117.362
120.465
123.543
126.591
129.607
132.588
135.53
138.432
141.292
144.107
146.876
149.598
152.271
154.894
157.468
159.99
162.461
164.88
167.248
169.564
171.829
174.044
176.209
178.325
180.395
182.419
184.4
186.34
188.244
190.113
191.953
193.767
195.56
197.342
199.113
101.611
104.83
108.042
111.243
114.428
117.593
120.733
123.846
126.926
129.972
132.979
135.946
138.869
141.747
144.579
147.361
150.094
152.776
155.405
157.982
160.505
162.975
165.39
167.751
170.057
172.31
174.51
176.657
178.752
180.798
182.796
184.748
186.656
188.525
190.358
192.158
193.93
195.679
197.414
199.137
101.635
104.903
108.163
111.41
114.64
117.847
121.028
124.178
127.294
130.371
133.408
136.4
139.347
142.245
145.094
147.891
150.636
153.326
155.962
158.543
161.067
163.535
165.945
168.299
170.595
172.834
175.018
177.145
179.219
181.239
183.208
185.127
187.001
188.831
190.623
192.381
194.107
195.808
197.492
199.163
101.662
104.983
108.296
111.595
114.874
118.128
121.353
124.544
127.698
130.81
133.878
136.899
139.87
142.791
145.658
148.47
151.228
153.928
156.571
159.155
161.68
164.146
166.552
168.897
171.182
173.407
175.573
177.679
179.728
181.721
183.658
185.543
187.378
189.167
190.914
192.624
194.301
195.949
197.579
199.192
101.692
105.073
108.444
111.799
115.132
118.438
121.712
124.948
128.143
131.293
134.395
137.446
140.445
143.388
146.275
149.104
151.875
154.586
157.236
159.824
162.35
164.814
167.214
169.551
171.824
174.034
176.18
178.264
180.287
182.249
184.152
185.999
187.793
189.536
191.234
192.891
194.513
196.104
197.674
199.223
101.725
105.172
108.608
112.026
115.419
118.782
122.108
125.394
128.634
131.825
134.964
138.048
141.075
144.043
146.951
149.798
152.583
155.305
157.962
160.555
163.082
165.543
167.938
170.265
172.526
174.719
176.845
178.904
180.899
182.828
184.695
186.501
188.249
189.942
191.586
193.186
194.746
196.274
197.778
199.258
101.762
105.283
108.791
112.278
115.738
119.163
122.548
125.887
129.176
132.412
135.59
138.709
141.767
144.762
147.693
150.558
153.358
156.091
158.756
161.353
163.881
166.34
168.728
171.046
173.292
175.468
177.572
179.606
181.57
183.464
185.291
187.053
188.751
190.39
191.975
193.511
195.005
196.462
197.894
199.296
101.804
105.406
108.994
112.559
116.092
119.587
123.035
126.433
129.776
133.059
136.28
139.437
142.527
145.55
148.505
151.39
154.205
156.95
159.623
162.224
164.753
167.209
169.591
171.898
174.131
176.288
178.369
180.375
182.307
184.164
185.948
187.661
189.306
190.886
192.406
193.872
195.291
196.671
198.022
199.339
101.85
105.545
109.223
112.874
116.488
120.058
123.577
127.039
130.439
133.774
137.04
140.237
143.362
146.414
149.394
152.299
155.131
157.887
160.569
163.175
165.704
168.157
170.532
172.828
175.046
177.183
179.241
181.218
183.115
184.932
186.671
188.333
189.919
191.435
192.884
194.274
195.61
196.903
198.164
199.386
101.902
105.701
109.479
113.226
116.931
120.585
124.181
127.712
131.174
134.563
137.878
141.117
144.278
147.361
150.366
153.293
156.141
158.91
161.6
164.21
166.74
169.19
171.557
173.842
176.044
178.162
180.194
182.141
184.002
185.777
187.468
189.074
190.599
192.045
193.417
194.721
195.967
197.164
198.324
199.439
101.962
105.877
109.768
113.623
117.428
121.174
124.853
128.459
131.987
135.435
138.801
142.084
145.283
148.398
151.429
154.377
157.242
160.023
162.722
165.336
167.867
170.313
172.673
174.947
177.132
179.229
181.235
183.151
184.975
186.707
188.346
189.894
191.352
192.722
194.011
195.223
196.367
197.456
198.502
199.499
102.029
106.077
110.096
114.071
117.988
121.835
125.604
129.29
132.889
136.399
139.817
143.145
146.383
149.53
152.589
155.558
158.44
161.234
163.941
166.56
169.091
171.533
173.885
176.147
178.316
180.392
182.372
184.256
186.042
187.728
189.314
190.801
192.188
193.478
194.675
195.785
196.818
197.787
198.704
199.567
102.106
106.305
110.47
114.58
118.62
122.578
126.445
130.216
133.889
137.462
140.935
144.31
147.586
150.766
153.851
156.843
159.741
162.547
165.262
167.885
170.417
172.855
175.2
177.45
179.603
181.657
183.612
185.463
187.21
188.85
190.382
191.805
193.118
194.322
195.421
196.42
197.329
198.163
198.934
199.645
102.195
106.569
110.9
115.162
119.339
123.416
127.387
131.248
134.997
138.636
142.164
145.585
148.9
152.113
155.224
158.236
161.151
163.969
166.692
169.319
171.85
174.285
176.623
178.861
180.998
183.032
184.961
186.781
188.489
190.084
191.561
192.918
194.154
195.268
196.262
197.14
197.912
198.593
199.197
199.735
102.3
106.877
111.399
115.833
120.159
124.365
128.445
132.399
136.226
139.93
143.513
146.979
150.333
153.576
156.713
159.745
162.675
165.505
168.235
170.866
173.397
175.829
178.159
180.386
182.508
184.523
186.427
188.216
189.888
191.437
192.86
194.153
195.311
196.331
197.215
197.963
198.583
199.091
199.504
199.841
102.425
107.244
111.986
116.612
121.101
125.443
129.636
133.683
137.587
141.355
144.991
148.501
151.89
155.163
158.323
161.374
164.319
167.159
169.896
172.53
175.062
177.49
179.814
182.031
184.14
186.136
188.017
189.779
191.415
192.922
194.294
195.523
196.604
197.53
198.299
198.909
199.363
199.677
199.867
199.969
102.578
107.69
112.689
117.528
122.191
126.673
130.979
135.116
139.094
142.921
146.606
150.156
153.578
156.878
160.06
163.128
166.086
168.936
171.679
174.317
176.849
179.274
181.593
183.801
185.898
187.878
189.739
191.476
193.081
194.55
195.874
197.044
198.052
198.888
199.541
200.007
200.281
200.379
200.307
200.126
102.777
108.253
113.549
118.62
123.461
128.081
132.494
136.715
140.76
144.641
148.369
151.954
155.405
158.728
161.928
165.012
167.981
170.84
173.589
176.229
178.762
181.186
183.5
185.701
187.788
189.756
191.6
193.316
194.895
196.331
197.615
198.734
199.677
200.429
200.974
201.296
201.382
201.237
200.851
200.321
103.05
108.996
114.628
119.936
124.948
129.694
134.201
138.495
142.596
146.522
150.286
153.9
157.375
160.717
163.933
167.029
170.009
172.874
175.629
178.273
180.807
183.23
185.541
187.738
189.818
191.776
193.608
195.308
196.867
198.278
199.53
200.609
201.499
202.183
202.634
202.828
202.73
202.323
201.556
200.582
103.51
110.036
116.003
121.532
126.693
131.542
136.123
140.473
144.617
148.576
152.367
156.004
159.496
162.853
166.082
169.188
172.175
175.047
177.806
180.453
182.989
185.412
187.723
189.917
191.993
193.946
195.77
197.459
199.006
200.4
201.63
202.682
203.536
204.172
204.557
204.656
204.409
203.76
202.569
201.021
104.357
111.62
117.862
123.54
128.792
133.7
138.321
142.7
146.866
150.843
154.648
158.297
161.799
165.164
168.399
171.511
174.503
177.378
180.14
182.789
185.326
187.75
190.059
192.253
194.326
196.276
198.096
199.78
201.32
202.706
203.924
204.96
205.794
206.403
206.751
206.798
206.467
205.683
204.199
202.071
)
;

boundaryField
{
    carasuperior
    {
        type            fixedGradient;
        gradient        uniform 100;
    }
    lateralizquierda
    {
        type            fixedValue;
        value           uniform 100;
    }
    lateralderecha
    {
        type            fixedValue;
        value           uniform 200;
    }
    carainferior
    {
        type            zeroGradient;
    }
    frontAndBack
    {
        type            empty;
    }
}


// ************************************************************************* //
