/*--------------------------------*- C++ -*----------------------------------*\
| =========                 |                                                 |
| \\      /  F ield         | OpenFOAM: The Open Source CFD Toolbox           |
|  \\    /   O peration     | Version:  2.4.0                                 |
|   \\  /    A nd           | Web:      www.OpenFOAM.org                      |
|    \\/     M anipulation  |                                                 |
\*---------------------------------------------------------------------------*/
FoamFile
{
    version     2.0;
    format      ascii;
    class       volScalarField;
    location    "0.007";
    object      T;
}
// * * * * * * * * * * * * * * * * * * * * * * * * * * * * * * * * * * * * * //

dimensions      [0 0 0 1 0 0 0];

internalField   nonuniform List<scalar> 
4800
(
100.194
100.581
100.968
101.354
101.738
102.117
102.487
102.844
103.182
103.493
100.581
101.742
102.903
104.063
105.217
106.358
107.475
108.552
109.571
110.511
100.968
102.903
104.841
106.778
108.71
110.625
112.503
114.319
116.039
117.626
101.354
104.063
106.779
109.499
112.22
114.927
117.593
120.182
122.64
124.908
101.738
105.218
108.71
112.22
115.745
119.268
122.762
126.174
129.431
132.438
102.117
106.359
110.625
114.927
119.269
123.641
128.012
132.323
136.471
140.314
102.488
107.476
112.504
117.595
122.763
128.013
133.323
138.632
143.817
148.66
102.845
108.554
114.321
120.184
126.177
132.325
138.634
145.068
151.502
157.641
103.182
109.573
116.042
122.644
129.435
136.475
143.819
151.504
159.482
167.46
103.494
110.514
117.631
124.914
132.445
140.321
148.666
157.645
167.462
178.222
100.194
100.581
100.968
101.354
101.738
102.117
102.487
102.844
103.182
103.493
100.581
101.742
102.903
104.063
105.217
106.359
107.475
108.552
109.571
110.511
100.968
102.903
104.841
106.778
108.71
110.625
112.503
114.319
116.039
117.626
101.354
104.063
106.779
109.499
112.22
114.927
117.593
120.182
122.64
124.908
101.738
105.218
108.71
112.22
115.745
119.269
122.762
126.174
129.431
132.438
102.117
106.359
110.625
114.927
119.269
123.641
128.012
132.323
136.471
140.314
102.488
107.476
112.504
117.595
122.763
128.013
133.323
138.633
143.817
148.66
102.845
108.554
114.321
120.184
126.177
132.325
138.634
145.068
151.502
157.641
103.183
109.573
116.042
122.644
129.435
136.475
143.82
151.504
159.482
167.46
103.494
110.514
117.631
124.915
132.446
140.321
148.666
157.646
167.463
178.223
100.194
100.581
100.968
101.354
101.738
102.117
102.487
102.844
103.182
103.493
100.581
101.742
102.903
104.063
105.217
106.359
107.475
108.552
109.571
110.511
100.968
102.903
104.841
106.778
108.71
110.625
112.503
114.319
116.039
117.626
101.354
104.063
106.779
109.499
112.22
114.927
117.593
120.182
122.64
124.908
101.738
105.218
108.71
112.22
115.745
119.269
122.762
126.174
129.431
132.438
102.117
106.359
110.625
114.927
119.269
123.641
128.012
132.323
136.471
140.314
102.488
107.476
112.504
117.595
122.763
128.013
133.323
138.633
143.817
148.66
102.845
108.554
114.321
120.184
126.177
132.325
138.634
145.068
151.502
157.641
103.183
109.573
116.042
122.644
129.435
136.475
143.82
151.504
159.482
167.46
103.494
110.514
117.631
124.915
132.446
140.321
148.666
157.646
167.463
178.223
100.194
100.581
100.968
101.354
101.738
102.117
102.487
102.844
103.182
103.493
100.581
101.742
102.903
104.063
105.217
106.358
107.475
108.552
109.571
110.511
100.968
102.903
104.841
106.778
108.71
110.625
112.503
114.319
116.039
117.626
101.354
104.063
106.779
109.499
112.22
114.927
117.593
120.182
122.64
124.908
101.738
105.218
108.71
112.22
115.745
119.268
122.762
126.174
129.431
132.438
102.117
106.359
110.625
114.927
119.269
123.641
128.012
132.323
136.471
140.314
102.488
107.476
112.504
117.595
122.763
128.013
133.323
138.632
143.817
148.66
102.845
108.554
114.321
120.184
126.177
132.325
138.634
145.068
151.502
157.641
103.182
109.573
116.042
122.644
129.435
136.475
143.819
151.504
159.482
167.46
103.494
110.514
117.631
124.914
132.445
140.321
148.666
157.645
167.462
178.222
103.773
104.016
104.222
104.391
104.526
104.63
104.707
104.762
104.796
104.813
104.813
104.796
104.761
104.707
104.63
104.526
104.391
104.222
104.016
103.773
111.354
112.087
112.704
113.208
113.609
113.916
114.144
114.304
114.405
114.454
114.454
114.405
114.304
114.144
113.916
113.608
113.208
112.703
112.086
111.353
119.045
120.272
121.298
122.13
122.784
123.283
123.65
123.906
124.067
124.145
124.145
124.067
123.905
123.649
123.281
122.782
122.128
121.297
120.271
119.044
126.928
128.659
130.087
131.229
132.114
132.78
133.266
133.602
133.812
133.914
133.913
133.812
133.601
133.265
132.779
132.112
131.227
130.086
128.657
126.926
135.1
137.347
139.164
140.584
141.662
142.459
143.032
143.423
143.667
143.783
143.783
143.666
143.422
143.03
142.457
141.66
140.581
139.162
137.345
135.098
143.687
146.464
148.638
150.28
151.49
152.363
152.978
153.393
153.649
153.77
153.77
153.648
153.392
152.977
152.361
151.488
150.278
148.636
146.462
143.685
152.869
156.186
158.643
160.408
161.655
162.526
163.125
163.522
163.764
163.878
163.878
163.763
163.521
163.123
162.524
161.653
160.406
158.641
156.184
152.867
162.943
166.765
169.342
171.053
172.194
172.96
173.473
173.806
174.007
174.102
174.101
174.007
173.805
173.472
172.959
172.193
171.052
169.34
166.764
162.941
174.494
178.591
180.906
182.268
183.11
183.649
183.999
184.223
184.357
184.419
184.419
184.356
184.223
183.998
183.648
183.109
182.267
180.905
178.591
174.494
188.984
192.199
193.422
194.004
194.328
194.526
194.651
194.73
194.777
194.799
194.799
194.777
194.73
194.651
194.525
194.328
194.003
193.422
192.199
188.983
103.773
104.016
104.222
104.391
104.526
104.63
104.707
104.761
104.796
104.812
104.812
104.795
104.761
104.707
104.629
104.525
104.391
104.222
104.016
103.772
111.354
112.086
112.704
113.208
113.608
113.916
114.144
114.304
114.405
114.454
114.454
114.405
114.303
114.143
113.915
113.607
113.207
112.702
112.085
111.352
119.045
120.272
121.298
122.13
122.783
123.282
123.649
123.905
124.067
124.144
124.144
124.066
123.904
123.648
123.28
122.781
122.127
121.296
120.27
119.043
126.928
128.658
130.087
131.228
132.113
132.78
133.265
133.601
133.812
133.913
133.913
133.811
133.6
133.264
132.778
132.111
131.225
130.084
128.655
126.925
135.1
137.347
139.164
140.583
141.661
142.459
143.031
143.423
143.666
143.783
143.782
143.665
143.421
143.029
142.456
141.658
140.58
139.16
137.343
135.097
143.687
146.464
148.638
150.28
151.489
152.363
152.978
153.392
153.648
153.769
153.769
153.647
153.391
152.976
152.36
151.486
150.276
148.634
146.461
143.684
152.869
156.186
158.643
160.407
161.654
162.525
163.124
163.521
163.763
163.878
163.877
163.762
163.52
163.122
162.523
161.651
160.404
158.64
156.182
152.866
162.943
166.765
169.342
171.053
172.194
172.96
173.472
173.805
174.006
174.101
174.1
174.006
173.804
173.47
172.958
172.192
171.05
169.339
166.762
162.94
174.494
178.591
180.906
182.268
183.109
183.648
183.998
184.222
184.356
184.418
184.418
184.355
184.222
183.997
183.647
183.108
182.266
180.904
178.589
174.492
188.984
192.199
193.422
194.003
194.328
194.525
194.651
194.73
194.777
194.799
194.799
194.777
194.73
194.65
194.525
194.327
194.003
193.421
192.198
188.982
103.773
104.016
104.222
104.391
104.526
104.63
104.707
104.761
104.796
104.812
104.812
104.795
104.761
104.707
104.629
104.525
104.391
104.222
104.016
103.772
111.354
112.086
112.704
113.208
113.608
113.916
114.144
114.304
114.405
114.454
114.454
114.405
114.303
114.143
113.915
113.607
113.207
112.702
112.085
111.352
119.045
120.272
121.298
122.13
122.783
123.282
123.649
123.905
124.067
124.144
124.144
124.066
123.904
123.648
123.28
122.781
122.127
121.296
120.27
119.043
126.928
128.658
130.087
131.228
132.113
132.78
133.265
133.601
133.812
133.913
133.913
133.811
133.6
133.264
132.778
132.111
131.225
130.084
128.655
126.925
135.1
137.347
139.164
140.583
141.661
142.459
143.031
143.423
143.666
143.783
143.782
143.665
143.421
143.029
142.456
141.658
140.58
139.16
137.343
135.097
143.687
146.464
148.638
150.28
151.489
152.363
152.978
153.392
153.648
153.769
153.769
153.647
153.391
152.976
152.36
151.486
150.276
148.634
146.461
143.684
152.869
156.186
158.643
160.407
161.654
162.525
163.124
163.521
163.763
163.878
163.877
163.762
163.52
163.122
162.523
161.651
160.404
158.64
156.182
152.866
162.943
166.765
169.342
171.053
172.194
172.96
173.472
173.805
174.006
174.101
174.1
174.006
173.804
173.47
172.958
172.192
171.05
169.339
166.762
162.94
174.494
178.591
180.906
182.268
183.109
183.648
183.998
184.222
184.356
184.418
184.418
184.355
184.222
183.997
183.647
183.108
182.266
180.904
178.589
174.492
188.984
192.199
193.422
194.003
194.328
194.525
194.651
194.73
194.777
194.799
194.799
194.777
194.73
194.65
194.525
194.327
194.003
193.421
192.198
188.982
103.773
104.016
104.222
104.391
104.526
104.63
104.707
104.762
104.796
104.813
104.813
104.796
104.761
104.707
104.63
104.526
104.391
104.222
104.016
103.773
111.354
112.087
112.704
113.208
113.609
113.916
114.144
114.304
114.405
114.454
114.454
114.405
114.304
114.144
113.916
113.608
113.208
112.703
112.086
111.353
119.045
120.272
121.298
122.13
122.784
123.283
123.65
123.906
124.067
124.145
124.145
124.067
123.905
123.649
123.281
122.782
122.128
121.297
120.271
119.044
126.928
128.659
130.087
131.229
132.114
132.78
133.266
133.602
133.812
133.914
133.913
133.812
133.601
133.265
132.779
132.112
131.227
130.086
128.657
126.926
135.1
137.347
139.164
140.584
141.662
142.459
143.032
143.423
143.667
143.783
143.783
143.666
143.422
143.03
142.457
141.66
140.581
139.162
137.345
135.098
143.687
146.464
148.638
150.28
151.49
152.363
152.978
153.393
153.649
153.77
153.77
153.648
153.392
152.977
152.361
151.488
150.278
148.636
146.462
143.685
152.869
156.186
158.643
160.408
161.655
162.526
163.125
163.522
163.764
163.878
163.878
163.763
163.521
163.123
162.524
161.653
160.406
158.641
156.184
152.867
162.943
166.765
169.342
171.053
172.194
172.96
173.473
173.806
174.007
174.102
174.101
174.007
173.805
173.472
172.959
172.193
171.052
169.34
166.764
162.941
174.494
178.591
180.906
182.268
183.11
183.649
183.999
184.223
184.357
184.419
184.419
184.356
184.223
183.998
183.648
183.109
182.267
180.905
178.591
174.494
188.984
192.199
193.422
194.004
194.328
194.526
194.651
194.73
194.777
194.799
194.799
194.777
194.73
194.651
194.525
194.328
194.003
193.422
192.199
188.983
103.493
103.182
102.844
102.488
102.117
101.738
101.354
100.968
100.581
100.194
110.511
109.571
108.553
107.476
106.359
105.218
104.064
102.904
101.743
100.581
117.625
116.039
114.319
112.503
110.625
108.711
106.779
104.842
102.904
100.968
124.907
122.639
120.181
117.594
114.927
112.221
109.5
106.779
104.064
101.354
132.437
129.43
126.174
122.762
119.269
115.745
112.221
108.711
105.218
101.738
140.313
136.47
132.323
128.013
123.642
119.27
114.929
110.626
106.36
102.117
148.659
143.816
138.633
133.324
128.014
122.765
117.596
112.506
107.477
102.488
157.641
151.502
145.069
138.635
132.327
126.179
120.186
114.323
108.555
102.845
167.461
159.483
151.505
143.822
136.478
129.438
122.646
116.044
109.575
103.183
178.223
167.464
157.648
148.669
140.324
132.448
124.917
117.633
110.516
103.495
103.492
103.181
102.844
102.487
102.116
101.737
101.353
100.967
100.58
100.193
110.509
109.57
108.551
107.474
106.358
105.217
104.062
102.903
101.741
100.58
117.624
116.037
114.317
112.502
110.624
108.709
106.778
104.84
102.903
100.967
124.905
122.638
120.18
117.592
114.926
112.219
109.499
106.778
104.063
101.353
132.435
129.429
126.172
122.761
119.267
115.744
112.22
108.71
105.217
101.737
140.311
136.469
132.321
128.011
123.64
119.268
114.927
110.625
106.359
102.116
148.658
143.814
138.631
133.322
128.012
122.763
117.595
112.504
107.476
102.487
157.639
151.5
145.067
138.633
132.325
126.177
120.184
114.321
108.554
102.845
167.459
159.481
151.503
143.82
136.476
129.436
122.645
116.043
109.573
103.182
178.222
167.462
157.646
148.667
140.322
132.446
124.915
117.632
110.514
103.494
103.492
103.181
102.844
102.487
102.116
101.737
101.353
100.967
100.58
100.193
110.509
109.57
108.551
107.474
106.358
105.217
104.062
102.903
101.741
100.58
117.624
116.037
114.317
112.502
110.624
108.709
106.778
104.84
102.903
100.967
124.905
122.638
120.18
117.592
114.926
112.219
109.499
106.778
104.063
101.353
132.435
129.429
126.172
122.761
119.267
115.744
112.22
108.71
105.217
101.737
140.311
136.469
132.321
128.011
123.64
119.268
114.927
110.625
106.359
102.116
148.658
143.814
138.631
133.322
128.012
122.763
117.595
112.504
107.476
102.487
157.639
151.5
145.067
138.633
132.325
126.177
120.184
114.321
108.554
102.845
167.459
159.481
151.503
143.82
136.476
129.436
122.645
116.043
109.573
103.182
178.222
167.462
157.646
148.667
140.322
132.446
124.915
117.632
110.514
103.494
103.493
103.182
102.844
102.488
102.117
101.738
101.354
100.968
100.581
100.194
110.511
109.571
108.553
107.476
106.359
105.218
104.064
102.904
101.743
100.581
117.625
116.039
114.319
112.503
110.625
108.711
106.779
104.842
102.904
100.968
124.907
122.639
120.181
117.594
114.927
112.221
109.5
106.779
104.064
101.354
132.437
129.43
126.174
122.762
119.269
115.745
112.221
108.711
105.218
101.738
140.313
136.47
132.323
128.013
123.642
119.27
114.929
110.626
106.36
102.117
148.659
143.816
138.633
133.324
128.014
122.765
117.596
112.506
107.477
102.488
157.641
151.502
145.069
138.635
132.327
126.179
120.186
114.323
108.555
102.845
167.461
159.483
151.505
143.822
136.478
129.438
122.646
116.044
109.575
103.183
178.223
167.464
157.648
148.669
140.324
132.448
124.917
117.633
110.516
103.495
188.986
174.501
162.953
152.882
143.701
135.114
126.941
119.055
111.361
103.775
192.203
178.601
166.78
156.203
146.484
137.367
128.676
120.286
112.096
104.02
193.427
180.919
169.362
158.668
148.665
139.191
130.112
121.318
112.717
104.227
194.01
182.286
171.08
160.441
150.317
140.621
131.262
122.156
113.226
104.398
194.336
183.134
172.231
161.7
151.541
141.712
132.159
122.82
113.632
104.534
194.537
183.681
173.011
162.588
152.432
142.528
132.842
123.332
113.948
104.641
194.667
184.043
173.541
163.21
153.073
143.126
133.351
123.717
114.188
104.722
194.752
184.284
173.9
163.639
153.522
143.552
133.717
123.997
114.363
104.782
194.806
184.439
174.135
163.924
153.824
143.842
133.969
124.191
114.485
104.824
194.839
184.532
174.276
164.097
154.01
144.022
134.127
124.314
114.562
104.85
194.853
184.575
174.341
164.178
154.098
144.108
134.204
124.374
114.601
104.863
194.852
184.571
174.337
164.174
154.097
144.109
134.206
124.377
114.603
104.864
194.834
184.52
174.261
164.085
154.006
144.025
134.136
124.324
114.571
104.853
194.795
184.412
174.103
163.901
153.817
143.85
133.989
124.214
114.502
104.83
194.729
184.229
173.84
163.598
153.511
143.571
133.755
124.039
114.395
104.794
194.62
183.936
173.429
163.139
153.061
143.167
133.423
123.794
114.245
104.743
194.436
183.464
172.803
162.471
152.427
142.613
132.977
123.469
114.048
104.677
194.091
182.681
171.849
161.517
151.563
141.885
132.403
123.057
113.801
104.595
193.338
181.321
170.398
160.185
150.426
140.962
131.694
122.558
113.504
104.497
191.278
178.869
168.239
158.404
148.996
139.845
130.857
121.976
113.162
104.384
188.984
174.499
162.95
152.879
143.699
135.112
126.939
119.054
111.359
103.774
192.201
178.598
166.777
156.201
146.482
137.364
128.674
120.285
112.094
104.019
193.425
180.916
169.359
158.665
148.663
139.189
130.11
121.316
112.715
104.226
194.008
182.283
171.077
160.439
150.314
140.618
131.26
122.154
113.224
104.397
194.335
183.131
172.228
161.698
151.538
141.71
132.157
122.818
113.63
104.533
194.535
183.678
173.008
162.586
152.43
142.526
132.84
123.33
113.946
104.64
194.665
184.04
173.538
163.207
153.07
143.123
133.348
123.715
114.186
104.721
194.75
184.28
173.896
163.636
153.519
143.549
133.715
123.995
114.361
104.781
194.804
184.436
174.132
163.921
153.821
143.839
133.967
124.189
114.483
104.822
194.837
184.529
174.273
164.094
154.007
144.019
134.124
124.311
114.56
104.849
194.851
184.571
174.338
164.174
154.095
144.105
134.201
124.371
114.598
104.862
194.85
184.567
174.333
164.171
154.094
144.106
134.204
124.374
114.601
104.863
194.831
184.516
174.258
164.082
154.003
144.022
134.133
124.322
114.569
104.852
194.793
184.408
174.1
163.897
153.814
143.847
133.986
124.211
114.5
104.829
194.727
184.226
173.836
163.594
153.508
143.567
133.752
124.037
114.393
104.793
194.618
183.932
173.425
163.136
153.057
143.163
133.42
123.791
114.243
104.742
194.433
183.46
172.799
162.467
152.423
142.61
132.973
123.466
114.046
104.676
194.089
182.677
171.845
161.513
151.559
141.881
132.4
123.054
113.799
104.594
193.336
181.317
170.394
160.181
150.422
140.958
131.691
122.555
113.502
104.495
191.275
178.865
168.235
158.4
148.992
139.841
130.854
121.973
113.159
104.382
188.984
174.499
162.95
152.879
143.699
135.112
126.939
119.054
111.359
103.774
192.201
178.598
166.777
156.201
146.482
137.364
128.674
120.285
112.094
104.019
193.425
180.916
169.359
158.665
148.663
139.189
130.11
121.316
112.715
104.226
194.008
182.283
171.077
160.439
150.314
140.618
131.26
122.154
113.224
104.397
194.335
183.131
172.228
161.698
151.538
141.71
132.157
122.818
113.63
104.533
194.535
183.678
173.008
162.586
152.43
142.526
132.84
123.33
113.946
104.64
194.665
184.04
173.538
163.207
153.07
143.123
133.348
123.715
114.186
104.721
194.75
184.28
173.896
163.636
153.519
143.549
133.715
123.995
114.361
104.781
194.804
184.436
174.132
163.921
153.821
143.839
133.967
124.189
114.483
104.822
194.837
184.529
174.273
164.094
154.007
144.019
134.124
124.311
114.56
104.849
194.851
184.571
174.338
164.174
154.095
144.105
134.201
124.371
114.598
104.862
194.85
184.567
174.333
164.171
154.094
144.106
134.204
124.374
114.601
104.863
194.831
184.516
174.258
164.082
154.003
144.022
134.133
124.322
114.569
104.852
194.793
184.408
174.1
163.897
153.814
143.847
133.986
124.211
114.5
104.829
194.727
184.226
173.836
163.594
153.508
143.567
133.752
124.037
114.393
104.793
194.618
183.932
173.425
163.136
153.057
143.163
133.42
123.791
114.243
104.742
194.433
183.46
172.799
162.467
152.423
142.61
132.973
123.466
114.046
104.676
194.089
182.677
171.845
161.513
151.559
141.881
132.4
123.054
113.799
104.594
193.336
181.317
170.394
160.181
150.422
140.958
131.691
122.555
113.502
104.495
191.275
178.865
168.235
158.4
148.992
139.841
130.854
121.973
113.159
104.382
188.986
174.501
162.953
152.882
143.701
135.114
126.941
119.055
111.361
103.775
192.203
178.601
166.78
156.203
146.484
137.367
128.676
120.286
112.096
104.02
193.427
180.919
169.362
158.668
148.665
139.191
130.112
121.318
112.717
104.227
194.01
182.286
171.08
160.441
150.317
140.621
131.262
122.156
113.226
104.398
194.336
183.134
172.231
161.7
151.541
141.712
132.159
122.82
113.632
104.534
194.537
183.681
173.011
162.588
152.432
142.528
132.842
123.332
113.948
104.641
194.667
184.043
173.541
163.21
153.073
143.126
133.351
123.717
114.188
104.722
194.752
184.284
173.9
163.639
153.522
143.552
133.717
123.997
114.363
104.782
194.806
184.439
174.135
163.924
153.824
143.842
133.969
124.191
114.485
104.824
194.839
184.532
174.276
164.097
154.01
144.022
134.127
124.314
114.562
104.85
194.853
184.575
174.341
164.178
154.098
144.108
134.204
124.374
114.601
104.863
194.852
184.571
174.337
164.174
154.097
144.109
134.206
124.377
114.603
104.864
194.834
184.52
174.261
164.085
154.006
144.025
134.136
124.324
114.571
104.853
194.795
184.412
174.103
163.901
153.817
143.85
133.989
124.214
114.502
104.83
194.729
184.229
173.84
163.598
153.511
143.571
133.755
124.039
114.395
104.794
194.62
183.936
173.429
163.139
153.061
143.167
133.423
123.794
114.245
104.743
194.436
183.464
172.803
162.471
152.427
142.613
132.977
123.469
114.048
104.677
194.091
182.681
171.849
161.517
151.563
141.885
132.403
123.057
113.801
104.595
193.338
181.321
170.398
160.185
150.426
140.962
131.694
122.558
113.504
104.497
191.278
178.869
168.239
158.404
148.996
139.845
130.857
121.976
113.162
104.384
184.179
174.64
165.287
156.199
147.313
138.567
129.917
121.33
112.784
104.259
177.949
170.229
162.077
153.797
145.494
137.198
128.916
120.647
112.385
104.128
172.927
166.255
159
151.425
143.673
135.821
127.908
119.957
111.983
103.996
168.914
162.872
156.25
149.236
141.96
134.51
126.941
119.294
111.596
103.869
165.716
160.077
153.9
147.315
140.428
133.322
126.059
118.686
111.24
103.751
163.195
157.828
151.967
145.703
139.122
132.298
125.292
118.154
110.927
103.648
161.262
156.082
150.443
144.415
138.066
131.463
124.661
117.715
110.668
103.563
159.856
154.803
149.318
143.454
137.272
130.83
124.182
117.379
110.469
103.498
158.939
153.966
148.576
142.818
136.743
130.407
123.86
117.154
110.335
103.454
158.486
153.552
148.208
142.501
136.479
130.195
123.699
117.042
110.269
103.436
184.176
174.636
165.283
156.195
147.309
138.564
129.914
121.327
112.782
104.258
177.945
170.225
162.073
153.794
145.49
137.195
128.913
120.644
112.383
104.127
172.924
166.252
158.997
151.421
143.67
135.817
127.904
119.954
111.981
103.995
168.911
162.869
156.247
149.232
141.957
134.506
126.938
119.291
111.593
103.867
165.713
160.074
153.897
147.312
140.425
133.319
126.055
118.682
111.237
103.75
163.192
157.825
151.964
145.7
139.119
132.295
125.288
118.15
110.924
103.646
161.259
156.079
150.441
144.412
138.063
131.459
124.657
117.71
110.664
103.56
159.853
154.801
149.315
143.451
137.269
130.826
124.177
117.374
110.464
103.494
158.936
153.963
148.573
142.814
136.74
130.403
123.856
117.149
110.329
103.449
158.484
153.549
148.205
142.498
136.476
130.191
123.695
117.036
110.262
103.43
184.176
174.636
165.283
156.195
147.309
138.564
129.914
121.327
112.782
104.258
177.945
170.225
162.073
153.794
145.49
137.195
128.913
120.644
112.383
104.127
172.924
166.252
158.997
151.421
143.67
135.817
127.904
119.954
111.981
103.995
168.911
162.869
156.247
149.232
141.957
134.506
126.938
119.291
111.593
103.867
165.713
160.074
153.897
147.312
140.425
133.319
126.055
118.682
111.237
103.749
163.192
157.825
151.964
145.7
139.119
132.295
125.288
118.15
110.924
103.646
161.259
156.079
150.441
144.412
138.063
131.459
124.657
117.71
110.664
103.56
159.853
154.801
149.315
143.451
137.269
130.826
124.177
117.374
110.464
103.494
158.936
153.963
148.573
142.814
136.74
130.403
123.856
117.149
110.329
103.449
158.484
153.549
148.205
142.498
136.476
130.191
123.695
117.036
110.262
103.43
184.179
174.64
165.287
156.199
147.313
138.567
129.917
121.33
112.784
104.259
177.949
170.229
162.077
153.797
145.494
137.198
128.916
120.647
112.385
104.128
172.927
166.255
159
151.425
143.673
135.821
127.908
119.957
111.983
103.996
168.914
162.872
156.25
149.236
141.96
134.509
126.941
119.294
111.596
103.869
165.716
160.077
153.9
147.315
140.428
133.322
126.059
118.686
111.24
103.751
163.195
157.828
151.967
145.703
139.122
132.298
125.292
118.154
110.927
103.648
161.261
156.082
150.443
144.415
138.066
131.463
124.661
117.715
110.668
103.563
159.856
154.803
149.318
143.454
137.272
130.83
124.182
117.379
110.469
103.498
158.939
153.966
148.576
142.817
136.743
130.407
123.86
117.154
110.335
103.454
158.486
153.552
148.208
142.501
136.479
130.195
123.699
117.042
110.269
103.436
192.851
195.62
196.794
197.432
197.836
198.113
198.308
198.441
198.525
198.566
198.566
198.526
198.442
198.31
198.116
197.839
197.435
196.797
195.623
192.853
184.459
188.458
190.922
192.53
193.638
194.425
194.986
195.374
195.619
195.738
195.739
195.621
195.377
194.99
194.431
193.645
192.538
190.929
188.465
184.464
178.585
182.835
185.907
188.133
189.765
190.966
191.84
192.453
192.843
193.033
193.035
192.846
192.459
191.848
190.975
189.775
188.145
185.919
182.847
178.595
174.132
178.394
181.744
184.336
186.327
187.839
188.963
189.76
190.272
190.524
190.525
190.277
189.768
188.974
187.852
186.342
184.354
181.762
178.413
174.15
170.658
174.873
178.345
181.148
183.374
185.108
186.419
187.361
187.971
188.271
188.274
187.978
187.372
186.434
185.126
183.396
181.173
178.372
174.9
170.685
167.944
172.102
175.625
178.547
180.922
182.808
184.255
185.305
185.989
186.327
186.33
185.998
185.319
184.275
182.833
180.952
178.58
175.661
172.14
167.983
165.87
169.975
173.515
176.503
178.972
180.958
182.499
183.626
184.364
184.731
184.734
184.375
183.644
182.524
180.99
179.01
176.546
173.562
170.026
165.922
164.362
168.426
171.968
174.992
177.517
179.567
181.169
182.348
183.124
183.51
183.515
183.137
182.37
181.199
179.605
177.562
175.044
172.026
168.489
164.428
163.378
167.413
170.952
173.994
176.551
178.638
180.278
181.488
182.287
182.686
182.691
182.302
181.513
180.312
178.682
176.603
174.054
171.019
167.486
163.455
162.891
166.912
170.448
173.498
176.068
178.173
179.83
181.056
181.866
182.271
182.276
181.882
181.083
179.867
178.22
176.124
173.563
170.521
166.991
162.975
192.853
195.622
196.796
197.433
197.837
198.114
198.308
198.441
198.525
198.566
198.566
198.525
198.442
198.309
198.115
197.838
197.433
196.796
195.621
192.851
184.462
188.461
190.924
192.533
193.64
194.426
194.987
195.374
195.619
195.738
195.739
195.621
195.376
194.989
194.429
193.643
192.536
190.927
188.462
184.461
178.588
182.838
185.91
188.136
189.767
190.967
191.841
192.454
192.843
193.033
193.034
192.846
192.458
191.847
190.974
189.774
188.143
185.917
182.844
178.592
174.135
178.397
181.747
184.339
186.329
187.84
188.964
189.761
190.273
190.524
190.525
190.277
189.767
188.972
187.851
186.341
184.352
181.76
178.41
174.147
170.661
174.876
178.348
181.151
183.376
185.109
186.42
187.362
187.971
188.271
188.273
187.977
187.371
186.433
185.125
183.394
181.171
178.37
174.898
170.682
167.947
172.104
175.627
178.549
180.924
182.81
184.256
185.305
185.989
186.327
186.33
185.997
185.318
184.273
182.831
180.95
178.578
175.659
172.138
167.981
165.873
169.978
173.517
176.506
178.974
180.96
182.5
183.626
184.364
184.731
184.734
184.374
183.643
182.522
180.988
179.008
176.544
173.56
170.023
165.92
164.365
168.429
171.97
174.994
177.519
179.569
181.17
182.349
183.124
183.51
183.514
183.136
182.369
181.198
179.603
177.56
175.042
172.024
168.486
164.426
163.381
167.416
170.955
173.997
176.552
178.64
180.279
181.489
182.287
182.686
182.691
182.301
181.512
180.311
178.68
176.601
174.052
171.017
167.484
163.452
162.894
166.915
170.451
173.5
176.07
178.175
179.831
181.057
181.866
182.271
182.276
181.881
181.082
179.866
178.219
176.123
173.561
170.519
166.989
162.972
192.853
195.622
196.796
197.433
197.837
198.114
198.308
198.441
198.525
198.566
198.566
198.525
198.442
198.309
198.115
197.838
197.433
196.796
195.621
192.851
184.462
188.461
190.924
192.533
193.64
194.426
194.987
195.374
195.619
195.738
195.739
195.621
195.376
194.989
194.429
193.643
192.536
190.927
188.462
184.461
178.588
182.838
185.91
188.136
189.767
190.967
191.842
192.454
192.843
193.033
193.034
192.846
192.458
191.847
190.974
189.774
188.143
185.917
182.844
178.592
174.135
178.397
181.747
184.339
186.329
187.84
188.964
189.761
190.273
190.524
190.525
190.277
189.767
188.972
187.851
186.341
184.352
181.76
178.41
174.147
170.661
174.876
178.348
181.151
183.376
185.109
186.42
187.362
187.971
188.271
188.273
187.977
187.371
186.433
185.125
183.394
181.171
178.37
174.898
170.682
167.947
172.104
175.627
178.549
180.924
182.81
184.256
185.305
185.989
186.327
186.33
185.997
185.318
184.273
182.831
180.95
178.578
175.659
172.138
167.981
165.873
169.978
173.517
176.506
178.974
180.96
182.5
183.626
184.364
184.731
184.734
184.374
183.643
182.522
180.988
179.008
176.544
173.56
170.023
165.92
164.365
168.429
171.97
174.994
177.519
179.568
181.17
182.349
183.124
183.51
183.514
183.136
182.369
181.198
179.603
177.56
175.042
172.023
168.486
164.426
163.38
167.416
170.954
173.996
176.552
178.64
180.279
181.489
182.287
182.686
182.69
182.301
181.512
180.31
178.68
176.601
174.052
171.017
167.483
163.452
162.893
166.914
170.451
173.5
176.07
178.175
179.831
181.057
181.866
182.271
182.276
181.881
181.082
179.866
178.218
176.123
173.561
170.519
166.989
162.972
192.851
195.62
196.794
197.432
197.836
198.113
198.308
198.441
198.525
198.566
198.566
198.526
198.442
198.31
198.116
197.839
197.435
196.797
195.623
192.853
184.459
188.458
190.922
192.53
193.638
194.425
194.986
195.374
195.619
195.738
195.739
195.621
195.377
194.991
194.431
193.645
192.538
190.929
188.465
184.464
178.585
182.835
185.907
188.133
189.765
190.966
191.84
192.453
192.843
193.033
193.035
192.846
192.459
191.848
190.975
189.775
188.145
185.919
182.847
178.595
174.132
178.395
181.744
184.336
186.327
187.839
188.963
189.76
190.273
190.524
190.525
190.277
189.768
188.974
187.852
186.342
184.354
181.762
178.413
174.15
170.658
174.873
178.345
181.149
183.374
185.108
186.419
187.361
187.971
188.271
188.274
187.978
187.372
186.434
185.126
183.396
181.173
178.372
174.9
170.685
167.944
172.102
175.625
178.547
180.923
182.808
184.255
185.305
185.989
186.327
186.33
185.998
185.319
184.275
182.833
180.952
178.58
175.661
172.14
167.983
165.87
169.975
173.515
176.503
178.972
180.958
182.499
183.626
184.364
184.731
184.734
184.375
183.644
182.524
180.99
179.009
176.546
173.562
170.026
165.922
164.362
168.426
171.968
174.992
177.517
179.567
181.169
182.348
183.124
183.51
183.514
183.137
182.37
181.199
179.605
177.562
175.044
172.025
168.489
164.428
163.378
167.413
170.952
173.994
176.55
178.638
180.277
181.488
182.287
182.686
182.691
182.302
181.513
180.312
178.681
176.602
174.054
171.019
167.486
163.454
162.891
166.912
170.448
173.498
176.068
178.173
179.83
181.056
181.866
182.271
182.276
181.882
181.082
179.867
178.22
176.124
173.563
170.521
166.991
162.975
104.259
112.785
121.334
129.922
138.574
147.319
156.205
165.291
174.642
184.178
104.128
112.386
120.649
128.92
137.203
145.499
153.801
162.079
170.228
177.945
103.995
111.983
119.958
127.909
135.822
143.674
151.424
158.997
166.249
172.918
103.867
111.594
119.292
126.938
134.505
141.954
149.227
156.239
162.858
168.898
103.749
111.234
118.679
126.05
133.31
140.413
147.296
153.878
160.052
165.689
103.645
110.918
118.141
125.275
132.276
139.095
145.671
151.932
157.79
163.156
103.558
110.655
117.695
124.635
131.428
138.026
144.369
150.393
156.03
161.208
103.49
110.453
117.352
124.144
130.782
137.217
143.393
149.252
154.736
159.788
103.445
110.315
117.117
123.81
130.346
136.674
142.742
148.497
153.885