/*--------------------------------*- C++ -*----------------------------------*\
| =========                 |                                                 |
| \\      /  F ield         | OpenFOAM: The Open Source CFD Toolbox           |
|  \\    /   O peration     | Version:  2.4.0                                 |
|   \\  /    A nd           | Web:      www.OpenFOAM.org                      |
|    \\/     M anipulation  |                                                 |
\*---------------------------------------------------------------------------*/
FoamFile
{
    version     2.0;
    format      ascii;
    class       volScalarField;
    location    "2.7";
    object      p;
}
// * * * * * * * * * * * * * * * * * * * * * * * * * * * * * * * * * * * * * //

dimensions      [0 2 -2 0 0 0 0];

internalField   nonuniform List<scalar> 
4800
(
-2.49451e-06
-0.00159276
-0.00325303
-0.00447352
-0.00493254
-0.0044803
-0.00307057
-0.000707681
0.00256277
0.0066446
0.00158166
-3.87569e-05
-0.00121652
-0.00190729
-0.00198874
-0.00135171
5.0507e-05
0.00223444
0.00518859
0.00886567
0.00327932
0.00109001
-9.51771e-05
-0.00063175
-0.000588161
9.38845e-05
0.00144547
0.00349297
0.00625688
0.00973264
0.00441861
0.00158108
0.000223762
-0.000327615
-0.000298626
0.000325577
0.00156483
0.00346364
0.00608645
0.00948789
0.00445349
0.00110288
-0.00043677
-0.00107588
-0.001154
-0.000681975
0.000366307
0.0020737
0.00457601
0.00803399
0.0030229
-0.000632401
-0.00232142
-0.00309801
-0.00336948
-0.00315293
-0.00239378
-0.000943978
0.00144492
0.00514355
-4.6842e-05
-0.00376948
-0.00555309
-0.00650247
-0.00705002
-0.00720408
-0.00686136
-0.00578281
-0.00356139
0.000600583
-0.00475802
-0.00831059
-0.0101254
-0.011272
-0.0121733
-0.0128239
-0.0130623
-0.0125468
-0.0106961
-0.00587316
-0.0109462
-0.0141195
-0.015901
-0.0172531
-0.0185647
-0.0198259
-0.0208229
-0.0211159
-0.0200271
-0.0143705
-0.0183006
-0.0209392
-0.022625
-0.0241617
-0.0258964
-0.0278491
-0.0298217
-0.0313797
-0.0322844
-0.0278412
-5.04036e-06
-0.00161453
-0.00328472
-0.00451387
-0.00497803
-0.00452783
-0.00311806
-0.000753377
0.00252125
0.00660989
0.00159837
-4.38406e-05
-0.00119952
-0.00188008
-0.00195637
-0.00131595
8.70965e-05
0.00226784
0.00521775
0.0088908
0.00330918
0.00106377
-9.66095e-05
-0.000630816
-0.000589578
9.26488e-05
0.00144425
0.00349098
0.00625407
0.00973092
0.00446232
0.00154443
0.000223763
-0.000324499
-0.00029968
0.000324081
0.0015629
0.0034605
0.00608101
0.0094831
0.00450702
0.00105995
-0.000431977
-0.00106539
-0.00114768
-0.000675923
0.000371721
0.00207687
0.00457254
0.00802724
0.00308117
-0.000679842
-0.0023151
-0.00308466
-0.00336024
-0.00314374
-0.00238478
-0.000936758
0.00143894
0.0051248
1.10584e-05
-0.00381815
-0.00554632
-0.00648786
-0.0070389
-0.00719252
-0.00684855
-0.00576743
-0.00356924
0.000553034
-0.00470419
-0.00835721
-0.0101192
-0.0112578
-0.0121616
-0.012812
-0.0130488
-0.012523
-0.0107192
-0.00603881
-0.0109012
-0.0141617
-0.0158967
-0.0172411
-0.0185538
-0.019814
-0.0208068
-0.0210598
-0.0200105
-0.0147424
-0.018268
-0.0209756
-0.0226243
-0.0241549
-0.0258891
-0.0278383
-0.0297988
-0.0312396
-0.0319573
-0.0279522
-5.28392e-06
-0.00161474
-0.00328491
-0.00451401
-0.00497812
-0.00452789
-0.0031181
-0.000753399
0.00252124
0.00660988
0.00159815
-4.40284e-05
-0.00119968
-0.00188021
-0.00195646
-0.00131601
8.70596e-05
0.00226782
0.00521774
0.00889079
0.00330899
0.0010636
-9.67507e-05
-0.000630926
-0.000589654
9.2599e-05
0.00144422
0.00349096
0.00625406
0.00973092
0.00446217
0.0015443
0.000223654
-0.000324584
-0.00029974
0.000324042
0.00156288
0.00346048
0.006081
0.0094831
0.00450691
0.00105985
-0.000432057
-0.00106546
-0.00114773
-0.000675953
0.000371701
0.00207686
0.00457254
0.00802724
0.00308109
-0.000679909
-0.00231516
-0.0030847
-0.00336028
-0.00314376
-0.0023848
-0.000936766
0.00143894
0.0051248
1.10075e-05
-0.0038182
-0.00554636
-0.00648789
-0.00703892
-0.00719253
-0.00684855
-0.00576744
-0.00356924
0.000553033
-0.00470423
-0.00835724
-0.0101192
-0.0112578
-0.0121616
-0.012812
-0.0130488
-0.012523
-0.0107192
-0.00603881
-0.0109013
-0.0141617
-0.0158968
-0.0172411
-0.0185538
-0.019814
-0.0208068
-0.0210598
-0.0200105
-0.0147424
-0.018268
-0.0209757
-0.0226243
-0.0241549
-0.0258891
-0.0278383
-0.0297988
-0.0312396
-0.0319573
-0.0279522
-4.09907e-06
-0.00159354
-0.00325357
-0.00447391
-0.00493279
-0.00448046
-0.00307066
-0.000707739
0.00256274
0.00664458
0.00158091
-3.93381e-05
-0.00121698
-0.00190763
-0.00198897
-0.00135185
5.04188e-05
0.00223439
0.00518855
0.00886565
0.00327878
0.00108954
-9.55514e-05
-0.000632028
-0.000588354
9.3761e-05
0.00144539
0.00349292
0.00625685
0.00973263
0.00441822
0.00158074
0.000223484
-0.000327826
-0.000298775
0.000325481
0.00156477
0.00346361
0.00608642
0.00948788
0.00445323
0.00110264
-0.000436965
-0.00107603
-0.00115411
-0.000682046
0.000366262
0.00207367
0.00457599
0.00803398
0.00302273
-0.000632564
-0.00232156
-0.00309812
-0.00336956
-0.00315298
-0.00239381
-0.000944002
0.0014449
0.00514354
-4.69528e-05
-0.00376959
-0.00555318
-0.00650255
-0.00705008
-0.00720411
-0.00686139
-0.00578282
-0.0035614
0.000600575
-0.00475809
-0.00831066
-0.0101254
-0.0112721
-0.0121733
-0.0128239
-0.0130623
-0.0125468
-0.0106961
-0.00587316
-0.0109462
-0.0141195
-0.0159011
-0.0172531
-0.0185648
-0.0198259
-0.0208229
-0.0211159
-0.0200271
-0.0143705
-0.0183007
-0.0209392
-0.0226251
-0.0241618
-0.0258964
-0.0278491
-0.0298217
-0.0313797
-0.0322844
-0.0278412
0.0113849
0.0165967
0.0221112
0.0278012
0.0335823
0.0394053
0.0452467
0.0511011
0.0569763
0.0628922
0.0688806
0.0749863
0.0812679
0.0877948
0.0946423
0.101877
0.109539
0.117608
0.125968
0.134383
0.0131686
0.0179594
0.0231084
0.0285083
0.0340768
0.0397564
0.0455111
0.0513227
0.0571873
0.0631142
0.0691242
0.0752493
0.081531
0.0880177
0.0947587
0.101794
0.10914
0.116764
0.124568
0.132362
0.0138542
0.018483
0.023496
0.0287903
0.0342825
0.0399108
0.0456339
0.0514275
0.0572818
0.0631989
0.0691922
0.0752843
0.0815062
0.0878946
0.0944886
0.101323
0.108416
0.115756
0.123278
0.130836
0.0136264
0.0183002
0.0233637
0.0287061
0.0342386
0.039898
0.045643
0.0514489
0.0573036
0.0632056
0.0691617
0.0751865
0.0813012
0.0875339
0.0939188
0.100495
0.107302
0.114367
0.121686
0.129187
0.0124441
0.0174097
0.0227299
0.0282809
0.0339702
0.0397407
0.0455595
0.0514084
0.0572786
0.0631672
0.0690759
0.0750105
0.0809815
0.0870066
0.0931144
0.0993511
0.105782
0.112495
0.119581
0.127107
0.0102591
0.0158656
0.0216852
0.0276078
0.0335562
0.0394989
0.045427
0.0513385
0.0572333
0.0631102
0.0689663
0.0747981
0.0806028
0.0863835
0.0921574
0.0979707
0.103917
0.110149
0.116892
0.124484
0.00720134
0.0139322
0.0204974
0.0269088
0.0331601
0.0392851
0.0453202
0.0512895
0.0572051
0.0630687
0.0688727
0.0746024
0.0802386
0.0857639
0.091173
0.0964962
0.101843
0.107422
0.113624
0.121288
0.00368093
0.0121303
0.0195921
0.0264884
0.0329807
0.0392213
0.0453125
0.0513069
0.0572265
0.0630729
0.0688316
0.0744748
0.0799641
0.0852554
0.0903087
0.0951192
0.0997904
0.104546
0.109901
0.117498
0.00172855
0.0121256
0.0198994
0.0268216
0.0332516
0.0394212
0.0454626
0.051428
0.0573311
0.0631636
0.0688994
0.0744951
0.0798898
0.0850048
0.0897468
0.09404
0.0979349
0.101449
0.104933
0.111277
0.0062687
0.0174199
0.0230476
0.0285722
0.034231
0.0399865
0.0458191
0.0516918
0.057568
0.0634112
0.0691762
0.0748005
0.0801948
0.0852305
0.0897236
0.093415
0.0959544
0.0970529
0.0959159
0.0975749
0.0113587
0.0165784
0.0220991
0.0277936
0.0335776
0.0394023
0.0452447
0.0510994
0.0569745
0.0628899
0.0688775
0.0749824
0.0812629
0.087789
0.094636
0.101872
0.109535
0.117608
0.125976
0.134402
0.0131908
0.0179779
0.0231231
0.0285195
0.0340852
0.0397627
0.0455161
0.0513269
0.0571914
0.0631186
0.0691291
0.0752546
0.0815365
0.0880227
0.0947619
0.101794
0.109134
0.11675
0.124546
0.132332
0.013857
0.0184878
0.0235012
0.0287953
0.0342867
0.0399142
0.0456365
0.0514295
0.0572833
0.0632002
0.0691933
0.0752852
0.0815068
0.0878949
0.0944881
0.101321
0.108413
0.115752
0.123272
0.130831
0.0136307
0.0183072
0.0233707
0.0287123
0.0342435
0.0399017
0.0456456
0.0514506
0.0573048
0.0632064
0.0691623
0.0751869
0.0813015
0.0875341
0.0939187
0.100494
0.1073
0.114364
0.12168
0.129182
0.0124559
0.0174229
0.0227406
0.0282893
0.0339761
0.0397445
0.045562
0.05141
0.0572797
0.063168
0.0690766
0.0750111
0.0809823
0.0870075
0.0931152
0.0993511
0.105781
0.112492
0.119571
0.127092
0.0102843
0.0158871
0.0216987
0.0276169
0.0335615
0.0395017
0.0454283
0.0513392
0.0572336
0.0631103
0.0689665
0.0747983
0.0806033
0.0863844
0.0921585
0.0979713
0.103917
0.110147
0.116874
0.124447
0.00726858
0.0139765
0.0205179
0.0269194
0.0331647
0.0392865
0.0453204
0.0512892
0.0572048
0.0630685
0.0688728
0.0746027
0.0802394
0.0857652
0.0911747
0.0964971
0.101842
0.107417
0.113581
0.121185
0.00379518
0.0121766
0.0196015
0.026492
0.0329802
0.0392194
0.0453108
0.0513054
0.0572253
0.0630719
0.0688307
0.0744741
0.0799638
0.0852558
0.0903103
0.0951197
0.099789
0.104551
0.109863
0.117335
0.00187135
0.0120624
0.0198287
0.0267914
0.033236
0.0394117
0.0454567
0.0514235
0.0573268
0.0631588
0.0688936
0.0744882
0.079882
0.0849974
0.0897427
0.0940411
0.097954
0.101537
0.105052
0.1111
0.00710398
0.0175614
0.0230577
0.028595
0.0342457
0.0399934
0.045823
0.0516945
0.0575705
0.0634139
0.0691795
0.0748047
0.0801999
0.0852361
0.0897278
0.0934124
0.0959451
0.0970837
0.0958543
0.0965203
0.0113587
0.0165784
0.0220991
0.0277936
0.0335776
0.0394023
0.0452447
0.0510994
0.0569745
0.0628899
0.0688775
0.0749824
0.0812629
0.087789
0.094636
0.101872
0.109535
0.117608
0.125976
0.134402
0.0131908
0.0179779
0.0231231
0.0285195
0.0340852
0.0397627
0.0455161
0.0513269
0.0571914
0.0631186
0.0691291
0.0752546
0.0815365
0.0880227
0.0947619
0.101794
0.109134
0.11675
0.124546
0.132332
0.013857
0.0184878
0.0235012
0.0287953
0.0342867
0.0399142
0.0456365
0.0514295
0.0572833
0.0632002
0.0691933
0.0752852
0.0815068
0.0878949
0.0944881
0.101321
0.108413
0.115752
0.123272
0.130831
0.0136307
0.0183072
0.0233707
0.0287123
0.0342435
0.0399017
0.0456456
0.0514506
0.0573048
0.0632064
0.0691623
0.0751869
0.0813015
0.0875341
0.0939187
0.100494
0.1073
0.114364
0.12168
0.129182
0.0124559
0.0174229
0.0227406
0.0282893
0.0339761
0.0397445
0.045562
0.05141
0.0572797
0.063168
0.0690766
0.0750111
0.0809823
0.0870075
0.0931152
0.0993511
0.105781
0.112492
0.119571
0.127092
0.0102843
0.0158871
0.0216987
0.0276169
0.0335615
0.0395017
0.0454284
0.0513392
0.0572336
0.0631103
0.0689665
0.0747983
0.0806033
0.0863844
0.0921585
0.0979714
0.103917
0.110147
0.116874
0.124447
0.00726858
0.0139765
0.0205179
0.0269194
0.0331647
0.0392865
0.0453204
0.0512892
0.0572048
0.0630685
0.0688728
0.0746027
0.0802394
0.0857652
0.0911747
0.0964971
0.101842
0.107417
0.113581
0.121185
0.00379518
0.0121766
0.0196015
0.026492
0.0329802
0.0392194
0.0453108
0.0513054
0.0572253
0.0630719
0.0688307
0.0744741
0.0799638
0.0852558
0.0903103
0.0951197
0.099789
0.104551
0.109863
0.117335
0.00187135
0.0120624
0.0198287
0.0267914
0.033236
0.0394117
0.0454567
0.0514235
0.0573268
0.0631588
0.0688936
0.0744882
0.079882
0.0849974
0.0897427
0.0940411
0.097954
0.101537
0.105052
0.1111
0.00710398
0.0175614
0.0230577
0.028595
0.0342457
0.0399934
0.045823
0.0516945
0.0575705
0.0634139
0.0691795
0.0748047
0.0801999
0.0852361
0.0897278
0.0934124
0.0959451
0.0970837
0.0958543
0.0965203
0.0113848
0.0165966
0.0221112
0.0278012
0.0335823
0.0394053
0.0452467
0.0511011
0.0569763
0.0628922
0.0688806
0.0749864
0.0812679
0.0877948
0.0946423
0.101877
0.109539
0.117608
0.125968
0.134383
0.0131686
0.0179594
0.0231084
0.0285083
0.0340768
0.0397564
0.0455111
0.0513227
0.0571873
0.0631142
0.0691242
0.0752493
0.081531
0.0880177
0.0947587
0.101794
0.10914
0.116764
0.124568
0.132362
0.0138542
0.018483
0.023496
0.0287903
0.0342825
0.0399108
0.0456339
0.0514275
0.0572818
0.0631989
0.0691922
0.0752843
0.0815062
0.0878946
0.0944886
0.101323
0.108416
0.115756
0.123278
0.130836
0.0136264
0.0183002
0.0233637
0.0287061
0.0342386
0.039898
0.045643
0.0514489
0.0573036
0.0632056
0.0691617
0.0751865
0.0813012
0.0875339
0.0939188
0.100495
0.107302
0.114367
0.121686
0.129187
0.0124441
0.0174097
0.0227299
0.0282809
0.0339702
0.0397407
0.0455595
0.0514084
0.0572786
0.0631672
0.0690759
0.0750105
0.0809815
0.0870066
0.0931144
0.0993511
0.105782
0.112495
0.119581
0.127107
0.0102591
0.0158656
0.0216852
0.0276078
0.0335562
0.0394989
0.045427
0.0513385
0.0572333
0.0631102
0.0689663
0.0747981
0.0806028
0.0863835
0.0921574
0.0979707
0.103917
0.110149
0.116892
0.124484
0.00720134
0.0139322
0.0204974
0.0269088
0.0331601
0.0392851
0.0453202
0.0512895
0.0572051
0.0630687
0.0688727
0.0746024
0.0802386
0.0857639
0.091173
0.0964962
0.101843
0.107422
0.113624
0.121288
0.00368093
0.0121303
0.0195921
0.0264884
0.0329806
0.0392213
0.0453125
0.0513069
0.0572265
0.0630729
0.0688316
0.0744748
0.0799642
0.0852554
0.0903088
0.0951192
0.0997904
0.104546
0.109901
0.117498
0.00172855
0.0121256
0.0198994
0.0268216
0.0332516
0.0394212
0.0454626
0.051428
0.0573311
0.0631636
0.0688994
0.0744951
0.0798899
0.0850048
0.0897468
0.09404
0.0979349
0.101449
0.104933
0.111277
0.00626869
0.0174198
0.0230476
0.0285722
0.034231
0.0399865
0.0458191
0.0516918
0.057568
0.0634112
0.0691762
0.0748005
0.0801948
0.0852306
0.0897236
0.093415
0.0959544
0.0970529
0.0959159
0.0975749
0.14249
0.149845
0.156036
0.160751
0.163824
0.165258
0.165226
0.164087
0.162389
0.160802
0.139853
0.146674
0.152485
0.157028
0.160169
0.161907
0.162387
0.161897
0.160767
0.159211
0.138167
0.144892
0.15067
0.155245
0.158479
0.160367
0.161029
0.160711
0.159589
0.157551
0.13663
0.14354
0.149522
0.154295
0.157703
0.159728
0.160479
0.160176
0.158899
0.15633
0.134895
0.142227
0.14862
0.153746
0.157431
0.15965
0.160509
0.160221
0.15882
0.155872
0.132942
0.140964
0.147967
0.153591
0.157647
0.160123
0.161135
0.160906
0.15946
0.156328
0.130968
0.139964
0.147726
0.153931
0.158405
0.161173
0.162378
0.162263
0.160869
0.157743
0.129408
0.139667
0.148237
0.155006
0.159854
0.162882
0.164281
0.164317
0.163061
0.160115
0.128502
0.14075
0.150081
0.157223
0.162241
0.165387
0.166911
0.167091
0.166028
0.1634
0.132939
0.146393
0.154892
0.161377
0.165938
0.168848
0.170321
0.170581
0.169723
0.167503
0.142522
0.14989
0.15609
0.160809
0.163883
0.165312
0.16527
0.164117
0.162406
0.160801
0.139816
0.146631
0.152438
0.15698
0.160121
0.161864
0.16235
0.16187
0.160763
0.15919
0.138168
0.144896
0.150676
0.155252
0.158486
0.160372
0.161029
0.16071
0.159607
0.157519
0.136637
0.143552
0.149537
0.154309
0.157716
0.159739
0.160482
0.160177
0.158927
0.15629
0.134903
0.142238
0.148632
0.153757
0.15744
0.159657
0.160508
0.16022
0.158852
0.155827
0.132953
0.140976
0.147979
0.153602
0.157656
0.160129
0.161134
0.160905
0.159496
0.15628
0.130991
0.13998
0.147739
0.153944
0.158414
0.161178
0.162376
0.162261
0.160904
0.157695
0.129548
0.139723
0.14826
0.155021
0.159861
0.162885
0.164278
0.164315
0.163094
0.160069
0.128828
0.140766
0.150057
0.157215
0.162235
0.165383
0.166905
0.167088
0.166057
0.163358
0.132829
0.146022
0.154726
0.16133
0.165919
0.168842
0.170316
0.170579
0.169748
0.167468
0.142522
0.14989
0.15609
0.160809
0.163883
0.165312
0.16527
0.164117
0.162406
0.160801
0.139816
0.146631
0.152438
0.15698
0.160121
0.161864
0.16235
0.16187
0.160763
0.15919
0.138168
0.144896
0.150676
0.155252
0.158486
0.160372
0.161029
0.16071
0.159607
0.157519
0.136637
0.143552
0.149537
0.154309
0.157716
0.159739
0.160482
0.160177
0.158927
0.15629
0.134903
0.142238
0.148632
0.153757
0.15744
0.159657
0.160508
0.16022
0.158852
0.155827
0.132953
0.140976
0.147979
0.153602
0.157656
0.160129
0.161134
0.160905
0.159496
0.15628
0.130991
0.13998
0.147739
0.153944
0.158414
0.161178
0.162376
0.162261
0.160904
0.157695
0.129548
0.139723
0.14826
0.155021
0.159861
0.162885
0.164278
0.164315
0.163094
0.160069
0.128828
0.140766
0.150057
0.157215
0.162235
0.165383
0.166905
0.167088
0.166057
0.163358
0.132829
0.146022
0.154726
0.16133
0.165919
0.168842
0.170316
0.170579
0.169748
0.167468
0.14249
0.149845
0.156036
0.160751
0.163824
0.165258
0.165226
0.164087
0.162389
0.160802
0.139853
0.146673
0.152485
0.157028
0.160169
0.161907
0.162387
0.161897
0.160767
0.159211
0.138167
0.144892
0.15067
0.155245
0.158479
0.160367
0.161029
0.160711
0.159589
0.157551
0.13663
0.14354
0.149522
0.154295
0.157703
0.159728
0.160479
0.160176
0.158899
0.15633
0.134895
0.142227
0.14862
0.153746
0.157431
0.15965
0.160509
0.160221
0.15882
0.155872
0.132942
0.140964
0.147967
0.153591
0.157647
0.160123
0.161135
0.160906
0.15946
0.156328
0.130968
0.139964
0.147726
0.153931
0.158405
0.161173
0.162378
0.162263
0.160869
0.157743
0.129408
0.139667
0.148237
0.155006
0.159854
0.162882
0.164281
0.164317
0.163061
0.160115
0.128502
0.14075
0.150081
0.157223
0.162241
0.165387
0.166911
0.167091
0.166028
0.1634
0.132939
0.146393
0.154892
0.161377
0.165938
0.168848
0.170321
0.170581
0.169723
0.167503
0.167002
0.162461
0.164424
0.167965
0.17105
0.173263
0.174472
0.174721
0.174051
0.172275
0.178094
0.172818
0.172846
0.174681
0.176652
0.178234
0.17916
0.179373
0.178873
0.177529
0.183658
0.180548
0.180278
0.181228
0.182466
0.18356
0.18424
0.184412
0.184059
0.183098
0.189112
0.187425
0.187146
0.187623
0.188384
0.189117
0.189598
0.189732
0.189499
0.188854
0.194695
0.193817
0.193618
0.193864
0.194329
0.19481
0.19514
0.195243
0.195104
0.194707
0.200383
0.199965
0.199856
0.199992
0.200273
0.200579
0.200798
0.200874
0.200803
0.200596
0.206174
0.206023
0.205982
0.206054
0.206212
0.206388
0.206517
0.206565
0.206542
0.206479
0.212056
0.21208
0.212072
0.212092
0.212148
0.212213
0.212256
0.212267
0.212269
0.212319
0.218058
0.218188
0.218186
0.218141
0.21809
0.218036
0.217981
0.217936
0.21794
0.218072
0.224215
0.224407
0.224374
0.224233
0.224045
0.223843
0.223661
0.22353
0.223505
0.223688
0.230594
0.230797
0.230685
0.230397
0.230021
0.229621
0.229263
0.229004
0.228912
0.229103
0.237288
0.237425
0.237164
0.236659
0.236024
0.235357
0.234761
0.234316
0.234104
0.23424
0.244413
0.244361
0.243854
0.24304
0.242056
0.241038
0.240128
0.239429
0.239027
0.239016
0.252116
0.251665
0.250776
0.249544
0.24811
0.246654
0.245349
0.244322
0.24364
0.243344
0.260577
0.259347
0.257908
0.256138
0.254162
0.252193
0.250428
0.248998
0.247934
0.247153
0.269907
0.26738
0.265134
0.262716
0.260142
0.257639
0.25539
0.253507
0.251939
0.250429
0.280171
0.275432
0.272113
0.269011
0.265892
0.262946
0.260288
0.25796
0.255777
0.253216
0.291042
0.282741
0.278138
0.274503
0.271094
0.268004
0.265187
0.262543
0.259674
0.255684
0.302489
0.288319
0.282042
0.278248
0.275139
0.27255
0.27013
0.26752
0.264004
0.258179
0.313583
0.288627
0.280633
0.278077
0.276768
0.276014
0.275071
0.273234
0.269336
0.261302
0.167837
0.162604
0.164539
0.168033
0.171075
0.173275
0.174476
0.174724
0.174073
0.172248
0.178235
0.172755
0.172893
0.174725
0.176673
0.178247
0.179167
0.179377
0.178891
0.177511
0.183668
0.180478
0.180288
0.181249
0.18248
0.183571
0.184247
0.184417
0.184073
0.183086
0.189134
0.187396
0.18715
0.187634
0.188393
0.189125
0.189604
0.189737
0.189509
0.188847
0.194709
0.193803
0.193617
0.193869
0.194334
0.194815
0.195145
0.195247
0.19511
0.194703
0.200388
0.199959
0.199855
0.199993
0.200276
0.200583
0.200801
0.200876
0.200807
0.200595
0.206176
0.206021
0.205981
0.206054
0.206213
0.20639
0.206519
0.206567
0.206543
0.206479
0.212056
0.212081
0.212072
0.212092
0.212149
0.212214
0.212258
0.212268
0.212268
0.212321
0.218056
0.218191
0.218186
0.218141
0.21809
0.218036
0.217982
0.217937
0.217937
0.218075
0.224211
0.224411
0.224374
0.224232
0.224045
0.223843
0.223661
0.22353
0.223501
0.223691
0.230589
0.230802
0.230684
0.230396
0.23002
0.229621
0.229264
0.229004
0.228907
0.229107
0.237282
0.23743
0.237163
0.236658
0.236023
0.235356
0.234761
0.234316
0.2341
0.234246
0.244408
0.244363
0.243852
0.243038
0.242054
0.241037
0.240128
0.23943
0.239025
0.239021
0.252112
0.25166
0.250772
0.249541
0.248108
0.246652
0.245349
0.244323
0.243642
0.243348
0.260576
0.259329
0.257901
0.256135
0.254158
0.252191
0.250428
0.249001
0.247943
0.247155
0.269919
0.267342
0.265126
0.262713
0.260138
0.257637
0.25539
0.253512
0.25196
0.250425
0.280223
0.275363
0.272106
0.26901
0.265886
0.262945
0.260288
0.257968
0.255816
0.253202
0.291109
0.282567
0.278115
0.274501
0.271086
0.268004
0.265189
0.262556
0.259738
0.255655
0.302606
0.287994
0.282047
0.27829
0.275153
0.272563
0.270138
0.267542
0.264103
0.25813
0.314916
0.288733
0.280927
0.278261
0.276836
0.276048
0.275087
0.273264
0.269478
0.261226
0.167837
0.162604
0.164539
0.168033
0.171075
0.173275
0.174476
0.174724
0.174073
0.172248
0.178235
0.172755
0.172893
0.174725
0.176673
0.178248
0.179167
0.179377
0.178891
0.177511
0.183668
0.180478
0.180288
0.181249
0.18248
0.183571
0.184247
0.184417
0.184073
0.183086
0.189134
0.187396
0.18715
0.187634
0.188393
0.189125
0.189604
0.189737
0.189509
0.188847
0.194709
0.193803
0.193617
0.193869
0.194334
0.194815
0.195145
0.195247
0.19511
0.194703
0.200388
0.199959
0.199855
0.199993
0.200276
0.200583
0.200801
0.200876
0.200807
0.200595
0.206176
0.206021
0.205981
0.206054
0.206213
0.20639
0.206519
0.206567
0.206543
0.206479
0.212056
0.212081
0.212072
0.212092
0.212149
0.212214
0.212258
0.212268
0.212268
0.212321
0.218056
0.218191
0.218186
0.218141
0.21809
0.218036
0.217982
0.217937
0.217937
0.218075
0.224211
0.224411
0.224374
0.224232
0.224045
0.223843
0.223661
0.22353
0.223501
0.223691
0.230589
0.230802
0.230684
0.230396
0.23002
0.229621
0.229264
0.229004
0.228907
0.229107
0.237282
0.23743
0.237163
0.236658
0.236023
0.235356
0.234761
0.234316
0.2341
0.234246
0.244408
0.244363
0.243852
0.243038
0.242054
0.241037
0.240128
0.23943
0.239025
0.239021
0.252112
0.25166
0.250772
0.249541
0.248108
0.246652
0.245349
0.244323
0.243642
0.243348
0.260576
0.259329
0.257901
0.256135
0.254158
0.252191
0.250428
0.249001
0.247943
0.247155
0.269919
0.267342
0.265126
0.262713
0.260138
0.257637
0.25539
0.253512
0.25196
0.250425
0.280223
0.275363
0.272106
0.26901
0.265886
0.262945
0.260288
0.257968
0.255816
0.253202
0.291109
0.282567
0.278115
0.274501
0.271086
0.268004
0.265189
0.262556
0.259738
0.255655
0.302606
0.287994
0.282047
0.27829
0.275153
0.272563
0.270138
0.267542
0.264103
0.25813
0.314916
0.288733
0.280927
0.278261
0.276836
0.276048
0.275087
0.273264
0.269478
0.261226
0.167002
0.162461
0.164424
0.167965
0.17105
0.173263
0.174472
0.174721
0.174051
0.172275
0.178094
0.172818
0.172846
0.174681
0.176652
0.178234
0.17916
0.179373
0.178873
0.177529
0.183658
0.180548
0.180278
0.181228
0.182466
0.18356
0.18424
0.184412
0.184059
0.183098
0.189112
0.187425
0.187146
0.187623
0.188384
0.189117
0.189598
0.189732
0.189499
0.188854
0.194695
0.193817
0.193618
0.193864
0.194329
0.19481
0.19514
0.195243
0.195104
0.194707
0.200383
0.199965
0.199856
0.199992
0.200273
0.200579
0.200798
0.200874
0.200803
0.200596
0.206174
0.206023
0.205982
0.206054
0.206212
0.206388
0.206517
0.206565
0.206542
0.206479
0.212056
0.21208
0.212072
0.212092
0.212148
0.212213
0.212256
0.212267
0.212269
0.212319
0.218058
0.218188
0.218186
0.218141
0.21809
0.218036
0.217981
0.217936
0.21794
0.218072
0.224215
0.224407
0.224374
0.224233
0.224045
0.223843
0.223661
0.22353
0.223505
0.223688
0.230594
0.230797
0.230685
0.230397
0.230021
0.229621
0.229263
0.229004
0.228912
0.229103
0.237288
0.237425
0.237164
0.236659
0.236024
0.235357
0.234761
0.234316
0.234104
0.23424
0.244413
0.244361
0.243854
0.24304
0.242056
0.241038
0.240128
0.239429
0.239027
0.239016
0.252116
0.251665
0.250776
0.249544
0.24811
0.246654
0.245349
0.244322
0.24364
0.243344
0.260577
0.259347
0.257908
0.256138
0.254162
0.252193
0.250428
0.248998
0.247934
0.247153
0.269907
0.26738
0.265134
0.262716
0.260142
0.257639
0.25539
0.253507
0.251939
0.250429
0.280171
0.275432
0.272113
0.269011
0.265892
0.262946
0.260288
0.25796
0.255777
0.253216
0.291042
0.282741
0.278138
0.274503
0.271094
0.268004
0.265187
0.262543
0.259674
0.255684
0.302489
0.288319
0.282042
0.278248
0.275139
0.27255
0.27013
0.26752
0.264004
0.258179
0.313583
0.288627
0.280633
0.278077
0.276768
0.276014
0.275071
0.273234
0.269336
0.261302
0.252951
0.261581
0.266866
0.270982
0.274546
0.277792
0.28
0.28017
0.276518
0.266041
0.223829
0.239687
0.250938
0.260497
0.26958
0.278227
0.285294
0.289115
0.286817
0.273962
0.206372
0.221725
0.235099
0.248601
0.263058
0.278021
0.291657
0.30122
0.302064
0.287522
0.192866
0.206709
0.220901
0.237318
0.256742
0.278554
0.300392
0.318244
0.324953
0.310663
0.183025
0.195666
0.210319
0.229055
0.25303
0.281969
0.313548
0.342759
0.35946
0.349852
0.177109
0.189419
0.204886
0.225928
0.254337
0.290698
0.333616
0.378065
0.411175
0.415202
0.174938
0.18798
0.205025
0.228865
0.262053
0.306466
0.36268
0.427383
0.486614
0.521047
0.175635
0.19015
0.209347
0.236412
0.274807
0.32818
0.400202
0.490953
0.590751
0.694568
0.177561
0.193206
0.213843
0.242955
0.284967
0.345782
0.433716
0.557003
0.725824
1.00567
0.17894
0.194086
0.213538
0.240673
0.280186
0.339437
0.432424
0.586676
0.873016
1.49012
0.253288
0.261113
0.266738
0.270971
0.274544
0.2778
0.280004
0.280203
0.276714
0.265928
0.224251
0.239618
0.250875
0.260464
0.269558
0.278221
0.285287
0.289152
0.28708
0.273809
0.206629
0.221744
0.235067
0.24856
0.263018
0.277994
0.291626
0.301254
0.302405
0.287327
0.192956
0.206694
0.22085
0.237249
0.256669
0.278487
0.300317
0.31826
0.325364
0.310424
0.183052
0.195633
0.210249
0.228957
0.252915
0.281846
0.313409
0.342736
0.359894
0.349597
0.177116
0.189382
0.204807
0.225808
0.254179
0.290498
0.333373
0.377947
0.411531
0.415154
0.174952
0.187958
0.204957
0.228742
0.261856
0.306153
0.362248
0.427049
0.48659
0.521535
0.175678
0.190184
0.209368
0.236412
0.274754
0.327978
0.399825
0.490612
0.589446
0.694248
0.177629
0.193319
0.214027
0.243245
0.285397
0.346342
0.434458
0.557605
0.72259
1.00337
0.17899
0.194125
0.213557
0.240676
0.280199
0.339512
0.432782
0.587111
0.869327
1.49937
0.253288
0.261113
0.266738
0.270971
0.274544
0.2778
0.280004
0.280203
0.276714
0.265928
0.224251
0.239618
0.250875
0.260464
0.269558
0.278221
0.285287
0.289152
0.28708
0.273809
0.206629
0.221744
0.235067
0.24856
0.263018
0.277994
0.291626
0.301254
0.302405
0.287327
0.192956
0.206694
0.22085
0.237249
0.256669
0.278487
0.300317
0.31826
0.325364
0.310425
0.183052
0.195633
0.210249
0.228957
0.252915
0.281846
0.313409
0.342736
0.359894
0.349597
0.177116
0.189382
0.204807
0.225808
0.254179
0.290498
0.333373
0.377947
0.411531
0.415154
0.174953
0.187958
0.204957
0.228742
0.261856
0.306153
0.362248
0.427049
0.48659
0.521535
0.175679
0.190184
0.209368
0.236412
0.274754
0.327978
0.399825
0.490612
0.589446
0.694248
0.177629
0.193319
0.214027
0.243245
0.285397
0.346342
0.434458
0.557605
0.72259
1.00337
0.17899
0.194125
0.213557
0.240676
0.280199
0.339512
0.432782
0.587111
0.869327
1.49937
0.252951
0.261581
0.266866
0.270982
0.274546
0.277792
0.28
0.28017
0.276518
0.266041
0.223829
0.239687
0.250938
0.260497
0.26958
0.278227
0.285294
0.289115
0.286817
0.273962
0.206372
0.221725
0.235099
0.248601
0.263058
0.278021
0.291657
0.30122
0.302064
0.287522
0.192866
0.206709
0.220901
0.237318
0.256742
0.278554
0.300392
0.318244
0.324953
0.310663
0.183025
0.195666
0.210319
0.229055
0.25303
0.281969
0.313548
0.342759
0.35946
0.349852
0.177109
0.189419
0.204886
0.225928
0.254337
0.290698
0.333616
0.378065
0.411175
0.415202
0.174938
0.18798
0.205025
0.228865
0.262053
0.306466
0.36268
0.427383
0.486614
0.521047
0.175635
0.19015
0.209347
0.236412
0.274807
0.32818
0.400202
0.490953
0.590751
0.694568
0.177561
0.193206
0.213843
0.242955
0.284967
0.345782
0.433716
0.557003
0.725824
1.00567
0.17894
0.194086
0.213538
0.240673
0.280186
0.339437
0.432424
0.586676
0.873016
1.49012
-0.153389
-0.132749
-0.114743
-0.0981266
-0.0815264
-0.0647379
-0.0477546
-0.030613
-0.0133743
0.00388968
0.0211017
0.0381897
0.0550855
0.0717399
0.0881783
0.104587
0.121447
0.139797
0.162935
0.200672
-0.139507
-0.126027
-0.111517
-0.0962756
-0.0803535
-0.0639608
-0.0472325
-0.0302659
-0.0131456
0.00405348
0.0212657
0.0384315
0.0555114
0.0725076
0.0894914
0.106669
0.124438
0.143422
0.165133
0.193045
-0.136334
-0.124334
-0.110635
-0.0957805
-0.0800897
-0.0638261
-0.0471623
-0.0302201
-0.0130935
0.00414266
0.0214274
0.0387112
0.0559605
0.0731682
0.0903729
0.107691
0.125337
0.143607
0.163059
0.184609
-0.137548
-0.125235
-0.111354
-0.0963615
-0.0805648
-0.0642026
-0.0474436
-0.0304076
-0.0131823
0.00416567
0.0215833
0.0390251
0.0564507
0.0738242
0.0911185
0.108322
0.125436
0.142462
0.15946
0.176538
-0.140275
-0.127278
-0.1129
-0.0975238
-0.0814314
-0.0648373
-0.0478924
-0.0307005
-0.0133344
0.004153
0.0217178
0.0393166
0.0568966
0.0743872
0.0916904
0.108674
0.125168
0.140964
0.155893
0.169916
-0.142742
-0.129119
-0.114266
-0.0985217
-0.0821494
-0.0653426
-0.0482333
-0.0309093
-0.0134289
0.00416559
0.0218365
0.0395384
0.0572042
0.0747309
0.0919641
0.108688
0.124638
0.139507
0.153092
0.165451
-0.143286
-0.129414
-0.114418
-0.098589
-0.0821658
-0.065327
-0.0481953
-0.0308517
-0.0133507
0.004267
0.0219617
0.0396807
0.0573432
0.0748235
0.0919363
0.108432
0.124013
0.138392
0.151427
0.163334
-0.141023
-0.127502
-0.112882
-0.0973964
-0.0812616
-0.0646515
-0.047694
-0.0304801
-0.0130746
0.00447059
0.0221048
0.0397631
0.0573523
0.0747355
0.0917204
0.108061
0.123488
0.137775
0.150886
0.163179
-0.135963
-0.12357
-0.10992
-0.0952193
-0.0796923
-0.0635368
-0.0469116
-0.0299375
-0.0127057
0.00471087
0.0222465
0.0398207
0.0573313
0.07464
0.0915616
0.10787
0.123333
0.137781
0.151248
0.16416
-0.127744
-0.117639
-0.105739
-0.0923336
-0.0777364
-0.0622326
-0.0460555
-0.0293856
-0.0123584
0.00492161
0.0223649
0.0398903
0.0573952
0.0747436
0.0917608
0.108233
0.123931
0.138677
0.152457
0.16559
-0.153766
-0.132631
-0.114728
-0.0981489
-0.081539
-0.0647454
-0.0477599
-0.0306163
-0.013376
0.00388933
0.0211022
0.0381905
0.0550855
0.071737
0.0881686
0.104566
0.121425
0.139748
0.162604
0.200064
-0.139449
-0.125858
-0.11144
-0.0962389
-0.0803271
-0.0639423
-0.0472199
-0.0302574
-0.0131401
0.00405685
0.0212681
0.0384343
0.0555166
0.0725183
0.0895106
0.106701
0.124498
0.143494
0.165033
0.192786
-0.136394
-0.124309
-0.110611
-0.0957622
-0.0800749
-0.0638155
-0.0471549
-0.030215
-0.0130899
0.00414504
0.0214289
0.0387121
0.0559612