/*--------------------------------*- C++ -*----------------------------------*\
| =========                 |                                                 |
| \\      /  F ield         | OpenFOAM: The Open Source CFD Toolbox           |
|  \\    /   O peration     | Version:  2.4.0                                 |
|   \\  /    A nd           | Web:      www.OpenFOAM.org                      |
|    \\/     M anipulation  |                                                 |
\*---------------------------------------------------------------------------*/
FoamFile
{
    version     2.0;
    format      ascii;
    class       surfaceScalarField;
    location    "2.7";
    object      phi;
}
// * * * * * * * * * * * * * * * * * * * * * * * * * * * * * * * * * * * * * //

dimensions      [0 3 -1 0 0 0 0];

internalField   nonuniform List<scalar> 
12720
(
1.50135e-07
-1.49745e-07
2.14236e-10
-5.45783e-07
6.94124e-07
1.79141e-09
-2.06718e-06
1.51879e-06
2.60786e-09
-4.1679e-06
2.0974e-06
3.32046e-09
-6.61325e-06
2.44161e-06
3.74346e-09
-9.21004e-06
2.59289e-06
3.9112e-09
-1.17993e-05
2.58533e-06
3.90813e-09
-1.42431e-05
2.44003e-06
3.76051e-09
-1.64211e-05
2.17461e-06
3.41707e-09
1.81767e-06
2.85639e-09
-1.82416e-05
-7.25106e-07
5.76732e-07
-1.37447e-09
-3.2836e-06
3.25217e-06
4.41633e-10
-7.46157e-06
5.69823e-06
-1.47669e-09
-1.28369e-05
7.47512e-06
-2.36444e-09
-1.89644e-05
8.57189e-06
-2.81213e-09
-2.54283e-05
9.05989e-06
-3.10617e-09
-3.18523e-05
9.01205e-06
-2.72672e-09
-3.78961e-05
8.48678e-06
-2.90157e-09
-4.32673e-05
7.54832e-06
-2.53345e-09
6.30425e-06
-2.18328e-09
-4.77517e-05
-1.68403e-06
2.26322e-06
-2.45734e-09
-6.09293e-06
7.65879e-06
2.27964e-09
-1.26328e-05
1.2238e-05
1.24435e-10
-2.07119e-05
1.55543e-05
-8.1114e-11
-2.97484e-05
1.76083e-05
1.23066e-10
-3.91891e-05
1.85004e-05
1.07351e-10
-4.85108e-05
1.83337e-05
1.05723e-10
-5.72244e-05
1.72002e-05
1.72771e-10
-6.48985e-05
1.52222e-05
2.4394e-10
1.26214e-05
1.49275e-10
-7.12157e-05
-2.46936e-06
4.73618e-06
-3.59723e-09
-8.44134e-06
1.36276e-05
3.18437e-09
-1.69372e-05
2.07339e-05
-1.04942e-13
-2.71794e-05
2.57966e-05
-2.70705e-10
-3.84735e-05
2.89024e-05
9.15948e-11
-5.01708e-05
3.01976e-05
1.2994e-10
-6.16436e-05
2.98063e-05
1.67461e-10
-7.22816e-05
2.78379e-05
2.73228e-10
-8.15223e-05
2.44624e-05
4.72298e-10
2.00303e-05
4.15959e-10
-8.89316e-05
-3.02312e-06
7.7637e-06
-4.40503e-09
-1.0135e-05
2.07357e-05
3.72983e-09
-2.00583e-05
3.06576e-05
-4.16364e-10
-3.18598e-05
3.7599e-05
-9.10653e-10
-4.47579e-05
4.18011e-05
-5.48972e-10
-5.80375e-05
4.34777e-05
-5.25747e-10
-7.09943e-05
4.27636e-05
-4.70302e-10
-8.29116e-05
3.97555e-05
-2.74929e-10
-9.3081e-05
3.46315e-05
3.01063e-10
2.7847e-05
5.86108e-10
-0.000100898
-3.32248e-06
1.1091e-05
-4.79481e-09
-1.10721e-05
2.84812e-05
4.12134e-09
-2.18016e-05
4.13877e-05
-5.48857e-10
-3.44819e-05
5.02805e-05
-1.1598e-09
-4.82797e-05
5.55997e-05
-8.02714e-10
-6.24444e-05
5.76432e-05
-7.9858e-10
-7.62249e-05
5.65448e-05
-7.81196e-10
-8.88149e-05
5.23461e-05
-6.27249e-10
-9.93377e-05
4.51537e-05
5.1901e-10
3.54191e-05
1.62804e-09
-0.000106911
-3.35916e-06
1.44551e-05
-4.94316e-09
-1.12051e-05
3.63229e-05
4.22794e-09
-2.20583e-05
5.22416e-05
-5.88203e-10
-3.48638e-05
6.30872e-05
-1.26945e-09
-4.87761e-05
6.9513e-05
-9.66615e-10
-6.30437e-05
7.19118e-05
-1.00422e-09
-7.69086e-05
7.04107e-05
-1.11334e-09
-8.95145e-05
6.49534e-05
-1.33547e-09
-9.9819e-05
5.54576e-05
6.8171e-10
4.20978e-05
4.13074e-09
-0.000106502
-3.14023e-06
1.75997e-05
-4.42919e-09
-1.05414e-05
4.372e-05
4.05035e-09
-2.0816e-05
6.25167e-05
-5.381e-10
-3.29423e-05
7.52148e-05
-1.23544e-09
-4.60918e-05
8.26635e-05
-1.01023e-09
-5.95366e-05
8.53577e-05
-1.02894e-09
-7.25541e-05
8.34294e-05
-1.16573e-09
-8.43103e-05
7.67116e-05
-2.06844e-09
-9.36831e-05
6.48283e-05
2.00651e-09
4.71365e-05
1.43905e-08
-9.87362e-05
-2.69632e-06
2.02998e-05
-3.69847e-09
-9.1654e-06
5.01854e-05
3.66789e-09
-1.82035e-05
7.15551e-05
-3.73129e-10
-2.88558e-05
8.58681e-05
-1.03644e-09
-4.03087e-05
9.41173e-05
-9.53047e-10
-5.18409e-05
9.68909e-05
-1.03676e-09
-6.27647e-05
9.43546e-05
-1.3967e-09
-7.23213e-05
8.62731e-05
-4.87244e-09
-7.95272e-05
7.20356e-05
-1.4369e-09
4.94468e-05
3.2305e-08
-8.18699e-05
-2.09087e-06
-2.68523e-09
2.23933e-05
-7.26395e-06
3.16727e-09
5.53553e-05
-1.45496e-05
-6.46001e-11
7.88408e-05
-2.30632e-05
-5.91542e-10
9.43824e-05
-3.19611e-05
-6.32121e-10
0.000103016
-4.04262e-05
-9.34712e-10
0.000105357
-4.76474e-05
-1.99095e-09
0.000101578
-5.27136e-05
-1.21694e-08
9.13515e-05
-5.45184e-05
-2.84161e-08
7.38688e-05
9.64773e-09
-5.18812e-05
4.68e-05
1.51307e-07
-1.51106e-07
1.14306e-11
-5.46497e-07
6.99577e-07
1.85604e-11
-2.06797e-06
1.52406e-06
1.6818e-11
-4.16806e-06
2.1034e-06
1.23541e-11
-6.61315e-06
2.44882e-06
8.0641e-12
-9.20994e-06
2.6007e-06
4.95272e-12
-1.17992e-05
2.59317e-06
3.09622e-12
-1.42432e-05
2.44773e-06
1.80186e-12
-1.64215e-05
2.18171e-06
9.20117e-13
1.82362e-06
4.56907e-13
-1.82422e-05
-7.29908e-07
5.77411e-07
1.91673e-11
-3.28925e-06
3.25934e-06
1.86177e-11
-7.46657e-06
5.69988e-06
1.60182e-11
-1.28404e-05
7.47485e-06
1.22334e-11
-1.89661e-05
8.57173e-06
8.30701e-12
-2.54286e-05
9.06008e-06
5.23604e-12
-3.1851e-05
9.0128e-06
3.41468e-12
-3.78941e-05
8.48795e-06
2.08514e-12
-4.3265e-05
7.55005e-06
1.16943e-12
6.30584e-06
6.18342e-13
-4.77494e-05
-1.68945e-06
2.26438e-06
1.81423e-11
-6.09372e-06
7.66588e-06
1.65712e-11
-1.26336e-05
1.22399e-05
1.35709e-11
-2.07129e-05
1.5554e-05
1.03713e-11
-2.9749e-05
1.7608e-05
7.07419e-12
-3.91892e-05
1.85003e-05
4.5241e-12
-4.85104e-05
1.83341e-05
2.96935e-12
-5.72237e-05
1.72015e-05
1.92862e-12
-6.48981e-05
1.52247e-05
1.11851e-12
1.26236e-05
6.10725e-13
-7.12157e-05
-2.47616e-06
4.73693e-06
1.38033e-11
-8.44025e-06
1.36331e-05
1.26198e-11
-1.69361e-05
2.07357e-05
1.02868e-11
-2.71791e-05
2.57968e-05
7.95783e-12
-3.84735e-05
2.89024e-05
5.4297e-12
-5.01708e-05
3.01978e-05
3.49154e-12
-6.16435e-05
2.9807e-05
2.32863e-12
-7.22814e-05
2.78397e-05
1.47922e-12
-8.15227e-05
2.44664e-05
8.30586e-13
2.00343e-05
4.35076e-13
-8.8933e-05
-3.03159e-06
7.76411e-06
9.7921e-12
-1.01336e-05
2.07389e-05
8.9105e-12
-2.00567e-05
3.06584e-05
7.44958e-12
-3.18595e-05
3.75986e-05
5.96004e-12
-4.4758e-05
4.18003e-05
4.15668e-12
-5.80376e-05
4.34769e-05
2.70338e-12
-7.09942e-05
4.27631e-05
1.78195e-12
-8.29111e-05
3.97564e-05
1.09977e-12
-9.30814e-05
3.4637e-05
6.05851e-13
2.78542e-05
3.33613e-13
-0.000100901
-3.33186e-06
1.10912e-05
6.71786e-12
-1.10706e-05
2.84818e-05
6.11091e-12
-2.18e-05
4.13872e-05
5.18062e-12
-3.44818e-05
5.02793e-05
4.25773e-12
-4.82803e-05
5.5598e-05
2.95323e-12
-6.24453e-05
5.76412e-05
1.86522e-12
-7.62256e-05
5.65425e-05
1.18955e-12
-8.88145e-05
5.23447e-05
6.79287e-13
-9.93379e-05
4.51609e-05
3.78691e-13
3.54337e-05
2.46328e-13
-0.000106916
-3.36869e-06
1.44549e-05
4.57314e-12
-1.12036e-05
3.63209e-05
4.07071e-12
-2.2057e-05
5.224e-05
3.41572e-12
-3.48643e-05
6.30854e-05
2.7546e-12
-4.87776e-05
6.95103e-05
1.77353e-12
-6.30461e-05
7.19086e-05
1.06054e-12
-7.69109e-05
7.04062e-05
5.9714e-13
-8.95146e-05
6.4947e-05
2.82429e-13
-9.9818e-05
5.5465e-05
8.07147e-14
4.213e-05
9.07755e-14
-0.00010651
-3.14901e-06
1.75995e-05
3.15122e-12
-1.05401e-05
4.37161e-05
2.688e-12
-2.0815e-05
6.25144e-05
2.27109e-12
-3.29435e-05
7.52126e-05
1.69337e-12
-4.60946e-05
8.26604e-05
1.01263e-12
-5.95407e-05
8.53537e-05
4.65706e-13
-7.25586e-05
8.3423e-05
2.25188e-13
-8.43105e-05
7.66969e-05
6.57768e-14
-9.36706e-05
6.48271e-05
-8.86846e-14
4.72189e-05
-4.9317e-14
-9.87451e-05
-2.70368e-06
2.02995e-05
2.19993e-12
-9.16414e-06
5.01802e-05
1.95505e-12
-1.82028e-05
7.15526e-05
1.56609e-12
-2.88577e-05
8.58665e-05
1.00998e-12
-4.03135e-05
9.41152e-05
5.36574e-13
-5.18494e-05
9.68885e-05
2.04941e-13
-6.27791e-05
9.43514e-05
1.52186e-13
-7.2341e-05
8.62539e-05
5.27578e-14
-7.95035e-05
7.19881e-05
-3.72759e-14
4.95639e-05
-5.93715e-14
-8.18162e-05
-2.09623e-06
1.64402e-12
2.2393e-05
-7.2624e-06
1.49373e-12
5.53495e-05
-1.45483e-05
1.0855e-12
7.88384e-05
-2.30642e-05
5.86147e-13
9.43818e-05
-3.19659e-05
3.06085e-13
0.000103016
-4.04381e-05
2.02565e-13
0.00010536
-4.76761e-05
1.7862e-13
0.000101587
-5.28016e-05
1.82896e-13
9.13672e-05
-5.46586e-05
2.11873e-13
7.38167e-05
2.10967e-13
-5.16539e-05
4.65689e-05
1.51258e-07
-1.51155e-07
-9.26247e-11
-5.46534e-07
6.99554e-07
-1.74514e-09
-2.06799e-06
1.52405e-06
-2.57841e-09
-4.16807e-06
2.1034e-06
-3.30044e-09
-6.61315e-06
2.44882e-06
-3.73042e-09
-9.20994e-06
2.6007e-06
-3.90329e-09
-1.17992e-05
2.59317e-06
-3.90335e-09
-1.42432e-05
2.44773e-06
-3.75757e-09
-1.64215e-05
2.18171e-06
-3.41529e-09
1.82362e-06
-2.85535e-09
-1.82422e-05
-7.29931e-07
5.77376e-07
1.41916e-09
-3.28927e-06
3.25932e-06
-4.07465e-10
-7.46658e-06
5.69987e-06
1.50265e-09
-1.28404e-05
7.47484e-06
2.3826e-09
-1.89661e-05
8.57173e-06
2.82418e-09
-2.54286e-05
9.06007e-06
3.11362e-09
-3.1851e-05
9.0128e-06
2.73133e-09
-3.78941e-05
8.48795e-06
2.90427e-09
-4.3265e-05
7.55005e-06
2.53501e-09
6.30584e-06
2.1841e-09
-4.77494e-05
-1.68946e-06
2.26436e-06
2.48591e-09
-6.09373e-06
7.66586e-06
-2.25361e-09
-1.26336e-05
1.22399e-05
-1.04185e-10
-2.07129e-05
1.5554e-05
9.57973e-11
-2.9749e-05
1.76079e-05
-1.12924e-10
-3.91892e-05
1.85003e-05
-1.00947e-10
-4.85104e-05
1.83341e-05
-1.01814e-10
-5.72237e-05
1.72014e-05
-1.7039e-10
-6.48981e-05
1.52246e-05
-2.42524e-10
1.26236e-05
-1.4851e-10
-7.12157e-05
-2.47616e-06
4.73692e-06
3.61659e-09
-8.44025e-06
1.36331e-05
-3.16573e-09
-1.69361e-05
2.07357e-05
1.4768e-11
-2.71791e-05
2.57968e-05
2.81656e-10
-3.84735e-05
2.89024e-05
-8.38047e-11
-5.01708e-05
3.01978e-05
-1.25018e-10
-6.16434e-05
2.9807e-05
-1.64464e-10
-7.22814e-05
2.78397e-05
-2.7138e-10
-8.15227e-05
2.44664e-05
-4.71193e-10
2.00343e-05
-4.15404e-10
-8.89329e-05
-3.03159e-06
7.76411e-06
4.41745e-09
-1.01336e-05
2.07389e-05
-3.71718e-09
-2.00567e-05
3.06584e-05
4.26421e-10
-3.18595e-05
3.75986e-05
9.18355e-10
-4.47579e-05
4.18003e-05
5.54588e-10
-5.80376e-05
4.34769e-05
5.2929e-10
-7.09942e-05
4.27631e-05
4.72484e-10
-8.29111e-05
3.97564e-05
2.76374e-10
-9.30814e-05
3.46369e-05
-3.00141e-10
2.78542e-05
-5.8567e-10
-0.000100901
-3.33186e-06
1.10912e-05
4.80279e-09
-1.10706e-05
2.84818e-05
-4.11293e-09
-2.18e-05
4.13872e-05
5.55708e-10
-3.44818e-05
5.02793e-05
1.16528e-09
-4.82803e-05
5.55979e-05
8.06833e-10
-6.24453e-05
5.76411e-05
8.01248e-10
-7.62255e-05
5.65425e-05
7.82966e-10
-8.88145e-05
5.23447e-05
6.28634e-10
-9.93379e-05
4.51609e-05
-5.17972e-10
3.54337e-05
-1.6275e-09
-0.000106916
-3.36869e-06
1.44549e-05
4.94801e-09
-1.12036e-05
3.63209e-05
-4.22248e-09
-2.2057e-05
5.224e-05
5.92803e-10
-3.48643e-05
6.30853e-05
1.27328e-09
-4.87776e-05
6.95103e-05
9.69551e-10
-6.30461e-05
7.19086e-05
1.00617e-09
-7.69109e-05
7.04062e-05
1.11478e-09
-8.95146e-05
6.4947e-05
1.33682e-09
-9.98179e-05
5.5465e-05
-6.8059e-10
4.213e-05
-4.13014e-09
-0.00010651
-3.14901e-06
1.75995e-05
4.43216e-09
-1.05401e-05
4.3716e-05
-4.04681e-09
-2.0815e-05
6.25143e-05
5.41125e-10
-3.29435e-05
7.52126e-05
1.23803e-09
-4.60946e-05
8.26604e-05
1.01226e-09
-5.95407e-05
8.53536e-05
1.03034e-09
-7.25586e-05
8.3423e-05
1.1669e-09
-8.43105e-05
7.66969e-05
2.06966e-09
-9.36706e-05
6.48271e-05
-2.00547e-09
4.72189e-05
-1.439e-08
-9.87451e-05
-2.70368e-06
2.02995e-05
3.70048e-09
-9.16414e-06
5.01802e-05
-3.66554e-09
-1.82028e-05
7.15526e-05
3.75145e-10
-2.88577e-05
8.58665e-05
1.03822e-09
-4.03134e-05
9.41152e-05
9.54521e-10
-5.18494e-05
9.68885e-05
1.03796e-09
-6.27791e-05
9.43513e-05
1.39786e-09
-7.2341e-05
8.62539e-05
4.87357e-09
-7.95035e-05
7.19881e-05
1.4377e-09
4.95639e-05
-3.23048e-08
-8.18162e-05
-2.09623e-06
2.68676e-09
2.2393e-05
-7.26239e-06
-3.1656e-09
5.53495e-05
-1.45483e-05
6.60179e-11
7.88384e-05
-2.30641e-05
5.92811e-10
9.43818e-05
-3.19659e-05
6.33281e-10
0.000103016
-4.04381e-05
9.35907e-10
0.00010536
-4.76761e-05
1.99219e-09
0.000101587
-5.28016e-05
1.21704e-08
9.13672e-05
-5.46586e-05
2.84165e-08
7.38167e-05
-9.64766e-09
-5.16539e-05
4.65689e-05
1.49895e-07
-1.49988e-07
-5.45898e-07
6.94042e-07
-2.06723e-06
1.51876e-06
-4.16792e-06
2.09739e-06
-6.61326e-06
2.4416e-06
-9.21004e-06
2.59288e-06
-1.17993e-05
2.58533e-06
-1.42431e-05
2.44003e-06
-1.64211e-05
2.17461e-06
1.81767e-06
-1.82416e-05
-7.25183e-07
5.76618e-07
-3.28366e-06
3.25211e-06
-7.4616e-06
5.6982e-06
-1.28369e-05
7.4751e-06
-1.89644e-05
8.57189e-06
-2.54283e-05
9.05989e-06
-3.18523e-05
9.01204e-06
-3.78961e-05
8.48678e-06
-4.32673e-05
7.54832e-06
6.30425e-06
-4.77517e-05
-1.68406e-06
2.26316e-06
-6.09295e-06
7.65875e-06
-1.26328e-05
1.22379e-05
-2.07119e-05
1.55543e-05
-2.97484e-05
1.76083e-05
-3.9189e-05
1.85004e-05
-4.85108e-05
1.83337e-05
-5.72243e-05
1.72001e-05
-6.48984e-05
1.52222e-05
1.26214e-05
-7.12157e-05
-2.46936e-06
4.73614e-06
-8.44134e-06
1.36276e-05
-1.69372e-05
2.07339e-05
-2.71793e-05
2.57966e-05
-3.84735e-05
2.89024e-05
-5.01708e-05
3.01976e-05
-6.16436e-05
2.98063e-05
-7.22816e-05
2.78379e-05
-8.15222e-05
2.44623e-05
2.00303e-05
-8.89316e-05
-3.02312e-06
7.76368e-06
-1.0135e-05
2.07357e-05
-2.00583e-05
3.06576e-05
-3.18598e-05
3.7599e-05
-4.47579e-05
4.18011e-05
-5.80374e-05
4.34776e-05
-7.09942e-05
4.27635e-05
-8.29115e-05
3.97555e-05
-9.30809e-05
3.46315e-05
2.7847e-05
-0.000100898
-3.32248e-06
1.1091e-05
-1.10721e-05
2.84812e-05
-2.18016e-05
4.13877e-05
-3.44819e-05
5.02805e-05
-4.82797e-05
5.55997e-05
-6.24444e-05
5.76432e-05
-7.62249e-05
5.65448e-05
-8.88149e-05
5.23461e-05
-9.93377e-05
4.51537e-05
3.54191e-05
-0.000106911
-3.35916e-06
1.44551e-05
-1.12051e-05
3.63229e-05
-2.20583e-05
5.22415e-05
-3.48638e-05
6.30872e-05
-4.8776e-05
6.95129e-05
-6.30437e-05
7.19118e-05
-7.69085e-05
7.04107e-05
-8.95144e-05
6.49533e-05
-9.98189e-05
5.54576e-05
4.20978e-05
-0.000106502
-3.14022e-06
1.75997e-05
-1.05414e-05
4.372e-05
-2.0816e-05
6.25167e-05
-3.29423e-05
7.52147e-05
-4.60918e-05
8.26634e-05
-5.95366e-05
8.53577e-05
-7.25541e-05
8.34294e-05
-8.43103e-05
7.67116e-05
-9.3683e-05
6.48283e-05
4.71365e-05
-9.87362e-05
-2.69631e-06
2.02997e-05
-9.16539e-06
5.01854e-05
-1.82035e-05
7.15551e-05
-2.88558e-05
8.58681e-05
-4.03087e-05
9.41173e-05
-5.18409e-05
9.68909e-05
-6.27647e-05
9.43546e-05
-7.23213e-05
8.62731e-05
-7.95272e-05
7.20356e-05
4.94468e-05
-8.18698e-05
-2.09087e-06
2.23933e-05
-7.26394e-06
5.53553e-05
-1.45496e-05
7.88408e-05
-2.30632e-05
9.43823e-05
-3.19611e-05
0.000103016
-4.04262e-05
0.000105357
-4.76474e-05
0.000101578
-5.27136e-05
9.13515e-05
-5.45184e-05
7.38688e-05
-5.18812e-05
4.68e-05
-1.96635e-05
1.41971e-06
2.1484e-09
-2.0708e-05
1.04297e-06
1.5029e-09
-2.14376e-05
7.28656e-07
9.94873e-10
-2.19293e-05
4.91007e-07
6.28071e-10
-2.22558e-05
3.26166e-07
3.85491e-10
-2.24781e-05
2.2202e-07
2.39543e-10
-2.26434e-05
1.65196e-07
1.63762e-10
-2.2788e-05
1.4447e-07
1.38113e-10
-2.29397e-05
1.51469e-07
1.4894e-10
-2.31197e-05
1.79845e-07
1.87491e-10
-2.33436e-05
2.23682e-07
2.47888e-10
-2.36194e-05
2.7551e-07
3.23913e-10
-2.3944e-05
3.24132e-07
4.0595e-10
-2.4297e-05
3.52511e-07
4.78072e-10
-2.46338e-05
3.36285e-07
5.13752e-10
-2.48782e-05
2.43982e-07
4.70079e-10
-2.492e-05
4.14909e-08
2.9281e-10
-2.46164e-05
-3.03517e-07
-5.04154e-11
-2.38168e-05
-7.98986e-07
-6.55084e-10
-1.41984e-06
-1.56552e-09
-2.23954e-05
-5.12615e-05
4.93146e-06
-1.92955e-09
-5.38566e-05
3.63965e-06
-1.60982e-09
-5.56902e-05
2.56349e-06
-1.27264e-09
-5.69455e-05
1.74737e-06
-9.71884e-10
-5.77953e-05
1.17663e-06
-7.2663e-10
-5.83829e-05
8.10153e-07
-5.46211e-10
-5.882e-05
6.0271e-07
-4.30151e-10
-5.91907e-05
5.15587e-07
-3.7094e-10
-5.95576e-05
5.18733e-07
-3.58099e-10
-5.99656e-05
5.88165e-07
-3.79674e-10
-6.04425e-05
7.01023e-07
-4.20912e-10
-6.0996e-05
8.29512e-07
-4.62329e-10
-6.16059e-05
9.34462e-07
-4.77643e-10
-6.22124e-05
9.5946e-07
-4.31961e-10
-6.27031e-05
8.27307e-07
-2.82282e-10
-6.29012e-05
4.41995e-07
1.62837e-11
-6.25611e-05
-2.99107e-07
4.93698e-10
-6.1386e-05
-1.47968e-06
1.1376e-09
-5.90666e-05
-3.12029e-06
1.90946e-09
-5.12825e-06
2.63528e-09
-5.53608e-05
-7.60595e-05
9.77547e-06
-2.40668e-10
-7.95608e-05
7.14133e-06
-4.15808e-10
-8.19834e-05
4.98659e-06
-4.54995e-10
-8.36135e-05
3.37788e-06
-4.32183e-10
-8.47018e-05
2.2653e-06
-3.69324e-10
-8.54455e-05
1.55411e-06
-2.95053e-10
-8.59907e-05
1.14822e-06
-2.2781e-10
-8.64433e-05
9.68377e-07
-1.74571e-10
-8.68786e-05
9.54109e-07
-1.36083e-10
-8.73479e-05
1.05756e-06
-1.09921e-10
-8.78805e-05
1.23372e-06
-9.16449e-11
-8.848e-05
1.42915e-06
-7.55314e-11
-8.91157e-05
1.57021e-06
-5.48459e-11
-8.97086e-05
1.55237e-06
-2.12235e-11
-9.01147e-05
1.23334e-06
3.64611e-11
-9.01084e-05
4.35631e-07
1.27151e-10
-8.93748e-05
-1.03299e-06
2.45359e-10
-8.75218e-05
-3.33309e-06
3.83506e-10
-8.41287e-05
-6.51389e-06
5.25332e-10
-1.04087e-05
4.46496e-10
-7.88487e-05
-9.43642e-05
1.52085e-05
-3.78875e-10
-9.80862e-05
1.08639e-05
-6.09228e-10
-0.000100526
7.42656e-06
-6.04623e-10
-0.000102086
4.9385e-06
-5.37376e-10
-0.000103081
3.26113e-06
-4.27892e-10
-0.000103735
2.20816e-06
-3.16847e-10
-0.000104198
1.61149e-06
-2.24851e-10
-0.000104571
1.34177e-06
-1.55174e-10
-0.000104922
1.30509e-06
-1.05453e-10
-0.000105294
1.4301e-06
-7.18396e-11
-0.000105713
1.65201e-06
-5.0174e-11
-0.000106179
1.89555e-06
-3.65933e-11
-0.000106666
2.05746e-06
-2.74878e-11
-0.000107104
1.98982e-06
-1.71351e-11
-0.000107358
1.48714e-06
8.93735e-12
-0.000107206
2.83913e-07
6.60178e-11
-0.000106317
-1.92215e-06
1.34485e-10
-0.000104239
-5.41126e-06
2.63399e-10
-0.000100434
-1.03193e-05
5.09367e-10
-1.6452e-05
4.48929e-10
-9.43913e-05
-0.000106154
2.0465e-05
-1.02725e-09
-0.000109372
1.40833e-05
-1.15031e-09
-0.000111237
9.29265e-06
-9.31323e-10
-0.000112288
5.98967e-06
-7.28054e-10
-0.000112878
3.85218e-06
-5.12766e-10
-0.000113222
2.55202e-06
-3.37061e-10
-0.00011344
1.83014e-06
-2.15447e-10
-0.000113603
1.5047e-06
-1.37021e-10
-0.000113751
1.45305e-06
-8.97474e-11
-0.000113909
1.58794e-06
-6.45042e-11
-0.000114091
1.83436e-06
-5.49105e-11
-0.000114302
2.10724e-06
-5.66983e-11
-0.000114534
2.28894e-06
-6.67297e-11
-0.00011475
2.20602e-06
-7.86262e-11
-0.00011487
1.60673e-06
-6.70831e-11
-0.00011473
1.4407e-07
2.77376e-12
-0.000114041
-2.61068e-06
6.95535e-11
-0.000112332
-7.12105e-06
2.60971e-10
-0.000108924
-1.37278e-05
8.9419e-10
-2.23533e-05
1.27735e-09
-0.000103024
-0.00011114
2.4696e-05
-2.1947e-09
-0.000113071
1.60156e-05
-1.87021e-09
-0.000113784
1.00073e-05
-1.17052e-09
-0.000113948
6.15435e-06
-7.83677e-10
-0.000113902
3.80662e-06
-4.61265e-10
-0.000113795
2.44468e-06
-2.43269e-10
-0.000113679
1.7143e-06
-1.20529e-10
-0.000113567
1.39281e-06
-5.55958e-11
-0.000113457
1.34348e-06
-2.38923e-11
-0.000113346
1.47732e-06
-1.17472e-11
-0.000113236
1.72343e-06
-1.23975e-11
-0.000113132
2.00385e-06
-2.34352e-11
-0.000113052
2.20867e-06
-4.50229e-11
-0.000113014
2.16788e-06
-7.62095e-11
-0.000113025
1.61794e-06
-9.3998e-11
-0.000113042
1.61372e-07
-5.3871e-11
-0.000112898
-2.75413e-06
-2.67069e-11
-0.000112182
-7.83748e-06
1.46607e-10
-0.000110088
-1.58231e-05
1.53516e-09
-2.70824e-05
3.2387e-09
-0.000105363
-0.00010866
2.68599e-05
-5.84111e-09
-0.000108456
1.58156e-05
-3.85102e-09
-0.000107533
9.08622e-06
-1.77745e-09
-0.000106591
5.21291e-06
-9.26481e-10
-0.000105834
3.05018e-06
-3.93864e-10
-0.000105268
1.87899e-06
-1.21728e-10
-0.000104837
1.28332e-06
-1.48722e-11
-0.000104478
1.03392e-06
2.01156e-11
-0.00010414
1.00529e-06
2.44512e-11
-0.000103787
1.1245e-06
1.48011e-11
-0.000103403
1.3392e-06
-3.25828e-12
-0.000102993
1.59424e-06
-2.92501e-11
-0.000102594
1.80937e-06
-6.4518e-11
-0.000102278
1.85172e-06
-1.12471e-10
-0.000102155
1.49578e-06
-1.4999e-10
-0.000102354
3.6047e-07
-7.94213e-11
-0.000102935
-2.17315e-06
9.41842e-11
-0.000103713
-7.06025e-06
4.68322e-10
-0.000103894
-1.56457e-05
3.70529e-09
-2.9407e-05
8.89859e-09
-0.000101579
-9.7355e-05
2.54886e-05
-9.92507e-09
-9.42168e-05
1.26815e-05
-4.02506e-09
-9.14839e-05
6.35407e-06
-8.14614e-10
-8.95447e-05
3.27406e-06
-3.10561e-10
-8.826e-05
1.76544e-06
3.94838e-11
-8.74101e-05
1.0289e-06
1.62963e-10
-8.6811e-05
6.84144e-07
1.54083e-10
-8.63304e-05
5.53181e-07
1.266e-10
-8.58773e-05
5.52074e-07
1.04864e-10
-8.53918e-05
6.38835e-07
8.97426e-11
-8.48402e-05
7.8757e-07
7.74293e-11
-8.42188e-05
9.72807e-07
6.18675e-11
-8.3565e-05
1.15549e-06
3.36576e-11
-8.29772e-05
1.264e-06
-3.343e-11
-8.26422e-05
1.16083e-06
-1.32217e-10
-8.28565e-05
5.74862e-07
-4.4894e-11
-8.39912e-05
-1.03862e-06
1.2405e-10
-8.63565e-05
-4.69448e-06
-4.54633e-10
-8.96207e-05
-1.23847e-05
3.27996e-09
-2.76966e-05
1.42254e-08
-9.13453e-05
-7.43766e-05
1.80077e-05
-1.24055e-08
-6.81194e-05
6.41878e-06
5.49285e-09
-6.427e-05
2.49859e-06
6.14068e-09
-6.20549e-05
1.05628e-06
2.61756e-09
-6.07811e-05
4.90287e-07
1.35235e-09
-6.00147e-05
2.61668e-07
8.19658e-10
-5.95027e-05
1.71661e-07
5.14107e-10
-5.90962e-05
1.46283e-07
3.88513e-10
-5.87026e-05
1.5812e-07
3.72896e-10
-5.8261e-05
1.96828e-07
4.19719e-10
-5.77319e-05
2.57998e-07
5.04104e-10
-5.70978e-05
3.38114e-07
6.04467e-10
-5.63737e-05
4.30706e-07
6.83058e-10
-5.56307e-05
5.20346e-07
6.42836e-10
-5.50394e-05
5.69175e-07
3.59814e-10
-5.49537e-05
4.89196e-07
-9.98173e-11
-5.59493e-05
-4.13742e-08
-1.6563e-09
-5.90582e-05
-1.57796e-06
-7.61496e-09
-6.53606e-05
-6.07197e-06
-1.03154e-08
-1.92177e-05
1.54116e-08
-7.38549e-05
-3.38047e-05
-6.87381e-08
-2.73743e-05
-1.16493e-08
-2.48749e-05
-8.32134e-10
-2.38167e-05
-1.87243e-09
-2.33252e-05
-1.2155e-09
-2.3063e-05
-5.69533e-10
-2.2891e-05
-3.21719e-10
-2.27445e-05
-2.27827e-10
-2.25862e-05
-2.01663e-10
-2.23891e-05
-2.21578e-10
-2.21308e-05
-2.74065e-10
-2.17924e-05
-3.46015e-10
-2.13613e-05
-4.18668e-10
-2.08405e-05
-4.58553e-10
-2.02709e-05
-3.50257e-10
-1.97819e-05
2.17623e-10
-1.98241e-05
7.70271e-10
-2.13995e-05
-2.53037e-09
-2.74766e-05
5.06562e-09
8.67857e-08
-4.6781e-05
-1.96641e-05
1.42399e-06
1.83987e-13
-2.07084e-05
1.04587e-06
3.92012e-14
-2.1438e-05
7.30525e-07
-1.54677e-14
-2.19295e-05
4.92153e-07
-3.93417e-14
-2.2256e-05
3.26851e-07
-7.21697e-14
-2.24782e-05
2.22444e-07
-1.22012e-13
-2.26435e-05
1.65502e-07
-1.15722e-13
-2.27881e-05
1.44753e-07
-1.14334e-13
-2.29398e-05
1.51798e-07
-2.394e-13
-2.31199e-05
1.80269e-07
-3.02276e-13
-2.33438e-05
2.24234e-07
-2.37098e-13
-2.36197e-05
2.76209e-07
-1.78679e-13
-2.39443e-05
3.2497e-07
-1.36874e-13
-2.42973e-05
3.53445e-07
-7.93851e-14
-2.4634e-05
3.37227e-07
-7.84224e-15
-2.48783e-05
2.4479e-07
1.02318e-13
-2.49197e-05
4.17281e-08
3.24352e-13
-2.4616e-05
-3.03741e-07
6.20181e-13
-2.38164e-05
-8.00295e-07
9.31114e-13
-1.42284e-06
1.20253e-12
-2.23951e-05
-5.1259e-05
4.93173e-06
3.04397e-13
-5.38541e-05
3.63931e-06
1.52139e-13
-5.56879e-05
2.56305e-06
8.97668e-14
-5.69437e-05
1.74698e-06
4.22316e-14
-5.77939e-05
1.17634e-06
3.45817e-15
-5.8382e-05
8.09962e-07
-8.60766e-14
-5.88195e-05
6.02591e-07
-1.33144e-13
-5.91906e-05
5.15505e-07
-7.9934e-14
-5.95578e-05
5.1865e-07
-1.04434e-13
-5.9966e-05
5.88044e-07
-9.24779e-14
-6.0443e-05
7.00826e-07
-6.8797e-14
-6.09965e-05
8.29203e-07
-5.79907e-14
-6.1606e-05
9.34016e-07
-5.86408e-14
-6.22118e-05
9.58887e-07
-9.22072e-14
-6.27016e-05
8.26687e-07
-5.65386e-14
-6.28983e-05
4.41498e-07
4.99542e-14
-6.25568e-05
-2.99243e-07
1.68543e-13
-6.13805e-05
-1.47891e-06
3.21544e-13
-5.90606e-05
-3.11832e-06
4.95537e-13
-5.12575e-06
6.68456e-13
-5.5355e-05
-7.60588e-05
9.77458e-06
3.07496e-13
-7.95594e-05
7.13949e-06
1.65311e-13
-8.19818e-05
4.98496e-06
1.35703e-13
-8.36119e-05
3.37667e-06
9.24856e-14
-8.47005e-05
2.26452e-06
7.5199e-14
-8.54444e-05
1.55366e-06
2.2143e-15
-8.59901e-05
1.14799e-06
-6.80351e-14
-8.6443e-05
9.68258e-07
-8.40468e-15
-8.68785e-05
9.54013e-07
-3.69251e-14
-8.7348e-05
1.05741e-06
-1.07589e-13
-8.78807e-05
1.23345e-06
-1.19885e-13
-8.84802e-05
1.42869e-06
-1.27501e-13
-8.91158e-05
1.5695e-06
-1.15744e-13
-8.97083e-05
1.55141e-06
-4.02542e-14
-9.01138e-05
1.23223e-06
9.00839e-14
-9.01068e-05
4.34635e-07
2.31833e-13
-8.93724e-05
-1.03347e-06
3.3851e-13
-8.75187e-05
-3.33223e-06
4.09402e-13
-8.41257e-05
-6.51081e-06
4.63012e-13
-1.04047e-05
5.21547e-13
-7.88462e-05
-9.4364e-05
1.52053e-05
1.76407e-13
-9.80847e-05
1.08595e-05
7.71717e-14
-0.000100524
7.42327e-06
1.10181e-13
-0.000102084
4.93629e-06
1.18715e-13
-0.00010308
3.25982e-06
2.10056e-13
-0.000103734
2.20748e-06
1.45534e-13
-0.000104197
1.61119e-06
4.92801e-14
-0.000104571
1.34166e-06
8.01753e-14
-0.000104922
1.30503e-06
2.73575e-14
-0.000105294
1.43e-06
-7.18065e-14
-0.000105713
1.65178e-06
-1.38364e-13
-0.000106179
1.89509e-06
-1.55282e-13
-0.000106666
2.05668e-06
-8.72252e-14
-0.000107104
1.98868e-06
6.74129e-14
-0.000107357
1.48572e-06
2.33564e-13
-0.000107205
2.82601e-07
3.23443e-13
-0.000106315
-1.92311e-06
3.07731e-13
-0.000104237
-5.41051e-06
2.44268e-13
-0.000100432
-1.03148e-05
2.25529e-13
-1.64459e-05
2.86232e-13
-9.43906e-05
-0.000106153
2.04564e-05
1.34302e-13
-0.000109369
1.40746e-05
3.72521e-14
-0.000111234
9.28729e-06
6.28515e-14
-0.000112285
5.98652e-06
4.72634e-14
-0.000112876
3.85053e-06
1.82372e-13
-0.00011322
2.55128e-06
1.22138e-13
-0.000113439
1.82987e-06
1.5958e-14
-0.000113602
1.50465e-06
6.50636e-14
-0.000113751
1.45305e-06
6.61358e-14
-0.000113908
1.58788e-06
9.48226e-15
-0.000114091
1.83416e-06
-2.89884e-14
-0.000114303
2.10679e-06
-3.50863e-14
-0.000114534
2.28812e-06
2.85372e-14
-0.00011475
2.2047e-06
1.14705e-13
-0.00011487
1.60494e-06
1.23168e-13
-0.000114729
1.42516e-07
-9.53291e-16
-0.00011404
-2.61245e-06
-1.93827e-13
-0.000112329
-7.12083e-06
-3.75606e-13
-0.000108922
-1.37211e-05
-3.76541e-13
-2.23423e-05
-1.83006e-13
-0.000103025
-0.000111137
2.46759e-05
1.733e-13
-0.000113065
1.60004e-05
9.49317e-14
-0.00011378
1.00005e-05
3.84238e-14
-0.000113945
6.15114e-06
-3.59839e-14
-0.0001139
3.8053e-06
3.42651e-14
-0.000113793
2.4443e-06
-5.3427e-14
-0.000113678
1.71429e-06
-1.656e-13
-0.000113566
1.39292e-06
-1.19365e-13
-0.000113457
1.34358e-06
-5.77476e-14
-0.000113346
1.47734e-06
2.87431e-15
-0.000113235
1.7233e-06
5.1995e-14
-0.000113132
2.00347e-06
9.21745e-14
-0.000113052
2.20789e-06
1.10145e-13
-0.000113014
2.16654e-06
4.5012e-14
-0.000113025
1.6159e-06
-1.28007e-13
-0.000113042
1.59456e-07
-4.34035e-13
-0.000112897
-2.7571e-06
-7.05369e-13
-0.000112179
-7.83877e-06
-8.80762e-13
-0.000110086
-1.5813e-05
-8.56285e-13
-2.70595e-05
-5.33527e-13
-0.000105365
-0.000108652
2.68124e-05
1.88507e-13
-0.000108446
1.57899e-05
1.78401e-13
-0.000107526
9.07936e-06
1.17474e-13
-0.000106587
5.21102e-06
9.08216e-14
-0.000105832
3.04992e-06
1.96226e-13
-0.000105267
1.87927e-06
7.87267e-14
-0.000104837
1.28365e-06
-9.89958e-14
-0.000104478
1.03416e-06
-1.57779e-13
-0.00010414
1.00543e-06
-1.11446e-13
-0.000103787
1.12453e-06
-3.54734e-15
-0.000103403
1.33907e-06
9.3936e-14
-0.000102993
1.59387e-06
1.30491e-13
-0.000102594
1.80863e-06
6.30933e-14
-0.000102278
1.85037e-06
-1.31064e-13
-0.000102156
1.4936e-06
-4.20371e-13
-0.000102354
3.5788e-07
-6.58371e-13
-0.000102934
-2.17721e-06
-8.27016e-13
-0.000103709
-7.06334e-06
-1.01514e-12
-0.00010389
-1.56284e-05
-1.03576e-12
-2.93526e-05
-6.07167e-13
-0.000101588
-9.73408e-05
2.53981e-05
3.69933e-14
-9.42066e-05
1.26517e-05
1.33174e-13
-9.14806e-05
6.35252e-06
1.48971e-13
-8.95446e-05
3.27475e-06
1.69224e-13
-8.82607e-05
1.76607e-06
2.45053e-13
-8.74107e-05
1.02944e-06
1.77035e-13
-8.68114e-05
6.8449e-07
4.82966e-14
-8.63305e-05
5.53371e-07
-3.5392e-14
-8.58771e-05
5.52166e-07
-1.47252e-14
-8.53914e-05
6.38854e-07
7.48324e-14
-8.48397e-05
7.87511e-07
1.66152e-13
-8.42184e-05
9.72634e-07
1.39325e-13
-8.35649e-05
1.15512e-06
-4.97078e-14
-8.29778e-05
1.26325e-06
-3.46826e-13
-8.26437e-05
1.15937e-06
-5.89882e-13
-8.28585e-05
5.72679e-07
-6.90268e-13
-8.39949e-05
-1.04076e-06
-7.96113e-13
-8.63592e-05
-4.69946e-06
-1.04539e-12
-8.96185e-05
-1.23658e-05
-1.23545e-12
-2.75958e-05
-8.1315e-13
-9.1361e-05
-7.43583e-05
1.79278e-05
-2.71045e-13
-6.8127e-05
6.42596e-06
-3.3337e-13
-6.42788e-05
2.51045e-06
-2.54185e-13
-6.20613e-05
1.05988e-06
3.86934e-14
-6.07849e-05
4.90982e-07
2.46307e-13
-6.00165e-05
2.61898e-07
1.90576e-13
-5.95034e-05
1.71852e-07
4.95615e-14
-5.90961e-05
1.46523e-07
-9.11304e-15
-5.87021e-05
1.58465e-07
1.55732e-14
-5.82601e-05
1.9733e-07
1.178e-13
-5.77308e-05
2.5872e-07
1.65691e-13
-5.70967e-05
3.39134e-07
3.84856e-14
-5.6373e-05
4.32116e-07
-2.52886e-13
-5.56314e-05
5.22263e-07
-5.49311e-13
-5.50432e-05
5.71555e-07
-6.90923e-13
-5.496e-05
4.89382e-07
-6.91825e-13
-5.59643e-05
-3.81288e-08
-7.54543e-13
-5.90844e-05
-1.58696e-06
-1.01993e-12
-6.53763e-05
-6.08419e-06
-1.00685e-12
-1.91539e-05
-7.70109e-13
-7.38029e-05
-3.37949e-05
-2.3673e-13
-2.73806e-05
-1.03877e-13
-2.4871e-05
3.07806e-14
-2.3813e-05
2.50827e-14
-2.33232e-05
6.65585e-14
-2.30619e-05
6.31347e-14
-2.28903e-05
-3.56431e-14
-2.2744e-05
-7.8028e-14
-2.25858e-05
-1.76368e-14
-2.23887e-05
7.11791e-14
-2.21302e-05
7.04944e-14
-2.17914e-05
-7.32338e-14
-2.13597e-05
-3.71367e-13
-2.08379e-05
-5.98366e-13
-2.02667e-05
-6.51036e-13
-1.97771e-05
-5.17547e-13
-1.98145e-05
-2.86728e-13
-2.1404e-05
-4.52733e-13
-2.74831e-05
-9.17174e-13
-1.42232e-12
-4.65502e-05
-1.96641e-05
1.42399e-06
-2.14783e-09
-2.07084e-05
1.04587e-06
-1.50259e-09
-2.1438e-05
7.30525e-07
-9.94679e-10
-2.19295e-05
4.92153e-07
-6.27936e-10
-2.2256e-05
3.26851e-07
-3.85426e-10
-2.24782e-05
2.22444e-07
-2.39521e-10
-2.26435e-05
1.65501e-07
-1.63751e-10
-2.27881e-05
1.44753e-07
-1.38108e-10
-2.29398e-05
1.51798e-07
-1.48921e-10
-2.31199e-05
1.80269e-07
-1.87541e-10
-2.33438e-05
2.24234e-07
-2.48026e-10
-2.36197e-05
2.76209e-07
-3.24073e-10
-2.39443e-05
3.2497e-07
-4.0609e-10
-2.42973e-05
3.53445e-07
-4.78161e-10
-2.4634e-05
3.37226e-07
-5.13783e-10
-2.48783e-05
2.44789e-07
-4.7006e-10
-2.49197e-05
4.17279e-08
-2.92715e-10
-2.4616e-05
-3.03741e-07
5.06351e-11
-2.38164e-05
-8.00295e-07
6.55467e-10
-1.42284e-06
1.56605e-09
-2.23951e-05
-5.1259e-05
4.93173e-06
1.92996e-09
-5.38541e-05
3.63931e-06
1.61006e-09
-5.56879e-05
2.56305e-06
1.27281e-09
-5.69437e-05
1.74698e-06
9.72048e-10
-5.77939e-05
1.17634e-06
7.26728e-10
-5.8382e-05
8.09962e-07
5.46269e-10
-5.88195e-05
6.02591e-07
4.30166e-10
-5.91906e-05
5.15504e-07
3.70848e-10
-5.95578e-05
5.18649e-07
3.57936e-10
-5.9966e-05
5.88043e-07