/*--------------------------------*- C++ -*----------------------------------*\
| =========                 |                                                 |
| \\      /  F ield         | OpenFOAM: The Open Source CFD Toolbox           |
|  \\    /   O peration     | Version:  2.4.0                                 |
|   \\  /    A nd           | Web:      www.OpenFOAM.org                      |
|    \\/     M anipulation  |                                                 |
\*---------------------------------------------------------------------------*/
FoamFile
{
    version     2.0;
    format      ascii;
    class       volVectorField;
    location    "2.7";
    object      U;
}
// * * * * * * * * * * * * * * * * * * * * * * * * * * * * * * * * * * * * * //

dimensions      [0 1 -1 0 0 0 0];

internalField   nonuniform List<vector> 
4800
(
(0.000302577 -0.000305465 4.83005e-07)
(8.42796e-06 0.000160106 0.000216709)
(-0.00185027 0.000664571 0.00044174)
(-0.00483033 0.00100486 0.000607257)
(-0.00853798 0.0011976 0.000669633)
(-0.012634 0.00128045 0.000608658)
(-0.0168372 0.0012808 0.000418151)
(-0.020911 0.00121233 9.87202e-05)
(-0.0246468 0.00108249 -0.000343515)
(-0.0278689 0.000903315 -0.000895573)
(-0.000185104 -8.63923e-06 -0.000214867)
(-0.00248069 0.00239232 5.89982e-06)
(-0.00803787 0.004728 0.000172574)
(-0.0158696 0.00640972 0.000270526)
(-0.0252358 0.00743371 0.000281794)
(-0.035462 0.007893 0.000190547)
(-0.0459127 0.00787374 -9.82882e-06)
(-0.0560117 0.00743575 -0.000321592)
(-0.0652441 0.00663438 -0.00074331)
(-0.073187 0.00555893 -0.00126832)
(-0.000776976 0.00197708 -0.000445169)
(-0.00519047 0.00806704 -0.000153842)
(-0.014219 0.0134782 1.3699e-05)
(-0.0261888 0.0174315 9.01833e-05)
(-0.0401037 0.0198894 8.41242e-05)
(-0.0550989 0.0209826 -1.33238e-05)
(-0.0703126 0.0208533 -0.000206409)
(-0.0849271 0.0196239 -0.000498853)
(-0.0981897 0.0174412 -0.00089364)
(-0.109469 0.0145545 -0.00139025)
(-0.00125008 0.00537548 -0.000600063)
(-0.00744538 0.0165233 -0.000223251)
(-0.0194009 0.0257274 -3.1966e-05)
(-0.034742 0.0323624 4.65795e-05)
(-0.0522356 0.0364657 4.27362e-05)
(-0.0708847 0.0382252 -4.64041e-05)
(-0.0896731 0.0378251 -0.000223409)
(-0.107603 0.0354348 -0.000494582)
(-0.123712 0.031295 -0.000869104)
(-0.137149 0.0258582 -0.00135507)
(-0.0015734 0.00985473 -0.000605439)
(-0.00905305 0.0271567 -0.000154488)
(-0.0231553 0.040682 6.20534e-05)
(-0.0409468 0.0502421 0.000152948)
(-0.0610019 0.0560757 0.000164406)
(-0.0822301 0.0584631 9.69928e-05)
(-0.103511 0.0576159 -5.27163e-05)
(-0.123705 0.0537132 -0.000296469)
(-0.141652 0.0470545 -0.000653468)
(-0.156206 0.0382955 -0.00114723)
(-0.00174166 0.0150252 -0.000412437)
(-0.00992901 0.0392338 9.37317e-05)
(-0.025243 0.0574531 0.000331181)
(-0.0444207 0.0701019 0.000441619)
(-0.0659172 0.077714 0.000480695)
(-0.0885915 0.0806946 0.000449762)
(-0.111268 0.079264 0.000341326)
(-0.132714 0.0735527 0.000134338)
(-0.151586 0.0638298 -0.00020599)
(-0.166321 0.050869 -0.000733454)
(-0.00175555 0.0204664 2.41782e-06)
(-0.0100401 0.0519066 0.000541974)
(-0.0255451 0.0749859 0.000792815)
(-0.044934 0.0907915 0.000927881)
(-0.0666281 0.100199 0.00100635)
(-0.0894812 0.103761 0.00102833)
(-0.112318 0.101686 0.000979279)
(-0.133891 0.0939809 0.000825017)
(-0.152755 0.0807255 0.000509331)
(-0.16679 0.0625417 -8.24012e-05)
(-0.00162236 0.0257558 0.000639338)
(-0.00940355 0.0642926 0.00119056)
(-0.0240667 0.0921528 0.00144604)
(-0.0424393 0.111049 0.00160927)
(-0.0629773 0.122198 0.00173821)
(-0.0845567 0.126311 0.00183114)
(-0.106046 0.123585 0.00186508)
(-0.126273 0.11384 0.0017907)
(-0.143928 0.0967557 0.00152967)
(-0.156296 0.0721943 0.000850855)
(-0.00136209 0.0304988 0.00147618)
(-0.00810774 0.0755473 0.00202008)
(-0.0209858 0.107837 0.00227127)
(-0.0371685 0.129567 0.00246387)
(-0.0551727 0.142243 0.00265132)
(-0.0738684 0.146744 0.00283142)
(-0.0921321 0.143309 0.00297355)
(-0.108884 0.13161 0.00301256)
(-0.123334 0.110877 0.00285983)
(-0.132601 0.0793712 0.00207949)
(-0.00101376 0.0343743 0.00247086)
(-0.0063364 0.0849611 0.00299392)
(-0.0167116 0.121054 0.00323209)
(-0.0297607 0.145113 0.00345119)
(-0.0440366 0.158812 0.00369896)
(-0.0582884 0.163161 0.00397767)
(-0.0711839 0.158488 0.00425861)
(-0.0813475 0.144454 0.00447281)
(-0.0884899 0.120148 0.00458869)
(-0.0915941 0.0828474 0.00398524)
(0.000307346 -0.000310151 1.70086e-07)
(1.52623e-05 0.000154184 1.40889e-06)
(-0.00184666 0.000650623 2.04317e-06)
(-0.0048278 0.000985213 2.59535e-06)
(-0.00853657 0.00117482 2.9219e-06)
(-0.0126336 0.00125611 3.05032e-06)
(-0.0168374 0.00125633 3.04656e-06)
(-0.020912 0.00118925 2.93065e-06)
(-0.024649 0.00106185 2.66249e-06)
(-0.0278723 0.000885729 2.22534e-06)
(-0.00017783 -1.61755e-05 -1.05697e-06)
(-0.00247779 0.00239024 3.56184e-07)
(-0.00804545 0.00471681 -1.13736e-06)
(-0.0158744 0.00639345 -1.83031e-06)
(-0.0252382 0.00741566 -2.18121e-06)
(-0.0354629 0.00787412 -2.41205e-06)
(-0.0459118 0.00785501 -2.46978e-06)
(-0.0560095 0.00741819 -2.25522e-06)
(-0.065242 0.00661884 -1.96954e-06)
(-0.0731859 0.0055455 -1.69761e-06)
(-0.000761073 0.00197146 -1.9017e-06)
(-0.00517931 0.00807354 1.78449e-06)
(-0.014226 0.0134814 1.06323e-07)
(-0.0261911 0.0174348 -5.56905e-08)
(-0.0401039 0.0198946 1.00876e-07)
(-0.0550989 0.0209889 8.68617e-08)
(-0.0703118 0.0208601 8.44408e-08)
(-0.0849259 0.0196308 1.35841e-07)
(-0.0981895 0.0174482 1.90605e-07)
(-0.109471 0.0145602 1.16581e-07)
(-0.00122726 0.00537064 -2.79241e-06)
(-0.00742916 0.0165273 2.48562e-06)
(-0.01941 0.0257265 7.25603e-09)
(-0.034744 0.0323598 -2.04807e-07)
(-0.0522347 0.0364636 7.52632e-08)
(-0.0708839 0.0382235 1.03702e-07)
(-0.0896718 0.037824 1.3201e-07)
(-0.107601 0.0354345 2.13654e-07)
(-0.123712 0.0312969 3.68008e-07)
(-0.137153 0.0258603 3.23871e-07)
(-0.00154607 0.00985171 -3.42437e-06)
(-0.00903463 0.027159 2.90739e-06)
(-0.0231678 0.0406801 -3.18456e-07)
(-0.0409499 0.0502381 -7.03965e-07)
(-0.061001 0.0560712 -4.23893e-07)
(-0.082229 0.0584585 -4.06886e-07)
(-0.103508 0.0576115 -3.64438e-07)
(-0.123701 0.0537101 -2.12973e-07)
(-0.14165 0.0470558 2.34654e-07)
(-0.156214 0.038299 4.56125e-07)
(-0.00171186 0.0150244 -3.73011e-06)
(-0.00990961 0.0392352 3.20996e-06)
(-0.0252579 0.0574521 -4.2308e-07)
(-0.0444248 0.0700994 -8.98955e-07)
(-0.0659167 0.077711 -6.22102e-07)
(-0.0885907 0.0806911 -6.19674e-07)
(-0.111265 0.0792599 -6.06661e-07)
(-0.132707 0.0735492 -4.87293e-07)
(-0.151579 0.0638343 4.03978e-07)
(-0.166336 0.0508809 1.26645e-06)
(-0.00172551 0.0204676 -3.7083e-06)
(-0.0100211 0.0519069 3.29141e-06)
(-0.025561 0.0749858 -4.54929e-07)
(-0.044939 0.0907907 -9.85272e-07)
(-0.0666282 0.100198 -7.5038e-07)
(-0.0894811 0.103758 -7.80214e-07)
(-0.112316 0.101682 -8.65438e-07)
(-0.133878 0.0939762 -1.03848e-06)
(-0.152737 0.0807362 5.30283e-07)
(-0.16682 0.06258 3.21287e-06)
(-0.00159412 0.025759 -3.44785e-06)
(-0.00938594 0.0642919 3.15232e-06)
(-0.0240825 0.0921537 -4.16808e-07)
(-0.0424448 0.11105 -9.59579e-07)
(-0.0629782 0.122199 -7.84922e-07)
(-0.0845578 0.12631 -7.99851e-07)
(-0.106045 0.12358 -9.06448e-07)
(-0.12625 0.113824 -1.60873e-06)
(-0.143876 0.0967517 1.56055e-06)
(-0.156343 0.0722551 1.11926e-05)
(-0.00133749 0.0305038 -2.87931e-06)
(-0.00809261 0.0755462 2.85426e-06)
(-0.0210001 0.107839 -2.89033e-07)
(-0.0371741 0.129571 -8.05306e-07)
(-0.0551748 0.142247 -7.40828e-07)
(-0.073873 0.146747 -8.06154e-07)
(-0.0921432 0.143306 -1.0862e-06)
(-0.108867 0.131577 -3.78963e-06)
(-0.123228 0.110802 -1.11762e-06)
(-0.13265 0.0793408 2.51261e-05)
(-0.000994071 0.0343803 -2.09047e-06)
(-0.00632419 0.0849598 2.46453e-06)
(-0.0167228 0.121058 -4.94253e-08)
(-0.0297649 0.145121 -4.596e-07)
(-0.044038 0.158825 -4.91404e-07)
(-0.0582953 0.163184 -7.26836e-07)
(-0.0712171 0.158532 -1.54838e-06)
(-0.0813888 0.144519 -9.46498e-06)
(-0.088401 0.120211 -2.21012e-05)
(-0.0916729 0.0829657 7.50394e-06)
(0.000307296 -0.000310201 -5.7396e-08)
(1.51821e-05 0.000154162 -1.3459e-06)
(-0.00184671 0.000650614 -1.99666e-06)
(-0.00482782 0.00098521 -2.56198e-06)
(-0.00853658 0.00117481 -2.89986e-06)
(-0.0126336 0.00125611 -3.03676e-06)
(-0.0168374 0.00125633 -3.03817e-06)
(-0.020912 0.00118925 -2.92554e-06)
(-0.024649 0.00106185 -2.65956e-06)
(-0.0278723 0.000885729 -2.2238e-06)
(-0.000177853 -1.62542e-05 1.11911e-06)
(-0.00247783 0.0023902 -3.04226e-07)
(-0.00804547 0.00471679 1.1799e-06)
(-0.0158744 0.00639345 1.86183e-06)
(-0.0252382 0.00741565 2.20259e-06)
(-0.0354629 0.00787412 2.42557e-06)
(-0.0459118 0.00785501 2.47823e-06)
(-0.0560095 0.00741819 2.26044e-06)
(-0.065242 0.00661884 1.97259e-06)
(-0.0731858 0.0055455 1.69924e-06)
(-0.000761081 0.00197141 1.94883e-06)
(-0.00517933 0.00807351 -1.74137e-06)
(-0.014226 0.0134814 -7.1493e-08)
(-0.0261911 0.0174348 8.19072e-08)
(-0.0401039 0.0198946 -8.26714e-08)
(-0.0550989 0.0209889 -7.51477e-08)
(-0.0703118 0.0208601 -7.69771e-08)
(-0.0849259 0.0196308 -1.31062e-07)
(-0.0981895 0.0174482 -1.87756e-07)
(-0.109471 0.0145602 -1.1503e-07)
(-0.00122726 0.00537061 2.82678e-06)
(-0.00742916 0.0165273 -2.45335e-06)
(-0.01941 0.0257265 1.88239e-08)
(-0.034744 0.0323598 2.24807e-07)
(-0.0522347 0.0364636 -6.11587e-08)
(-0.0708839 0.0382235 -9.45995e-08)
(-0.0896718 0.037824 -1.26154e-07)
(-0.107601 0.0354345 -2.0993e-07)
(-0.123712 0.0312969 -3.65818e-07)
(-0.137153 0.0258603 -3.22744e-07)
(-0.00154607 0.00985169 3.44787e-06)
(-0.00903463 0.027159 -2.88472e-06)
(-0.0231678 0.04068 3.37043e-07)
(-0.0409499 0.0502381 7.18597e-07)
(-0.061001 0.0560712 4.34431e-07)
(-0.082229 0.0584585 4.13699e-07)
(-0.103508 0.0576115 3.6884e-07)
(-0.123701 0.0537101 2.15818e-07)
(-0.14165 0.0470558 -2.32949e-07)
(-0.156214 0.038299 -4.55258e-07)
(-0.00171186 0.0150244 3.74592e-06)
(-0.00990961 0.0392352 -3.19448e-06)
(-0.0252579 0.057452 4.36026e-07)
(-0.0444248 0.0700994 9.09439e-07)
(-0.0659167 0.0777109 6.29768e-07)
(-0.0885907 0.0806911 6.24636e-07)
(-0.111265 0.0792599 6.0991e-07)
(-0.132707 0.0735492 4.89504e-07)
(-0.151579 0.0638343 -4.02564e-07)
(-0.166336 0.0508809 -1.26563e-06)
(-0.0017255 0.0204676 3.71866e-06)
(-0.0100211 0.0519069 -3.28114e-06)
(-0.025561 0.0749858 4.63632e-07)
(-0.044939 0.0907907 9.92408e-07)
(-0.0666282 0.100198 7.55527e-07)
(-0.0894811 0.103758 7.83428e-07)
(-0.112316 0.101682 8.67543e-07)
(-0.133878 0.0939762 1.03997e-06)
(-0.152737 0.0807362 -5.29283e-07)
(-0.16682 0.06258 -3.21226e-06)
(-0.00159411 0.025759 3.45468e-06)
(-0.00938594 0.0642919 -3.14547e-06)
(-0.0240824 0.0921537 4.22589e-07)
(-0.0424448 0.11105 9.64235e-07)
(-0.0629782 0.122199 7.88124e-07)
(-0.0845577 0.12631 8.0181e-07)
(-0.106045 0.12358 9.0782e-07)
(-0.12625 0.113824 1.60979e-06)
(-0.143876 0.0967516 -1.55988e-06)
(-0.156343 0.0722551 -1.11923e-05)
(-0.00133749 0.0305038 2.88409e-06)
(-0.00809261 0.0755462 -2.84952e-06)
(-0.0210001 0.107839 2.92957e-07)
(-0.0371741 0.129571 8.08324e-07)
(-0.0551748 0.142247 7.42835e-07)
(-0.073873 0.146747 8.07518e-07)
(-0.0921432 0.143306 1.08735e-06)
(-0.108867 0.131577 3.79059e-06)
(-0.123228 0.110802 1.11818e-06)
(-0.13265 0.0793408 -2.5126e-05)
(-0.00099407 0.0343803 2.09403e-06)
(-0.00632419 0.0849598 -2.46104e-06)
(-0.0167228 0.121058 5.21665e-08)
(-0.0297648 0.145121 4.61563e-07)
(-0.044038 0.158825 4.92798e-07)
(-0.0582953 0.163184 7.28089e-07)
(-0.0712171 0.158532 1.54962e-06)
(-0.0813888 0.144519 9.466e-06)
(-0.088401 0.120211 2.21019e-05)
(-0.0916729 0.0829657 -7.50359e-06)
(0.000302354 -0.000305691 -6.01474e-07)
(8.10579e-06 0.000160029 -0.000216776)
(-0.00185041 0.000664546 -0.000441789)
(-0.0048304 0.00100485 -0.000607292)
(-0.00853801 0.0011976 -0.000669657)
(-0.012634 0.00128045 -0.000608672)
(-0.0168372 0.0012808 -0.000418159)
(-0.020911 0.00121233 -9.87256e-05)
(-0.0246468 0.00108249 0.000343512)
(-0.0278689 0.000903315 0.000895571)
(-0.000185177 -8.96177e-06 0.000214801)
(-0.00248082 0.00239219 -5.95475e-06)
(-0.00803795 0.00472795 -0.000172619)
(-0.0158697 0.0064097 -0.00027056)
(-0.0252358 0.0074337 -0.000281817)
(-0.0354619 0.00789299 -0.000190561)
(-0.0459127 0.00787373 9.81989e-06)
(-0.0560117 0.00743575 0.000321587)
(-0.065244 0.00663437 0.000743306)
(-0.073187 0.00555892 0.00126832)
(-0.000776998 0.00197694 0.00044512)
(-0.00519051 0.00806696 0.000153796)
(-0.0142191 0.0134782 -1.37359e-05)
(-0.0261888 0.0174315 -9.0211e-05)
(-0.0401037 0.0198893 -8.41434e-05)
(-0.0550989 0.0209825 1.33114e-05)
(-0.0703126 0.0208533 0.000206401)
(-0.0849271 0.0196239 0.000498848)
(-0.0981896 0.0174412 0.000893637)
(-0.109469 0.0145545 0.00139025)
(-0.00125008 0.00537541 0.000600027)
(-0.00744539 0.0165232 0.000223217)
(-0.0194009 0.0257274 3.19385e-05)
(-0.034742 0.0323623 -4.66007e-05)
(-0.0522356 0.0364657 -4.27511e-05)
(-0.0708846 0.0382251 4.63945e-05)
(-0.0896731 0.0378251 0.000223403)
(-0.107602 0.0354347 0.000494578)
(-0.123712 0.031295 0.000869102)
(-0.137148 0.0258582 0.00135507)
(-0.0015734 0.00985469 0.000605415)
(-0.00905304 0.0271566 0.000154464)
(-0.0231552 0.040682 -6.2073e-05)
(-0.0409468 0.0502421 -0.000152963)
(-0.0610018 0.0560757 -0.000164417)
(-0.08223 0.0584631 -9.7e-05)
(-0.103511 0.0576159 5.27117e-05)
(-0.123705 0.0537132 0.000296466)
(-0.141652 0.0470545 0.000653466)
(-0.156206 0.0382955 0.00114723)
(-0.00174166 0.0150252 0.00041242)
(-0.009929 0.0392338 -9.37481e-05)
(-0.025243 0.057453 -0.000331194)
(-0.0444206 0.0701018 -0.00044163)
(-0.0659172 0.077714 -0.000480703)
(-0.0885915 0.0806946 -0.000449768)
(-0.111268 0.0792639 -0.000341329)
(-0.132714 0.0735527 -0.000134341)
(-0.151586 0.0638297 0.000205989)
(-0.166321 0.050869 0.000733453)
(-0.00175554 0.0204663 -2.42874e-06)
(-0.0100401 0.0519066 -0.000541985)
(-0.0255451 0.0749859 -0.000792824)
(-0.0449339 0.0907915 -0.000927889)
(-0.066628 0.100199 -0.00100636)
(-0.0894811 0.103761 -0.00102833)
(-0.112318 0.101686 -0.000979282)
(-0.13389 0.0939809 -0.000825019)
(-0.152755 0.0807255 -0.000509332)
(-0.16679 0.0625417 8.24006e-05)
(-0.00162236 0.0257558 -0.000639346)
(-0.00940354 0.0642926 -0.00119056)
(-0.0240667 0.0921527 -0.00144604)
(-0.0424392 0.111049 -0.00160928)
(-0.0629773 0.122198 -0.00173821)
(-0.0845567 0.126311 -0.00183114)
(-0.106046 0.123585 -0.00186508)
(-0.126273 0.11384 -0.0017907)
(-0.143928 0.0967557 -0.00152967)
(-0.156296 0.0721943 -0.000850855)
(-0.00136208 0.0304988 -0.00147618)
(-0.00810773 0.0755473 -0.00202009)
(-0.0209858 0.107837 -0.00227127)
(-0.0371684 0.129567 -0.00246387)
(-0.0551727 0.142243 -0.00265132)
(-0.0738684 0.146744 -0.00283142)
(-0.0921321 0.143309 -0.00297355)
(-0.108884 0.13161 -0.00301256)
(-0.123334 0.110877 -0.00285983)
(-0.132601 0.0793712 -0.00207949)
(-0.00101376 0.0343743 -0.00247086)
(-0.00633639 0.0849611 -0.00299392)
(-0.0167116 0.121054 -0.0032321)
(-0.0297607 0.145113 -0.00345119)
(-0.0440366 0.158812 -0.00369896)
(-0.0582884 0.163161 -0.00397767)
(-0.0711838 0.158488 -0.00425861)
(-0.0813474 0.144454 -0.00447281)
(-0.0884899 0.120148 -0.00458869)
(-0.0915941 0.0828474 -0.00398524)
(-0.0304654 0.000700164 -0.00153673)
(-0.0324226 0.000507046 -0.00224156)
(-0.0338164 0.000346752 -0.00298718)
(-0.0347664 0.000227066 -0.0037564)
(-0.035397 0.000145732 -0.00453783)
(-0.0358167 9.60397e-05 -0.00532484)
(-0.0361119 7.08083e-05 -0.00611429)
(-0.0363487 6.43057e-05 -0.00690544)
(-0.0365772 7.26178e-05 -0.00769938)
(-0.0368364 9.31568e-05 -0.00849879)
(-0.037156 0.000123727 -0.00930798)
(-0.0375557 0.000161338 -0.010133)
(-0.038041 0.000200844 -0.0109818)
(-0.0385953 0.000233528 -0.0118638)
(-0.039169 0.000245901 -0.0127891)
(-0.039667 0.000219361 -0.0137668)
(-0.0399396 0.000132016 -0.0148023)
(-0.03978 -3.56447e-05 -0.015893)
(-0.0389436 -0.000295348 -0.0170232)
(-0.0371945 -0.0006354 -0.0181612)
(-0.079584 0.00436064 -0.00188281)
(-0.0844205 0.00322337 -0.00256695)
(-0.0878937 0.00226945 -0.00330225)
(-0.0902942 0.00154297 -0.00407342)
(-0.0919172 0.00103448 -0.00486871)
(-0.0930187 0.000709344 -0.00567993)
(-0.0938019 0.000528182 -0.00650194)
(-0.0944211 0.000457131 -0.00733211)
(-0.0949915 0.000470196 -0.00816991)
(-0.0955981 0.000547056 -0.00901663)
(-0.0962996 0.000668508 -0.00987523)
(-0.0971267 0.00081071 -0.0107503)
(-0.0980727 0.000938926 -0.0116477)
(-0.0990784 0.00100164 -0.0125743)
(-0.100011 0.000926727 -0.0135372)
(-0.100643 0.000622775 -0.014542)
(-0.100633 -9.6666e-06 -0.015591)
(-0.099538 -0.00105245 -0.0166796)
(-0.0968495 -0.00253191 -0.0177939)
(-0.0920905 -0.00436626 -0.0189067)
(-0.118387 0.0113742 -0.00197937)
(-0.124973 0.00839058 -0.00264077)
(-0.129596 0.00591142 -0.00335694)
(-0.13273 0.00403401 -0.00411326)
(-0.134818 0.00272099 -0.0048978)
(-0.136218 0.00187582 -0.00570179)
(-0.137202 0.00139357 -0.00651932)
(-0.137966 0.00118458 -0.00734693)
(-0.138653 0.00117896 -0.00818322)
(-0.139362 0.00132057 -0.00902851)
(-0.140157 0.00155589 -0.00988468)
(-0.141068 0.00182052 -0.010755)
(-0.142077 0.00202502 -0.0116438)
(-0.143103 0.00204213 -0.0125564)
(-0.143973 0.00169937 -0.0134983)
(-0.144398 0.00078365 -0.0144746)
(-0.143945 -0.000931694 -0.0154878)
(-0.142038 -0.00362922 -0.0165363)
(-0.137996 -0.00735262 -0.0176107)
(-0.13115 -0.0118932 -0.0186905)
(-0.147382 0.0199175 -0.00194694)
(-0.154547 0.014462 -0.00261481)
(-0.159301 0.0100411 -0.00333817)
(-0.162358 0.00676889 -0.00410132)
(-0.1643 0.0045217 -0.00489157)
(-0.165549 0.00309167 -0.00569998)
(-0.166396 0.00227549 -0.00652062)
(-0.167034 0.0019088 -0.00734996)
(-0.167593 0.00186777 -0.00818631)
(-0.168159 0.00205539 -0.00902943)
(-0.168787 0.00238129 -0.00988029)
(-0.169499 0.00273915 -0.010741)
(-0.170281 0.00298342 -0.0116145)
(-0.17106 0.00290785 -0.0125049)
(-0.171682 0.00223126 -0.013417)
(-0.171872 0.000600735 -0.0143564)
(-0.171194 -0.00237025 -0.0153287)
(-0.169019 -0.00701191 -0.0163379)
(-0.164528 -0.0134397 -0.0173832)
(-0.156801 -0.0213385 -0.0184549)
(-0.16657 0.0287617 -0.00177857)
(-0.173073 0.0202891 -0.00248804)
(-0.176887 0.0137013 -0.00324789)
(-0.179049 0.00901112 -0.00404073)
(-0.180257 0.00589433 -0.00485331)
(-0.180945 0.0039595 -0.00567751)
(-0.18136 0.00287041 -0.00650867)
(-0.181646 0.00237685 -0.00734418)
(-0.181883 0.00230193 -0.00818273)
(-0.18212 0.00251438 -0.00902394)
(-0.182389 0.0028973 -0.00986803)
(-0.182705 0.00331622 -0.0107158)
(-0.183068 0.00358661 -0.0115688)
(-0.183448 0.00344202 -0.0124296)
(-0.183764 0.00250731 -0.0133021)
(-0.183835 0.000288721 -0.014193)
(-0.183322 -0.00379539 -0.0151117)
(-0.181633 -0.0103059 -0.0160705)
(-0.177845 -0.0195639 -0.0170823)
(-0.170667 -0.0312796 -0.0181571)
(-0.175564 0.0366938 -0.00146739)
(-0.180015 0.0247116 -0.00226805)
(-0.181784 0.0159687 -0.00309885)
(-0.182307 0.0101008 -0.00394462)
(-0.18232 0.0063921 -0.00479412)
(-0.182165 0.00417911 -0.0056429)
(-0.181977 0.00296751 -0.00648967)
(-0.181794 0.0024257 -0.00733412)
(-0.181619 0.0023385 -0.00817621)
(-0.181443 0.00255847 -0.00901575)
(-0.181264 0.00296275 -0.00985234)
(-0.181089 0.00341374 -0.0106855)
(-0.180935 0.00371974 -0.0115147)
(-0.180835 0.00359265 -0.0123406)
(-0.18082 0.0026034 -0.0131654)
(-0.180882 0.000141861 -0.0139959)
(-0.18089 -0.00459262 -0.0148453)
(-0.180441 -0.0125051 -0.0157354)
(-0.178626 -0.0243665 -0.0166975)
(-0.173661 -0.0402436 -0.0177807)
(-0.17344 0.0422314 -0.00103357)
(-0.174197 0.0264091 -0.00199348)
(-0.172865 0.0159493 -0.00292967)
(-0.171239 0.00951773 -0.00384487)
(-0.169859 0.00573995 -0.00473748)
(-0.168818 0.00361369 -0.00561226)
(-0.168046 0.00250004 -0.00647432)
(-0.167436 0.00201997 -0.00732705)
(-0.166895 0.00195257 -0.00817214)
(-0.166351 0.00216148 -0.0090098)
(-0.165764 0.00254315 -0.00983896)
(-0.165121 0.0029858 -0.0106575)
(-0.164453 0.00332934 -0.0114627)
(-0.163846 0.00331791 -0.0122521)
(-0.16345 0.00253778 -0.0130248)
(-0.163474 0.000334436 -0.0137852)
(-0.164112 -0.00427727 -0.0145489)
(-0.165378 -0.012632 -0.0153457)
(-0.166713 -0.0262983 -0.0162289)
(-0.165886 -0.0464148 -0.0173195)
(-0.158218 0.0432202 -0.000534007)
(-0.153347 0.0237927 -0.00173621)
(-0.148252 0.0128986 -0.00279955)
(-0.144537 0.00704698 -0.00378432)
(-0.142044 0.00396305 -0.00471149)
(-0.140413 0.00237099 -0.00560291)
(-0.139312 0.00159208 -0.00647309)
(-0.138489 0.00127933 -0.00732945)
(-0.137769 0.00125599 -0.00817513)
(-0.137035 0.00142677 -0.00901034)
(-0.136212 0.00172829 -0.00983302)
(-0.135267 0.00209601 -0.0106392)
(-0.134222 0.00243337 -0.0114234)
(-0.133176 0.00257149 -0.0121794)
(-0.13235 0.00220425 -0.0129014)
(-0.132131 0.000773537 -0.0135885)
(-0.133066 -0.00271994 -0.0142557)
(-0.135834 -0.00994308 -0.0149355)
(-0.140916 -0.0235724 -0.0156974)
(-0.146385 -0.0472334 -0.0167738)
(-0.125491 0.0371558 -0.000257136)
(-0.113277 0.0159554 -0.00172771)
(-0.105145 0.00704599 -0.00283772)
(-0.100608 0.00327013 -0.0038295)
(-0.0980251 0.00162362 -0.00474911)
(-0.0965074 0.000896535 -0.00563092)
(-0.0955525 0.000585197 -0.00649424)
(-0.0948595 0.000481256 -0.00734654)
(-0.0942462 0.000498592 -0.00818985)
(-0.0935956 0.000600289 -0.00902303)
(-0.0928288 0.000767528 -0.00984236)
(-0.0918981 0.000983606 -0.0106417)
(-0.0907953 0.00122073 -0.0114123)
(-0.0895774 0.00142045 -0.012143)
(-0.088422 0.00145351 -0.0128207)
(-0.0877169 0.00102881 -0.0134344)
(-0.0881391 -0.000527511 -0.0139921)
(-0.0909862 -0.00482083 -0.014499)
(-0.0987153 -0.015386 -0.0149989)
(-0.112398 -0.0401756 -0.0158841)
(-0.0639115 0.0227831 -0.00090356)
(-0.047672 0.0065636 -0.0023636)
(-0.041026 0.00199844 -0.00311522)
(-0.0386229 0.000640146 -0.00386265)
(-0.0375828 0.000219161 -0.00462681)
(-0.0370538 9.0541e-05 -0.00540404)
(-0.03674 5.62019e-05 -0.00619203)
(-0.0365036 5.56231e-05 -0.00698556)
(-0.0362712 7.20136e-05 -0.00777963)
(-0.0359951 0.00010208 -0.00856927)
(-0.035637 0.000146623 -0.00934836)
(-0.0351631 0.000207567 -0.0101085)
(-0.0345458 0.000286376 -0.0108375)
(-0.0337719 0.000380784 -0.011518)
(-0.0328637 0.000474521 -0.0121251)
(-0.0319304 0.00050587 -0.0126235)
(-0.0313118 0.000252365 -0.0129662)
(-0.0319607 -0.00113545 -0.0131173)
(-0.0375344 -0.00636069 -0.0129574)
(-0.0560659 -0.0254695 -0.0131145)
(-0.0304691 0.00068576 1.67364e-06)
(-0.0324257 0.000495883 1.17073e-06)
(-0.0338186 0.000338512 7.74958e-07)
(-0.0347679 0.000221189 4.89216e-07)
(-0.0353978 0.000141615 3.00233e-07)
(-0.0358171 9.31228e-05 1.86512e-07)
(-0.0361121 6.86166e-05 1.27473e-07)
(-0.0363486 6.24572e-05 1.07491e-07)
(-0.036577 7.08148e-05 1.15855e-07)
(-0.036836 9.11762e-05 1.45846e-07)
(-0.0371555 0.000121421 1.92927e-07)
(-0.0375552 0.000158649 2.52189e-07)
(-0.0380404 0.00019784 3.16123e-07)
(-0.0385948 0.000230457 3.72335e-07)
(-0.0391686 0.000243252 4.00174e-07)
(-0.0396671 0.000217916 3.66244e-07)
(-0.0399404 0.00013283 2.2831e-07)
(-0.039782 -3.14008e-05 -3.88492e-08)
(-0.0389474 -0.000286427 -5.09651e-07)
(-0.0372 -0.000621068 -1.21866e-06)
(-0.079583 0.00434874 -1.50052e-06)
(-0.084419 0.00321362 -1.25196e-06)
(-0.0878919 0.00226201 -9.89755e-07)
(-0.0902923 0.00153753 -7.55876e-07)
(-0.0919156 0.00103063 -5.65155e-07)
(-0.0930174 0.000706641 -4.24882e-07)
(-0.093801 0.000526229 -3.34642e-07)
(-0.0944206 0.000455597 -2.88564e-07)
(-0.0949913 0.000468817 -2.78591e-07)
(-0.0955981 0.000545628 -2.95387e-07)
(-0.0962997 0.00066688 -3.27431e-07)
(-0.0971265 0.000808792 -3.59636e-07)
(-0.0980721 0.000936711 -3.7156e-07)
(-0.0990772 0.000999248 -3.36025e-07)
(-0.100009 0.000924474 -2.19576e-07)
(-0.100639 0.000621225 1.27067e-08)
(-0.100629 -9.71159e-06 3.84138e-07)
(-0.099533 -0.00105001 8.85074e-07)
(-0.0968452 -0.00252593 1.48553e-06)
(-0.092088 -0.00435667 2.05017e-06)
(-0.118389 0.0113763 -1.86943e-07)
(-0.124974 0.008391 -3.23272e-07)
(-0.129595 0.0059114 -3.53782e-07)
(-0.132729 0.00403391 -3.36059e-07)
(-0.134816 0.00272099 -2.87187e-07)
(-0.136217 0.00187599 -2.29483e-07)
(-0.137201 0.00139391 -1.77227e-07)
(-0.137966 0.00118509 -1.35785e-07)
(-0.138653 0.00117965 -1.05868e-07)
(-0.139361 0.00132145 -8.55612e-08)
(-0.140157 0.00155692 -7.13659e-08)
(-0.141068 0.00182162 -5.88409e-08)
(-0.142077 0.00202605 -4.27369e-08)
(-0.143102 0.0020429 -1.65286e-08)
(-0.143972 0.00169961 2.84271e-08)
(-0.144396 0.000783119 9.90555e-08)
(-0.143943 -0.000933267 1.91065e-07)
(-0.142035 -0.00363179 2.98557e-07)
(-0.137995 -0.00735605 4.089e-07)
(-0.131153 -0.0118989 3.47627e-07)
(-0.147387 0.0199141 -2.94528e-07)
(-0.154548 0.0144581 -4.73771e-07)
(-0.1593 0.0100386 -4.70177e-07)
(-0.162357 0.00676751 -4.17854e-07)
(-0.164298 0.00452117 -3.32666e-07)
(-0.165548 0.00309168 -2.46339e-07)
(-0.166395 0.00227578 -1.7485e-07)
(-0.167033 0.00190922 -1.20645e-07)
(-0.167592 0.00186825 -8.20046e-08)
(-0.168159 0.00205587 -5.59195e-08)
(-0.168786 0.00238174 -3.91158e-08)
(-0.169499 0.0027395 -2.85659e-08)
(-0.17028 0.00298358 -2.14355e-08)
(-0.171059 0.00290772 -1.32792e-08)
(-0.171681 0.0022308 7.10639e-09)
(-0.17187 0.000600039 5.15554e-08)
(-0.171192 -0.00237103 1.04792e-07)
(-0.169016 -0.00701189 2.05017e-07)
(-0.164528 -0.0134373 3.96317e-07)
(-0.156807 -0.0213357 3.49364e-07)
(-0.166578 0.0287529 -7.98859e-07)
(-0.173072 0.0202816 -8.94643e-07)
(-0.176884 0.0136977 -7.24312e-07)
(-0.179046 0.00900979 -5.66215e-07)
(-0.180255 0.00589429 -3.98703e-07)
(-0.180942 0.00396006 -2.62081e-07)
(-0.181359 0.00287113 -1.67561e-07)
(-0.181645 0.00237755 -1.06547e-07)
(-0.181882 0.00230252 -6.97768e-08)
(-0.18212 0.00251484 -5.01678e-08)
(-0.182388 0.00289763 -4.27375e-08)
(-0.182705 0.00331639 -4.4126e-08)
(-0.183067 0.00358658 -5.18772e-08)
(-0.183448 0.00344172 -6.10666e-08)
(-0.183763 0.00250677 -5.20828e-08)
(-0.183834 0.000288178 2.16844e-09)
(-0.183319 -0.00379545 5.39636e-08)
(-0.181628 -0.0103037 2.02745e-07)
(-0.177842 -0.0195554 6.95254e-07)
(-0.170677 -0.0312668 9.93387e-07)
(-0.17558 0.036676 -1.70685e-06)
(-0.180011 0.0246995 -1.45453e-06)
(-0.181776 0.015965 -9.10372e-07)
(-0.182301 0.0101006 -6.09555e-07)
(-0.182316 0.00639323 -3.58728e-07)
(-0.182163 0.00418056 -1.89226e-07)
(-0.181976 0.00296881 -9.38392e-08)
(-0.181794 0.00242673 -4.33286e-08)
(-0.181618 0.00233929 -1.86315e-08)
(-0.181443 0.00255908 -9.14191e-09)
(-0.181264 0.00296322 -9.61446e-09)
(-0.181089 0.00341407 -1.81705e-08)
(-0.180935 0.00371989 -3.4943e-08)
(-0.180835 0.00359255 -5.92368e-08)
(-0.180819 0.00260302 -7.32077e-08)
(-0.18088 0.000141534 -4.21805e-08)
(-0.180885 -0.00459209 -2.12178e-08)
(-0.18043 -0.0125013 1.13478e-07)
(-0.178616 -0.0243504 1.19348e-06)
(-0.173677 -0.0402163 2.51865e-06)
(-0.173472 0.0422066 -4.54296e-06)
(-0.174182 0.0264011 -2.9951e-06)
(-0.17285 0.015953 -1.38237e-06)
(-0.171231 0.00952204 -7.20513e-07)
(-0.169855 0.00574347 -3.06204e-07)
(-0.168816 0.0036163 -9.46153e-08)
(-0.168045 0.00250184 -1.16252e-08)
(-0.167435 0.00202123 1.55406e-08)
(-0.166894 0.00195356 1.89406e-08)
(-0.166351 0.00216236 1.15061e-08)
(-0.165764 0.00254401 -2.47402e-09)
(-0.165121 0.00298668 -2.26645e-08)
(-0.164454 0.00333016 -5.01407e-08)
(-0.163846 0.00331846 -8.75741e-08)
(-0.163449 0.00253776 -1.16943e-07)
(-0.163472 0.000333854 -6.22086e-08)
(-0.164105 -0.0042788 7.27163e-08)
(-0.165358 -0.0126345 3.6358e-07)
(-0.166688 -0.0262869 2.88118e-06)
(-0.165918 -0.0463795 6.92068e-06)
(-0.158278 0.0431791 -7.71947e-06)
(-0.153316 0.023803 -3.1305e-06)
(-0.148233 0.0129202 -6.33491e-07)
(-0.144532 0.00705919 -2.41406e-07)
(-0.142043 0.00396927 3.08807e-08)
(-0.140413 0.00237436 1.26875e-07)
(-0.139312 0.00159401 1.19874e-07)
(-0.138489 0.00128066 9.84311e-08)
(-0.137769 0.00125721 8.15393e-08)
(-0.137035 0.00142815 6.98496e-08)
(-0.136212 0.00172998 6.03289e-08)
(-0.135267 0.00209806 4.82051e-08)
(-0.134222 0.00243568 2.61357e-08)
(-0.133177 0.00257365 -2.624e-08)
(-0.132351 0.00220538 -1.03233e-07)
(-0.132131 0.000772112 -3.53771e-08)
(-0.133065 -0.00272839 9.5949e-08)
(-0.135814 -0.00996539 -3.54357e-07)
(-0.14087 -0.0235855 2.55023e-06)
(-0.146445 -0.0471779 1.10636e-05)
(-0.125564 0.03696 -9.64886e-06)
(-0.113209 0.0158963 4.27202e-06)
(-0.105134 0.00703505 4.77593e-06)
(-0.100618 0.00326301 2.03591e-06)
(-0.0980305 0.00161833 1.05198e-06)
(-0.09651 0.00089324 6.37639e-07)
(-0.0955539 0.000583037 3.99901e-07)
(-0.09486 0.000479646 3.02153e-07)
(-0.0942461 0.000497193 2.90034e-07)
(-0.0935952 0.000598876 3.26524e-07)
(-0.0928283 0.000765953 3.92188e-07)
(-0.0918978 0.000981816 4.70163e-07)
(-0.0907956 0.00121882 5.31097e-07)
(-0.089579 0.00141877 4.99617e-07)
(-0.0884255 0.00145283 2.79399e-07)
(-0.0877256 0.00103007 -7.80866e-08)
(-0.088158 -0.000524212 -1.28874e-06)
(-0.0909826 -0.0048136 -5.92342e-06)
(-0.0986259 -0.015322 -8.02383e-06)
(-0.112449 -0.0399215 1.19862e-05)
(-0.0639538 0.0226388 -5.35436e-05)
(-0.0475139 0.00649517 -9.07424e-06)
(-0.0409814 0.00197088 -6.48164e-07)
(-0.0386186 0.000624596 -1.4585e-06)
(-0.0375799 0.000210113 -9.4674e-07)
(-0.0370517 8.54566e-05 -4.43586e-07)
(-0.0367392 5.31107e-05 -2.50615e-07)
(-0.0365032 5.33749e-05 -1.77511e-07)
(-0.0362711 6.99736e-05 -1.57094e-07)
(-0.0359953 9.98657e-05 -1.72538e-07)
(-0.0356373 0.000143999 -2.13418e-07)
(-0.0351634 0.000204439 -2.69586e-07)
(-0.0345461 0.000282874 -3.26362e-07)
(-0.0337719 0.000377491 -3.57577e-07)
(-0.0328626 0.000472772 -2.73258e-07)
(-0.0319294 0.00050787 1.69165e-07)
(-0.0313142 0.000261668 5.99741e-07)
(-0.0319192 -0.00111203 -1.97144e-06)
(-0.0373202 -0.00628717 3.9451e-06)
(-0.056053 -0.0252763 6.76004e-05)
(-0.0304691 0.00068576 -1.6729e-06)
(-0.0324257 0.000495883 -1.17039e-06)
(-0.0338186 0.000338512 -7.74798e-07)
(-0.0347679 0.00022119 -4.89147e-07)
(-0.0353978 0.000141615 -3.00271e-07)
(-0.0358171 9.31227e-05 -1.86654e-07)
(-0.0361121 6.86165e-05 -1.27642e-07)
(-0.0363486 6.24571e-05 -1.0767e-07)
(-0.0365769 7.08147e-05 -1.16162e-07)
(-0.036836 9.11762e-05 -1.46284e-07)
(-0.0371555 0.000121421 -1.93364e-07)
(-0.0375552 0.000158649 -2.52557e-07)
(-0.0380404 0.00019784 -3.16414e-07)
(-0.0385947 0.000230457 -3.7252e-07)
(-0.0391686 0.000243252 -4.00221e-07)
(-0.039667 0.000217916 -3.66075e-07)
(-0.0399404 0.00013283 -2.27784e-07)
(-0.039782 -3.1401e-05 3.98638e-08)
(-0.0389474 -0.000286427 5.112e-07)
(-0.0372 -0.000621068 1.22068e-06)
(-0.079583 0.00434874 1.50133e-06)
(-0.084419 0.00321362 1.25239e-06)
(-0.0878918 0.00226201 9.90036e-07)
(-0.0902923 0.00153753 7.56071e-07)
(-0.0919155 0.00103063 5.65234e-07)