/*--------------------------------*- C++ -*----------------------------------*\
| =========                 |                                                 |
| \\      /  F ield         | OpenFOAM: The Open Source CFD Toolbox           |
|  \\    /   O peration     | Version:  2.4.0                                 |
|   \\  /    A nd           | Web:      www.OpenFOAM.org                      |
|    \\/     M anipulation  |                                                 |
\*---------------------------------------------------------------------------*/
FoamFile
{
    version     2.0;
    format      ascii;
    class       volScalarField;
    location    "0.46";
    object      T;
}
// * * * * * * * * * * * * * * * * * * * * * * * * * * * * * * * * * * * * * //

dimensions      [0 0 0 1 0 0 0];

internalField   nonuniform List<scalar> 
1600
(
101.327
103.98
106.631
109.282
111.929
114.574
117.214
119.849
122.479
125.102
127.718
130.326
132.925
135.514
138.092
140.66
143.216
145.76
148.29
150.808
153.313
155.803
158.281
160.745
163.195
165.633
168.058
170.472
172.875
175.267
177.65
180.025
182.392
184.753
187.108
189.458
191.804
194.148
196.49
198.83
101.328
103.982
106.636
109.288
111.937
114.583
117.225
119.863
122.494
125.119
127.736
130.345
132.945
135.536
138.116
140.684
143.241
145.785
148.317
150.835
153.339
155.83
158.307
160.77
163.22
165.657
168.081
170.493
172.895
175.286
177.667
180.04
182.406
184.765
187.118
189.467
191.811
194.153
196.493
198.831
101.329
103.987
106.645
109.3
111.953
114.603
117.248
119.889
122.523
125.151
127.771
130.383
132.986
135.579
138.161
140.731
143.29
145.835
148.368
150.887
153.391
155.882
158.359
160.821
163.27
165.705
168.127
170.538
172.936
175.325
177.703
180.073
182.435
184.79
187.139
189.484
191.825
194.163
196.498
198.833
101.332
103.995
106.658
109.319
111.977
114.631
117.282
119.927
122.567
125.199
127.824
130.44
133.046
135.643
138.228
140.801
143.362
145.909
148.443
150.963
153.468
155.959
158.435
160.896
163.344
165.777
168.196
170.603
172.998
175.382
177.756
180.121
182.478
184.828
187.171
189.511
191.846
194.178
196.507
198.836
101.335
104.006
106.675
109.343
112.008
114.669
117.326
119.978
122.624
125.262
127.892
130.514
133.125
135.726
138.316
140.892
143.456
146.007
148.542
151.064
153.57
156.061
158.536
160.996
163.441
165.871
168.288
170.69
173.081
175.459
177.827
180.185
182.535
184.878
187.214
189.546
191.873
194.197
196.519
198.84
101.34
104.019
106.697
109.373
112.047
114.717
117.382
120.041
122.695
125.34
127.978
130.606
133.223
135.83
138.424
141.005
143.573
146.127
148.665
151.188
153.695
156.186
158.661
161.119
163.562
165.989
168.401
170.799
173.183
175.555
177.915
180.266
182.607
184.941
187.268
189.59
191.908
194.222
196.534
198.845
101.345
104.034
106.723
109.409
112.093
114.773
117.448
120.117
122.779
125.433
128.079
130.714
133.339
135.952
138.553
141.139
143.712
146.269
148.81
151.335
153.843
156.335
158.809
161.266
163.705
166.129
168.536
170.928
173.305
175.669
178.021
180.362
182.694
185.017
187.333
189.643
191.949
194.252
196.552
198.851
101.351
104.052
106.753
109.451
112.147
114.838
117.524
120.204
122.877
125.541
128.196
130.84
133.473
136.094
138.701
141.294
143.871
146.433
148.978
151.505
154.015
156.506
158.98
161.435
163.871
166.291
168.692
171.078
173.447
175.803
178.145
180.475
182.794
185.105
187.408
189.706
191.998
194.287
196.573
198.858
101.358
104.073
106.787
109.499
112.208
114.912
117.611
120.303
122.988
125.663
128.329
130.983
133.626
136.254
138.869
141.469
144.052
146.618
149.167
151.697
154.208
156.7
159.173
161.626
164.059
166.474
168.87
171.248
173.609
175.954
178.285
180.603
182.91
185.207
187.495
189.777
192.054
194.327
196.597
198.866
101.366
104.096
106.826
109.553
112.277
114.996
117.709
120.415
123.113
125.801
128.478
131.143
133.796
136.434
139.057
141.663
144.253
146.824
149.377
151.91
154.423
156.916
159.387
161.838
164.268
166.678
169.067
171.438
173.79
176.124
178.443
180.748
183.04
185.321
187.593
189.858
192.117
194.372
196.624
198.875
101.374
104.122
106.869
109.614
112.354
115.089
117.818
120.539
123.251
125.953
128.643
131.32
133.983
136.632
139.264
141.878
144.474
147.051
149.608
152.144
154.659
157.152
159.623
162.071
164.498
166.902
169.285
171.647
173.989
176.312
178.618
180.908
183.184
185.448
187.702
189.947
192.187
194.422
196.655
198.885
101.384
104.151
106.917
109.68
112.439
115.192
117.938
120.676
123.403
126.12
128.824
131.514
134.19
136.849
139.49
142.113
144.716
147.299
149.86
152.399
154.915
157.409
159.878
162.324
164.747
167.145
169.521
171.874
174.206
176.517
178.809
181.083
183.342
185.588
187.822
190.047
192.265
194.478
196.688
198.896
101.395
104.183
106.97
109.753
112.532
115.305
118.07
120.825
123.57
126.303
129.022
131.727
134.414
137.085
139.736
142.368
144.978
147.567
150.133
152.675
155.192
157.686
160.154
162.597
165.015
167.408
169.776
172.12
174.441
176.739
179.016
181.274
183.515
185.74
187.953
190.155
192.35
194.539
196.725
198.908
101.406
104.217
107.027
109.834
112.634
115.428
118.214
120.989
123.753
126.503
129.238
131.957
134.659
137.341
140.003
142.644
145.262
147.856
150.426
152.971
155.49
157.983
160.45
162.89
165.303
167.689
170.049
172.383
174.693
176.978
179.24
181.48
183.702
185.906
188.096
190.274
192.443
194.606
196.765
198.922
101.419
104.256
107.091
109.921
112.746
115.564
118.371
121.168
123.951
126.72
129.473
132.208
134.924
137.619
140.292
142.942
145.568
148.168
150.743
153.29
155.81
158.303
160.767
163.203
165.611
167.99
170.342
172.665
174.962
177.233
179.479
181.702
183.903
186.085
188.251
190.403
192.544
194.679
196.809
198.936
101.433
104.297
107.16
110.017
112.869
115.711
118.543
121.362
124.168
126.957
129.728
132.48
135.211
137.919
140.604
143.264
145.897
148.504
151.083
153.633
156.155
158.646
161.108
163.54
165.941
168.313
170.655
172.967
175.251
177.506
179.735
181.939
184.119
186.278
188.418
190.542
192.654
194.758
196.857
198.952
101.448
104.343
107.235
110.122
113.002
115.872
118.73
121.575
124.403
127.214
130.005
132.775
135.522
138.245
140.942
143.612
146.254
148.867
151.45
154.003
156.525
159.016
161.475
163.902
166.297
168.66
170.991
173.291
175.56
177.799
180.01
182.193
184.35
186.484
188.597
190.692
192.773
194.843
196.909
198.969
101.465
104.393
107.318
110.237
113.148
116.048
118.935
121.806
124.66
127.494
130.306
133.095
135.86
138.597
141.307
143.989
146.639
149.259
151.848
154.403
156.926
159.416
161.871
164.293
166.68
169.034
171.353
173.639
175.893
178.114
180.305
182.465
184.598
186.706
188.79
190.854
192.901
194.936
196.965
198.988
101.483
104.448
107.409
110.363
113.308
116.24
119.158
122.059
124.94
127.799
130.634
133.444
136.227
138.981
141.705
144.398
147.058
149.685
152.278
154.837
157.361
159.848
162.3
164.716
167.095
169.438
171.745
174.016
176.252
178.454
180.623
182.759
184.866
186.944
188.997
191.028
193.039
195.036
197.025
199.008
101.503
104.508
107.508
110.501
113.483
116.451
119.403
122.335
125.246
128.132
130.993
133.825
136.628
139.399
142.138
144.843
147.513
150.148
152.747
155.308
157.832
160.319
162.766
165.175
167.546
169.877
172.17
174.425
176.642
178.823
180.967
183.077
185.155
187.202
189.221
191.216
193.189
195.145
197.091
199.03
101.525
104.574
107.618
110.653
113.676
116.683
119.672
122.639
125.581
128.497
131.385
134.241
137.065
139.855
142.61
145.328
148.009
150.652
153.257
155.822
158.346
160.831
163.274
165.676
168.036
170.356
172.633
174.87
177.067
179.224
181.342
183.423
185.468
187.481
189.464
191.42
193.351
195.263
197.163
199.053
101.55
104.647
107.739
110.821
113.888
116.938
119.967
122.972
125.95
128.898
131.814
134.696
137.543
140.353
143.125
145.858
148.551
151.203
153.813
156.381
158.907
161.389
163.827
166.222
168.572
170.877
173.139
175.356
177.53
179.661
181.751
183.8
185.811
187.786
189.728
191.641
193.527
195.391
197.241
199.079
101.577
104.728
107.873
111.006
114.122
117.219
120.293
123.339
126.354
129.337
132.285
135.195
138.067
140.899
143.689
146.437
149.142
151.804
154.421
156.993
159.519
161.999
164.432
166.818
169.156
171.447
173.691
175.887
178.037
180.14
182.198
184.213
186.186
188.119
190.017
191.883
193.72
195.532
197.327
199.108
101.607
104.818
108.021
111.21
114.382
117.53
120.652
123.743
126.8
129.821
132.803
135.744
138.642
141.497
144.307
147.071
149.79
152.461
155.085
157.66
160.187
162.664
165.092
167.469
169.795
172.071
174.295
176.469
178.592
180.665
182.689
184.666
186.597
188.485
190.334
192.148
193.93
195.685
197.422
199.139
101.64
104.917
108.185
111.437
114.669
117.874
121.049
124.19
127.292
130.354
133.372
136.346
139.273
142.152
144.984
147.766
150.498
153.18
155.811
158.39
160.917
163.392
165.813
168.181
170.494
172.753
174.957
177.106
179.2
181.241
183.228
185.164
187.05
188.889
190.684
192.441
194.162
195.855
197.525
199.173
101.677
105.028
108.368
111.69
114.988
118.256
121.49
124.684
127.835
130.941
133.999
137.008
139.966
142.872
145.725
148.525
151.272
153.965
156.604
159.187
161.715
164.187
166.601
168.959
171.258
173.499
175.681
177.804
179.868
181.873
183.821
185.713
187.549
189.334
191.071
192.764
194.419
196.041
197.64
199.211
101.719
105.152
108.572
111.972
115.343
118.681
121.978
125.231
128.436
131.59
134.69
137.736
140.727
143.661
146.537
149.357
152.119
154.824
157.47
160.057
162.586
165.054
167.462
169.808
172.093
174.315
176.474
178.569
180.601
182.569
184.474
186.317
188.101
189.826
191.499
193.123
194.704
196.249
197.768
199.254
101.765
105.291
108.801
112.287
115.74
119.153
122.521
125.838
129.1
132.306
135.452
138.538
141.562
144.526
147.427
150.267
153.045
155.761
158.415
161.006
163.535
166
168.401
170.736
173.005
175.207
177.342
179.408
181.405
183.333
185.193
186.985
188.71
190.372
191.974
193.522
195.021
196.48
197.909
199.301
101.818
105.447
109.058
112.64
116.184
119.681
123.125
126.511
129.836
133.096
136.291
139.419
142.479
145.473
148.4
151.261
154.055
156.783
159.445
162.041
164.569
167.031
169.424
171.747
174.001
176.182
178.291
180.327
182.288
184.174
185.986
187.722
189.386
190.978
192.503
193.967
195.376
196.739
198.068
199.354
101.877
105.623
109.347
113.037
116.681
120.271
123.798
127.26
130.651
133.969
137.215
140.386
143.485
146.51
149.463
152.345
155.156
157.896
160.566
163.166
165.695
168.152
170.537
172.849
175.086
177.246
179.329
181.333
183.257
185.099
186.86
188.538
190.135
191.652
193.094
194.465
195.773
197.03
198.246
199.413
101.944
105.823
109.676
113.486
117.241
120.932
124.551
128.092
131.553
134.934
138.232
141.449
144.586
147.644
150.624
153.527
156.354
159.107
161.785
164.388
166.917
169.37
171.747
174.046
176.266
178.406
180.462
182.434
184.319
186.116
187.824
189.441
190.967
192.404
193.755
195.025
196.222
197.359
198.446
199.481
102.021
106.052
110.05
113.996
117.875
121.676
125.392
129.019
132.554
135.998
139.351
142.615
145.791
148.881
151.887
154.812
157.655
160.42
163.106
165.713
168.241
170.691
173.059
175.346
177.55
179.668
181.698
183.637
185.484
187.235
188.887
190.441
191.893
193.244
194.497
195.657
196.73
197.733
198.675
199.558
102.11
106.316
110.48
114.578
118.594
122.515
126.335
130.052
133.664
137.173
140.581
143.891
147.106
150.228
153.261
156.206
159.066
161.842
164.535
167.146
169.674
172.119
174.48
176.755
178.942
181.039
183.043
184.951
186.759
188.463
190.061
191.549
192.925
194.186
195.335
196.374
197.31
198.161
198.937
199.648
102.215
106.625
110.979
115.249
119.414
123.464
127.394
131.204
134.894
138.468
141.931
145.287
148.539
151.692
154.75
157.715
160.59
163.377
166.078
168.692
171.22
173.661
176.014
178.278
180.45
182.527
184.506
186.383
188.153
189.813
191.356
192.779
194.077
195.245
196.283
197.193
197.978
198.657
199.242
199.754
102.34
106.991
111.567
116.029
120.357
124.544
128.587
132.489
136.257
139.895
143.41
146.809
150.098
153.28
156.361
159.345
162.234
165.032
167.738
170.356
172.883
175.321
177.668
179.921
182.079
184.137
186.093
187.941
189.677
191.293
192.785
194.145
195.365
196.44
197.364
198.135
198.755
199.241
199.604
199.882
102.494
107.438
112.271
116.946
121.448
125.775
129.931
133.924
137.765
141.463
145.028
148.467
151.788
154.997
158.099
161.1
164.002
166.809
169.522
172.142
174.669
177.104
179.445
181.689
183.834
185.876
187.812
189.634
191.339
192.917
194.361
195.662
196.809
197.792
198.602
199.229
199.671
199.94
200.043
200.038
102.693
108.001
113.132
118.039
122.72
127.184
131.447
135.525
139.433
143.184
146.792
150.266
153.616
156.848
159.969
162.984
165.898
168.713
171.431
174.054
176.582
179.014
181.35
183.587
185.722
187.751
189.67
191.471
193.149
194.694
196.098
197.347
198.429
199.329
200.03
200.515
200.768
200.796
200.585
200.232
102.966
108.745
114.211
119.356
124.209
128.8
133.157
137.307
141.271
145.068
148.711
152.214
155.587
158.839
161.975
165.003
167.926
170.748
173.471
176.097
178.626
181.057
183.39
185.622
187.75
189.769
191.675
193.46
195.117
196.637
198.009
199.218
200.248
201.079
201.687
202.043
202.113
201.88
201.289
200.492
103.426
109.785
115.587
120.954
125.955
130.649
135.081
139.287
143.294
147.124
150.795
154.32
157.711
160.977
164.125
167.163
170.093
172.921
175.649
178.277
180.808
183.239
185.571
187.8
189.923
191.937
193.834
195.609
197.253
198.756
200.106
201.288
202.281
203.065
203.606
203.868
203.789
203.314
202.3
200.931
104.274
111.371
117.448
122.964
128.057
132.809
137.281
141.515
145.545
149.393
153.078
156.614
160.015
163.288
166.444
169.486
172.421
175.253
177.983
180.613
183.144
185.576
187.907
190.134
192.256
194.266
196.159
197.929
199.566
201.06
202.398
203.564
204.537
205.294
205.797
206.007
205.846
205.235
203.928
201.98
)
;

boundaryField
{
    carasuperior
    {
        type            fixedGradient;
        gradient        uniform 100;
    }
    lateralizquierda
    {
        type            fixedValue;
        value           uniform 100;
    }
    lateralderecha
    {
        type            fixedValue;
        value           uniform 200;
    }
    carainferior
    {
        type            zeroGradient;
    }
    frontAndBack
    {
        type            empty;
    }
}


// ************************************************************************* //
