/*--------------------------------*- C++ -*----------------------------------*\
| =========                 |                                                 |
| \\      /  F ield         | OpenFOAM: The Open Source CFD Toolbox           |
|  \\    /   O peration     | Version:  2.4.0                                 |
|   \\  /    A nd           | Web:      www.OpenFOAM.org                      |
|    \\/     M anipulation  |                                                 |
\*---------------------------------------------------------------------------*/
FoamFile
{
    version     2.0;
    format      ascii;
    class       volScalarField;
    location    "0.0079";
    object      T;
}
// * * * * * * * * * * * * * * * * * * * * * * * * * * * * * * * * * * * * * //

dimensions      [0 0 0 1 0 0 0];

internalField   nonuniform List<scalar> 
4800
(
100.194
100.581
100.968
101.354
101.738
102.117
102.487
102.844
103.182
103.493
100.581
101.742
102.903
104.063
105.217
106.359
107.475
108.552
109.571
110.511
100.968
102.903
104.841
106.778
108.71
110.625
112.503
114.319
116.039
117.626
101.354
104.063
106.779
109.499
112.22
114.927
117.593
120.182
122.64
124.908
101.738
105.218
108.711
112.221
115.745
119.269
122.762
126.174
129.431
132.438
102.117
106.359
110.625
114.927
119.269
123.641
128.012
132.323
136.471
140.314
102.488
107.476
112.504
117.595
122.763
128.013
133.323
138.633
143.817
148.66
102.845
108.554
114.321
120.184
126.177
132.325
138.634
145.068
151.502
157.641
103.182
109.573
116.042
122.644
129.435
136.475
143.82
151.504
159.482
167.46
103.494
110.514
117.631
124.914
132.445
140.321
148.666
157.645
167.462
178.222
100.194
100.581
100.968
101.354
101.738
102.117
102.487
102.844
103.182
103.493
100.581
101.742
102.903
104.063
105.217
106.359
107.475
108.552
109.571
110.511
100.968
102.903
104.841
106.778
108.71
110.625
112.503
114.319
116.039
117.626
101.354
104.063
106.779
109.499
112.22
114.927
117.593
120.182
122.64
124.908
101.738
105.218
108.711
112.221
115.745
119.269
122.762
126.174
129.431
132.438
102.117
106.359
110.625
114.928
119.269
123.641
128.012
132.323
136.471
140.314
102.488
107.476
112.505
117.595
122.764
128.013
133.323
138.633
143.817
148.66
102.845
108.554
114.321
120.184
126.177
132.325
138.634
145.068
151.502
157.641
103.183
109.573
116.043
122.644
129.436
136.475
143.82
151.504
159.482
167.46
103.494
110.515
117.631
124.915
132.446
140.321
148.666
157.646
167.463
178.223
100.194
100.581
100.968
101.354
101.738
102.117
102.487
102.844
103.182
103.493
100.581
101.742
102.903
104.063
105.217
106.359
107.475
108.552
109.571
110.511
100.968
102.903
104.841
106.778
108.71
110.625
112.503
114.319
116.039
117.626
101.354
104.063
106.779
109.499
112.22
114.927
117.593
120.182
122.64
124.908
101.738
105.218
108.711
112.221
115.745
119.269
122.762
126.174
129.431
132.438
102.117
106.359
110.625
114.928
119.269
123.641
128.012
132.323
136.471
140.314
102.488
107.476
112.505
117.595
122.764
128.013
133.323
138.633
143.817
148.66
102.845
108.554
114.321
120.184
126.177
132.325
138.634
145.068
151.502
157.641
103.183
109.573
116.043
122.644
129.436
136.475
143.82
151.504
159.482
167.46
103.494
110.515
117.631
124.915
132.446
140.321
148.666
157.646
167.463
178.223
100.194
100.581
100.968
101.354
101.738
102.117
102.487
102.844
103.182
103.493
100.581
101.742
102.903
104.063
105.217
106.359
107.475
108.552
109.571
110.511
100.968
102.903
104.841
106.778
108.71
110.625
112.503
114.319
116.039
117.626
101.354
104.063
106.779
109.499
112.22
114.927
117.593
120.182
122.64
124.908
101.738
105.218
108.711
112.221
115.745
119.269
122.762
126.174
129.431
132.438
102.117
106.359
110.625
114.927
119.269
123.641
128.012
132.323
136.471
140.314
102.488
107.476
112.504
117.595
122.763
128.013
133.323
138.633
143.817
148.66
102.845
108.554
114.321
120.184
126.177
132.325
138.634
145.068
151.502
157.641
103.182
109.573
116.042
122.644
129.435
136.475
143.82
151.504
159.482
167.46
103.494
110.514
117.631
124.914
132.445
140.321
148.666
157.645
167.462
178.222
103.773
104.016
104.222
104.391
104.526
104.63
104.707
104.762
104.796
104.813
104.813
104.796
104.761
104.707
104.63
104.526
104.391
104.222
104.016
103.773
111.354
112.087
112.704
113.208
113.609
113.916
114.144
114.304
114.405
114.454
114.454
114.405
114.304
114.144
113.916
113.608
113.208
112.703
112.086
111.353
119.045
120.272
121.298
122.13
122.784
123.283
123.65
123.906
124.067
124.145
124.145
124.067
123.905
123.649
123.281
122.782
122.128
121.297
120.271
119.044
126.928
128.659
130.088
131.229
132.114
132.78
133.266
133.602
133.812
133.914
133.913
133.812
133.601
133.265
132.779
132.112
131.227
130.086
128.657
126.926
135.1
137.347
139.164
140.584
141.662
142.459
143.032
143.423
143.667
143.783
143.783
143.666
143.422
143.03
142.457
141.66
140.581
139.162
137.345
135.098
143.687
146.465
148.638
150.28
151.49
152.363
152.978
153.393
153.649
153.77
153.77
153.648
153.392
152.977
152.361
151.488
150.278
148.636
146.462
143.685
152.869
156.186
158.643
160.408
161.655
162.526
163.125
163.522
163.764
163.879
163.878
163.763
163.521
163.123
162.524
161.653
160.406
158.641
156.184
152.867
162.943
166.766
169.342
171.053
172.195
172.96
173.473
173.806
174.007
174.102
174.101
174.007
173.806
173.472
172.959
172.193
171.052
169.34
166.764
162.941
174.494
178.591
180.906
182.268
183.11
183.649
183.999
184.223
184.357
184.419
184.419
184.356
184.223
183.998
183.648
183.109
182.267
180.905
178.591
174.494
188.984
192.199
193.422
194.004
194.328
194.526
194.651
194.73
194.777
194.799
194.799
194.777
194.73
194.651
194.525
194.328
194.003
193.422
192.199
188.983
103.773
104.016
104.222
104.391
104.526
104.63
104.707
104.761
104.796
104.812
104.812
104.796
104.761
104.707
104.629
104.525
104.391
104.222
104.016
103.772
111.354
112.086
112.704
113.208
113.608
113.916
114.144
114.304
114.405
114.454
114.454
114.405
114.303
114.143
113.915
113.607
113.207
112.702
112.085
111.352
119.045
120.272
121.298
122.13
122.783
123.282
123.649
123.905
124.067
124.144
124.144
124.066
123.904
123.648
123.28
122.781
122.127
121.296
120.27
119.043
126.928
128.658
130.087
131.228
132.113
132.78
133.265
133.601
133.812
133.913
133.913
133.811
133.6
133.264
132.778
132.111
131.226
130.084
128.656
126.925
135.1
137.347
139.164
140.583
141.661
142.459
143.031
143.423
143.666
143.783
143.782
143.665
143.421
143.029
142.456
141.658
140.58
139.16
137.343
135.097
143.687
146.464
148.638
150.28
151.489
152.363
152.978
153.392
153.648
153.769
153.769
153.647
153.391
152.976
152.36
151.486
150.276
148.634
146.461
143.684
152.869
156.186
158.643
160.407
161.654
162.525
163.124
163.521
163.763
163.878
163.877
163.762
163.52
163.122
162.523
161.651
160.404
158.64
156.182
152.866
162.943
166.765
169.342
171.053
172.194
172.96
173.472
173.805
174.006
174.101
174.1
174.006
173.804
173.47
172.958
172.192
171.05
169.339
166.762
162.94
174.495
178.591
180.906
182.268
183.109
183.648
183.998
184.222
184.356
184.418
184.418
184.355
184.222
183.997
183.647
183.108
182.266
180.904
178.589
174.492
188.984
192.199
193.422
194.003
194.328
194.525
194.651
194.73
194.777
194.799
194.799
194.777
194.73
194.65
194.525
194.327
194.003
193.421
192.198
188.982
103.773
104.016
104.222
104.391
104.526
104.63
104.707
104.761
104.796
104.812
104.812
104.796
104.761
104.707
104.629
104.525
104.391
104.222
104.016
103.772
111.354
112.086
112.704
113.208
113.608
113.916
114.144
114.304
114.405
114.454
114.454
114.405
114.303
114.143
113.915
113.607
113.207
112.702
112.085
111.352
119.045
120.272
121.298
122.13
122.783
123.282
123.649
123.905
124.067
124.144
124.144
124.066
123.904
123.648
123.28
122.781
122.127
121.296
120.27
119.043
126.928
128.658
130.087
131.228
132.113
132.78
133.265
133.601
133.812
133.913
133.913
133.811
133.6
133.264
132.778
132.111
131.226
130.084
128.656
126.925
135.1
137.347
139.164
140.583
141.661
142.459
143.031
143.423
143.666
143.783
143.782
143.665
143.421
143.029
142.456
141.658
140.58
139.16
137.343
135.097
143.687
146.464
148.638
150.28
151.489
152.363
152.978
153.392
153.648
153.769
153.769
153.647
153.391
152.976
152.36
151.486
150.276
148.634
146.461
143.684
152.869
156.186
158.643
160.407
161.654
162.525
163.124
163.521
163.763
163.878
163.877
163.762
163.52
163.122
162.523
161.651
160.404
158.64
156.182
152.866
162.943
166.765
169.342
171.053
172.194
172.96
173.472
173.805
174.006
174.101
174.1
174.006
173.804
173.47
172.958
172.192
171.05
169.339
166.762
162.94
174.495
178.591
180.906
182.268
183.109
183.648
183.998
184.222
184.356
184.418
184.418
184.355
184.222
183.997
183.647
183.108
182.266
180.904
178.589
174.492
188.984
192.199
193.422
194.003
194.328
194.525
194.651
194.73
194.777
194.799
194.799
194.777
194.73
194.65
194.525
194.327
194.003
193.421
192.198
188.982
103.773
104.016
104.222
104.391
104.526
104.63
104.707
104.762
104.796
104.813
104.813
104.796
104.761
104.707
104.63
104.526
104.391
104.222
104.016
103.773
111.354
112.087
112.704
113.208
113.609
113.916
114.144
114.304
114.405
114.454
114.454
114.405
114.304
114.144
113.916
113.608
113.208
112.703
112.086
111.353
119.045
120.272
121.298
122.13
122.784
123.283
123.65
123.906
124.067
124.145
124.145
124.067
123.905
123.649
123.281
122.782
122.128
121.297
120.271
119.044
126.928
128.659
130.088
131.229
132.114
132.78
133.266
133.602
133.812
133.914
133.913
133.812
133.601
133.265
132.779
132.112
131.227
130.086
128.657
126.926
135.1
137.347
139.164
140.584
141.662
142.459
143.032
143.423
143.667
143.783
143.783
143.666
143.422
143.03
142.457
141.66
140.581
139.162
137.345
135.098
143.687
146.465
148.638
150.28
151.49
152.363
152.978
153.393
153.649
153.77
153.77
153.648
153.392
152.977
152.361
151.488
150.278
148.636
146.462
143.685
152.869
156.186
158.643
160.408
161.655
162.526
163.125
163.522
163.764
163.879
163.878
163.763
163.521
163.123
162.524
161.653
160.406
158.641
156.184
152.867
162.943
166.766
169.342
171.053
172.195
172.96
173.473
173.806
174.007
174.102
174.101
174.007
173.806
173.472
172.959
172.193
171.052
169.34
166.764
162.941
174.494
178.591
180.906
182.268
183.11
183.649
183.999
184.223
184.357
184.419
184.419
184.356
184.223
183.998
183.648
183.109
182.267
180.905
178.591
174.494
188.984
192.199
193.422
194.004
194.328
194.526
194.651
194.73
194.777
194.799
194.799
194.777
194.73
194.651
194.525
194.328
194.003
193.422
192.199
188.983
103.493
103.182
102.845
102.488
102.117
101.738
101.354
100.968
100.581
100.194
110.511
109.571
108.553
107.476
106.359
105.218
104.064
102.904
101.743
100.581
117.625
116.039
114.319
112.503
110.625
108.711
106.779
104.842
102.904
100.968
124.907
122.639
120.182
117.594
114.927
112.221
109.5
106.779
104.064
101.354
132.437
129.43
126.174
122.762
119.269
115.745
112.221
108.711
105.218
101.738
140.313
136.471
132.323
128.013
123.642
119.27
114.929
110.626
106.36
102.117
148.659
143.816
138.633
133.324
128.014
122.765
117.596
112.506
107.477
102.488
157.641
151.502
145.069
138.636
132.327
126.179
120.186
114.323
108.555
102.845
167.461
159.483
151.506
143.822
136.478
129.438
122.647
116.044
109.575
103.183
178.223
167.464
157.648
148.669
140.324
132.449
124.918
117.633
110.516
103.495
103.492
103.181
102.844
102.487
102.116
101.737
101.353
100.967
100.58
100.193
110.509
109.57
108.551
107.474
106.358
105.217
104.063
102.903
101.741
100.58
117.624
116.037
114.318
112.502
110.624
108.709
106.778
104.84
102.903
100.967
124.905
122.638
120.18
117.592
114.926
112.219
109.499
106.778
104.063
101.353
132.436
129.429
126.173
122.761
119.268
115.744
112.22
108.71
105.217
101.737
140.311
136.469
132.321
128.011
123.64
119.269
114.927
110.625
106.359
102.117
148.658
143.815
138.631
133.322
128.013
122.763
117.595
112.504
107.476
102.487
157.639
151.501
145.067
138.634
132.325
126.177
120.185
114.321
108.554
102.845
167.459
159.481
151.504
143.82
136.476
129.436
122.645
116.043
109.573
103.182
178.222
167.462
157.646
148.667
140.322
132.447
124.916
117.632
110.515
103.494
103.492
103.181
102.844
102.487
102.116
101.737
101.353
100.967
100.58
100.193
110.509
109.57
108.551
107.474
106.358
105.217
104.063
102.903
101.741
100.58
117.624
116.037
114.318
112.502
110.624
108.709
106.778
104.84
102.903
100.967
124.905
122.638
120.18
117.592
114.926
112.219
109.499
106.778
104.063
101.353
132.436
129.429
126.173
122.761
119.268
115.744
112.22
108.71
105.217
101.737
140.311
136.469
132.321
128.011
123.64
119.269
114.927
110.625
106.359
102.117
148.658
143.815
138.631
133.322
128.013
122.763
117.595
112.504
107.476
102.487
157.639
151.501
145.067
138.634
132.325
126.177
120.185
114.321
108.554
102.845
167.459
159.481
151.504
143.82
136.476
129.436
122.645
116.043
109.573
103.182
178.222
167.462
157.646
148.667
140.322
132.447
124.916
117.632
110.515
103.494
103.493
103.182
102.845
102.488
102.117
101.738
101.354
100.968
100.581
100.194
110.511
109.571
108.553
107.476
106.359
105.218
104.064
102.904
101.743
100.581
117.625
116.039
114.319
112.503
110.625
108.711
106.779
104.842
102.904
100.968
124.907
122.639
120.182
117.594
114.927
112.221
109.5
106.779
104.064
101.354
132.437
129.43
126.174
122.762
119.269
115.745
112.221
108.711
105.218
101.738
140.313
136.471
132.323
128.013
123.642
119.27
114.929
110.626
106.36
102.117
148.659
143.816
138.633
133.324
128.014
122.765
117.596
112.506
107.477
102.488
157.641
151.502
145.069
138.636
132.327
126.179
120.186
114.323
108.555
102.845
167.461
159.483
151.506
143.822
136.478
129.438
122.647
116.044
109.575
103.183
178.223
167.464
157.648
148.669
140.324
132.449
124.918
117.633
110.516
103.495
188.986
174.501
162.953
152.882
143.701
135.115
126.941
119.056
111.361
103.775
192.203
178.601
166.78
156.204
146.485
137.367
128.677
120.287
112.096
104.02
193.427
180.919
169.362
158.668
148.666
139.192
130.112
121.318
112.717
104.227
194.01
182.286
171.081
160.442
150.318
140.621
131.263
122.157
113.226
104.398
194.337
183.134
172.232
161.701
151.541
141.713
132.16
122.821
113.632
104.534
194.537
183.682
173.011
162.589
152.434
142.529
132.843
123.333
113.949
104.641
194.667
184.044
173.542
163.212
153.074
143.127
133.352
123.718
114.188
104.722
194.752
184.284
173.901
163.641
153.524
143.554
133.719
123.998
114.364
104.782
194.807
184.44
174.137
163.926
153.827
143.844
133.972
124.193
114.486
104.824
194.839
184.534
174.279
164.1
154.014
144.025
134.13
124.316
114.564
104.85
194.854
184.577
174.344
164.181
154.102
144.112
134.208
124.377
114.602
104.864
194.853
184.573
174.341
164.179
154.102
144.114
134.211
124.381
114.605
104.865
194.835
184.523
174.266
164.092
154.013
144.032
134.142
124.329
114.574
104.854
194.797
184.416
174.11
163.909
153.826
143.859
133.997
124.22
114.506
104.831
194.731
184.235
173.849
163.609
153.523
143.582
133.765
124.047
114.4
104.796
194.623
183.944
173.441
163.154
153.076
143.181
133.436
123.804
114.252
104.746
194.439
183.475
172.819
162.49
152.447
142.632
132.993
123.482
114.056
104.68
194.097
182.696
171.871
161.542
151.589
141.909
132.424
123.073
113.811
104.599
193.347
181.343
170.428
160.219
150.459
140.993
131.721
122.578
113.517
104.501
191.295
178.902
168.28
158.448
149.038
139.883
130.89
122.001
113.177
104.389
188.985
174.499
162.951
152.88
143.699
135.113
126.939
119.054
111.359
103.774
192.201
178.598
166.778
156.201
146.482
137.365
128.675
120.285
112.095
104.019
193.425
180.916
169.359
158.666
148.663
139.189
130.11
121.316
112.715
104.226
194.008
182.283
171.078
160.439
150.315
140.619
131.26
122.155
113.224
104.397
194.335
183.131
172.229
161.698
151.539
141.711
132.158
122.818
113.631
104.533
194.535
183.679
173.008
162.587
152.431
142.527
132.841
123.331
113.947
104.64
194.665
184.041
173.539
163.209
153.071
143.125
133.349
123.716
114.186
104.721
194.75
184.281
173.898
163.638
153.521
143.551
133.716
123.996
114.362
104.781
194.805
184.437
174.133
163.923
153.824
143.841
133.969
124.191
114.484
104.823
194.837
184.531
174.275
164.097
154.01
144.022
134.127
124.313
114.562
104.849
194.852
184.573
174.341
164.178
154.099
144.109
134.205
124.374
114.6
104.862
194.851
184.57
174.337
164.176
154.099
144.111
134.208
124.378
114.603
104.864
194.833
184.519
174.263
164.088
154.01
144.029
134.139
124.327
114.572
104.853
194.794
184.413
174.106
163.906
153.823
143.856
133.994
124.217
114.504
104.83
194.729
184.231
173.845
163.605
153.52
143.579
133.762
124.045
114.398
104.794
194.621
183.94
173.437
163.15
153.073
143.178
133.433
123.801
114.249
104.744
194.437
183.471
172.815
162.486
152.443
142.629
132.99
123.479
114.054
104.679
194.094
182.692
171.867
161.538
151.585
141.906
132.421
123.071
113.809
104.597
193.344
181.339
170.424
160.215
150.455
140.989
131.717
122.575
113.514
104.5
191.292
178.898
168.276
158.444
149.035
139.88
130.887
121.998
113.175
104.387
188.985
174.499
162.951
152.88
143.699
135.113
126.939
119.054
111.359
103.774
192.201
178.598
166.778
156.201
146.482
137.365
128.675
120.285
112.095
104.019
193.425
180.916
169.359
158.666
148.663
139.189
130.11
121.316
112.715
104.226
194.008
182.283
171.078
160.439
150.315
140.619
131.26
122.155
113.224
104.397
194.335
183.131
172.229
161.698
151.539
141.711
132.158
122.818
113.631
104.533
194.535
183.679
173.008
162.587
152.431
142.527
132.841
123.331
113.947
104.64
194.665
184.041
173.539
163.209
153.071
143.125
133.349
123.716
114.186
104.721
194.75
184.281
173.898
163.638
153.521
143.551
133.716
123.996
114.362
104.781
194.805
184.437
174.133
163.923
153.824
143.841
133.969
124.191
114.484
104.823
194.837
184.531
174.275
164.097
154.01
144.022
134.127
124.313
114.562
104.849
194.852
184.573
174.341
164.178
154.099
144.109
134.205
124.374
114.6
104.862
194.851
184.57
174.337
164.176
154.099
144.111
134.208
124.378
114.603
104.864
194.833
184.519
174.263
164.088
154.01
144.029
134.139
124.327
114.572
104.853
194.794
184.413
174.106
163.906
153.823
143.856
133.994
124.217
114.504
104.83
194.729
184.231
173.845
163.605
153.52
143.579
133.762
124.045
114.398
104.794
194.621
183.94
173.437
163.15
153.073
143.178
133.433
123.801
114.249
104.744
194.437
183.471
172.815
162.486
152.443
142.629
132.99
123.479
114.054
104.679
194.094
182.692
171.867
161.538
151.585
141.906
132.421
123.071
113.809
104.597
193.344
181.339
170.424
160.215
150.455
140.989
131.717
122.575
113.514
104.5
191.292
178.898
168.276
158.444
149.035
139.88
130.887
121.998
113.175
104.387
188.986
174.501
162.953
152.882
143.701
135.115
126.941
119.056
111.361
103.775
192.203
178.601
166.78
156.204
146.485
137.367
128.677
120.287
112.096
104.02
193.427
180.919
169.362
158.668
148.666
139.192
130.112
121.318
112.717
104.227
194.01
182.286
171.081
160.442
150.318
140.621
131.263
122.157
113.226
104.398
194.337
183.134
172.232
161.701
151.541
141.713
132.16
122.821
113.632
104.534
194.537
183.682
173.011
162.589
152.434
142.529
132.843
123.333
113.949
104.641
194.667
184.044
173.542
163.212
153.074
143.127
133.352
123.718
114.188
104.722
194.752
184.284
173.901
163.641
153.524
143.554
133.719
123.998
114.364
104.782
194.807
184.44
174.137
163.926
153.827
143.844
133.972
124.193
114.486
104.824
194.839
184.534
174.279
164.1
154.014
144.025
134.13
124.316
114.564
104.85
194.854
184.577
174.344
164.181
154.102
144.112
134.208
124.377
114.602
104.864
194.853
184.573
174.341
164.179
154.102
144.114
134.211
124.381
114.605
104.865
194.835
184.523
174.266
164.092
154.013
144.032
134.142
124.329
114.574
104.854
194.797
184.416
174.11
163.909
153.826
143.859
133.997
124.22
114.506
104.831
194.731
184.235
173.849
163.609
153.523
143.582
133.765
124.047
114.4
104.796
194.623
183.944
173.441
163.154
153.076
143.181
133.436
123.804
114.252
104.746
194.439
183.475
172.819
162.49
152.447
142.632
132.993
123.482
114.056
104.68
194.097
182.696
171.871
161.542
151.589
141.909
132.424
123.073
113.811
104.599
193.347
181.343
170.428
160.219
150.459
140.993
131.721
122.578
113.517
104.501
191.295
178.902
168.28
158.448
149.038
139.883
130.89
122.001
113.177
104.389
184.221
174.691
165.344
156.256
147.366
138.615
129.956
121.36
112.802
104.265
178.019
170.302
162.151
153.869
145.56
137.256
128.963
120.681
112.407
104.135
173.026
166.352
159.094
151.512
143.752
135.889
127.963
119.998
112.008
104.004
169.039
162.992
156.363
149.339
142.051
134.588
127.004
119.34
111.624
103.878
165.865
160.217
154.03
147.433
140.532
133.41
126.129
118.737
111.271
103.762
163.365
157.987
152.113
145.834
139.237
132.395
125.369
118.21
110.961
103.66
161.449
156.256
150.603
144.558
138.191
131.567
124.744
117.775
110.704
103.575
160.057
154.99
149.487
143.606
137.404
130.94
124.269
117.442
110.508
103.511
159.149
154.16
148.753
142.975
136.88
130.521
123.951
117.22
110.375
103.467
158.701
153.75
148.389
142.661
136.619
130.311
123.792
117.109
110.309
103.45
184.217
174.687
165.34
156.252
147.363
138.611
129.953
121.357
112.8
104.264
178.016
170.299
162.148
153.865
145.556
137.252
128.96
120.678
112.404
104.134
173.022
166.349
159.09
151.509
143.749
135.885
127.959
119.994
112.005
104.003
169.037
162.989
156.359
149.335
142.048
134.584
127.001
119.337
111.621
103.876
165.862
160.215
154.027
147.43
140.529
133.406
126.125
118.733
111.268
103.76
163.362
157.984
152.11
145.831
139.234
132.391
125.365
118.206
110.957
103.658
161.446
156.254
150.6
144.555
138.187
131.563
124.74
117.77
110.7
103.573
160.054
154.987
149.485
143.603
137.4
130.936
124.265
117.438
110.503
103.507
159.146
154.158
148.75
142.972
136.876
130.517
123.946
117.214
110.369
103.462
158.699
153.748
148.386
142.658
136.615
130.307
123.787
117.103
110.303
103.443
184.217
174.687
165.34
156.252
147.363
138.611
129.953
121.357
112.8
104.264
178.016
170.299
162.148
153.865
145.556
137.252
128.96
120.678
112.404
104.134
173.022
166.349
159.09
151.509
143.749
135.885
127.959
119.994
112.005
104.003
169.037
162.989
156.359
149.336
142.048
134.584
127.001
119.337
111.621
103.876
165.862
160.215
154.027
147.43
140.529
133.406
126.125
118.733
111.268
103.76
163.362
157.984
152.11
145.831
139.234
132.391
125.365
118.206
110.957
103.658
161.447
156.254
150.6
144.555
138.187
131.563
124.74
117.77
110.7
103.573
160.054
154.987
149.485
143.603
137.4
130.936
124.265
117.438
110.503
103.507
159.147
154.158
148.75
142.972
136.876
130.517
123.946
117.214
110.369
103.462
158.699
153.748
148.386
142.658
136.615
130.307
123.787
117.103
110.303
103.443
184.221
174.691
165.344
156.256
147.366
138.615
129.956
121.36
112.802
104.265
178.019
170.302
162.151
153.869
145.56
137.256
128.963
120.681
112.407
104.135
173.026
166.352
159.094
151.512
143.752
135.889
127.963
119.998
112.008
104.004
169.039
162.992
156.363
149.339
142.051
134.588
127.004
119.34
111.624
103.878
165.865
160.217
154.03
147.433
140.532
133.41
126.129
118.737
111.271
103.762
163.365
157.987
152.113
145.834
139.237
132.395
125.369
118.21
110.961
103.66
161.449
156.256
150.603
144.558
138.191
131.567
124.744
117.775
110.704
103.575
160.057
154.99
149.487
143.606
137.404
130.94
124.269
117.442
110.508
103.511
159.149
154.16
148.753
142.975
136.88
130.521
123.951
117.22
110.375
103.467
158.701
153.75
148.389
142.661
136.618
130.311
123.791
117.109
110.309
103.45
192.877
195.642
196.816
197.453
197.858
198.136
198.33
198.464
198.548
198.589
198.589
198.549
198.465
198.332
198.138
197.861
197.456
196.819
195.645
192.879
184.524
188.521
190.985
192.594
193.703
194.491
195.053
195.442
195.688
195.807
195.808
195.69
195.445
195.058
194.497
193.71
192.602
190.992
188.528
184.529
178.684
182.935
186.009
188.237
189.871
191.074
191.95
192.564
192.955
193.146
193.147
192.959
192.57
191.958
191.084
189.882
188.249
186.021
182.947
178.694
174.262
178.528
181.881
184.477
186.471
187.986
189.113
189.912
190.426
190.677
190.679
190.431
189.92
189.124
188
186.487
184.495
181.9
178.546
174.279
170.814
175.035
178.514
181.323
183.553
185.29
186.605
187.55
188.161
188.463
188.465
188.168
187.561
186.621
185.31
183.575
181.348
178.541
175.063
170.842
168.123
172.29
175.821
178.75
181.131
183.022
184.472
185.525
186.211
186.551
186.554
186.22
185.54
184.492
183.047
181.161
178.784
175.857
172.329
168.163
166.068
170.184
173.733
176.73
179.206
181.197
182.743
183.873
184.614
184.981
184.985
184.625
183.891
182.768
181.229
179.243
176.773
173.781
170.235
166.121
164.576
168.652
172.204
175.237
177.769
179.826
181.433
182.616
183.394
183.782
183.786
183.407
182.638
181.464
179.864
177.815
175.289
172.262
168.715
164.642
163.601
167.649
171.2
174.252
176.816
178.911
180.556
181.77
182.572
182.972
182.977
182.587
181.795
180.59
178.954
176.869
174.312
171.267
167.723
163.679
163.12
167.154
170.702
173.762
176.341
178.453
180.115
181.345
182.158
182.564
182.57
182.174
181.372
180.152
178.5
176.397
173.827
170.775
167.234
163.204
192.879
195.644
196.817
197.455
197.859
198.137
198.331
198.464
198.548
198.589
198.589
198.548
198.465
198.331
198.137
197.86
197.455
196.817
195.644
192.877
184.527
188.524
190.987
192.596
193.705
194.492
195.054
195.442
195.688
195.807
195.808
195.689
195.444
195.057
194.496
193.708
192.6
190.99
188.525
184.527
178.687
182.938
186.012
188.24
189.873
191.076
191.952
192.565
192.956
193.146
193.147
192.958
192.569
191.957
191.082
189.88
188.247
186.019
182.944
178.692
174.265
178.531
181.884
184.48
186.473
187.988
189.114
189.913
190.426
190.677
190.679
190.43
189.92
189.123
187.999
186.485
184.493
181.898
178.544
174.277
170.817
175.038
178.517
181.325
183.555
185.292
186.607
187.551
188.162
188.463
188.464
188.167
187.56
186.619
185.308
183.573
181.346
178.539
175.061
170.839
168.126
172.293
175.823
178.752
181.133
183.023
184.474
185.526
186.212
186.551
186.554
186.22
185.539
184.491
183.045
181.159
178.782
175.855
172.326
168.161
166.071
170.187
173.736
176.732
179.208
181.199
182.744
183.874
184.614
184.981
184.985
184.624
183.89
182.767
181.228
179.242
176.771
173.779
170.233
166.119
164.579
168.654
172.206
175.239
177.771
179.828
181.435
182.617
183.395
183.782
183.786
183.407
182.637
181.463
179.863
177.814
175.288
172.26
168.713
164.64
163.604
167.652
171.202
174.254
176.818
178.912
180.557
181.771
182.572
182.972
182.977
182.586
181.794
180.589
178.953
176.867
174.31
171.265
167.721
163.677
163.122
167.156
170.704
173.764
176.342
178.454
180.116
181.346
182.158
182.564
182.569
182.174
181.371
180.151
178.498
176.396
173.825
170.773
167.231
163.202
192.879
195.644
196.817
197.455
197.859
198.137
198.331
198.464
198.548
198.589
198.589
198.548
198.465
198.331
198.137
197.86
197.455
196.817
195.644
192.877
184.527
188.524
190.987
192.596
193.705
194.493
195.054
195.442
195.688
195.807
195.808
195.689
195.444
195.057
194.496
193.708
192.6
190.99
188.525
184.526
178.687
182.938
186.012
188.24
189.873
191.076
191.952
192.565
192.956
193.146
193.147
192.958
192.569
191.957
191.082
189.88
188.247
186.019
182.944
178.692
174.265
178.531
181.884
184.48
186.473
187.988
189.114
189.913
190.426
190.678
190.679
190.43
189.92
189.123
187.999
186.485
184.493
181.898
178.544
174.277
170.817
175.038
178.517
181.325
183.555
185.292
186.607
187.551
188.162
188.463
188.465
188.167
187.56
186.619
185.308
183.573
181.346
178.539
175.061
170.839
168.126
172.293
175.823
178.752
181.133
183.023
184.474
185.526
186.212
186.551
186.554
186.22
185.539
184.491
183.045
181.159
178.782
175.855
172.326
168.161
166.071
170.187
173.736
176.732
179.208
181.199
182.744
183.874
184.614
184.982
184.985
184.624
183.89
182.767
181.228
179.242
176.771
173.779
170.233
166.119
164.579
168.655
172.206
175.239
177.772
179.828
181.435
182.617
183.395
183.782
183.786
183.407
182.637
181.463
179.863
177.814
175.288
172.26
168.713
164.64
163.604
167.652
171.202
174.254
176.818
178.912
180.557
181.771
182.572
182.972
182.977
182.586
181.794
180.589
178.953
176.867
174.31
171.265
167.721
163.677
163.122
167.156
170.704
173.764
176.342
178.454
180.116
181.346
182.158
182.564
182.569
182.174
181.371
180.151
178.498
176.396
173.825
170.773
167.231
163.202
192.877
195.642
196.816
197.453
197.858
198.136
198.33
198.464
198.548
198.589
198.589
198.549
198.465
198.332
198.138
197.861
197.456
196.819
195.645
192.879
184.524
188.521
190.985
192.594
193.703
194.491
195.053
195.442
195.688
195.807
195.808
195.69
195.445
195.058
194.497
193.71
192.602
190.992
188.528
184.529
178.684
182.935
186.009
188.237
189.871
191.074
191.95
192.564
192.955
193.146
193.147
192.959
192.57
191.958
191.084
189.882
188.249
186.021
182.947
178.694
174.261
178.528
181.881
184.477
186.471
187.986
189.113
189.912
190.426
190.677
190.679
190.431
189.92
189.124
188
186.487
184.495
181.9
178.546
174.279
170.814
175.035
178.514
181.323
183.553
185.29
186.605
187.55
188.161
188.463
188.465
188.168
187.561
186.621
185.31
183.575
181.348
178.541
175.063
170.842
168.123
172.29
175.821
178.75
181.131
183.022
184.472
185.525
186.212
186.551
186.554
186.22
185.54
184.492
183.047
181.161
178.784
175.857
172.329
168.163
166.068
170.184
173.733
176.73
179.206
181.198
182.743
183.873
184.614
184.982
184.985
184.625
183.891
182.768
181.229
179.243
176.773
173.781
170.235
166.122
164.576
168.652
172.204
175.237
177.77
179.826
181.433
182.616
183.394
183.782
183.786
183.408
182.638
181.464
179.864
177.815
175.29
172.262
168.715
164.642
163.601
167.65
171.2
174.252
176.816
178.911
180.555
181.77
182.572
182.972
182.977
182.587
181.795
180.59
178.954
176.869
174.312
171.267
167.723
163.679
163.12
167.154
170.702
173.762
176.341
178.453
180.115
181.345
182.158
182.564
182.57
182.174
181.372
180.152
178.5
176.397
173.827
170.775
167.234
163.204
104.265
112.803
121.363
129.962
138.621
147.373
156.261
165.348
174.693
184.219
104.135
112.407
120.684
128.967
137.26
145.564
153.872
162.153
170.302
178.015
104.004
112.007
119.998
127.964
135.89
143.752
151.511
159.09
166.346
173.017
103.877
111.621
119.337
127.001
134.583
142.045
149.33
156.351
162.978
169.023
103.759
111.265
118.73
126.12
133.397
140.516
147.414
154.008
160.192
165.838
103.656
110.952
118.197
125.351
132.372
139.209
145.802
152.077
157.949
163.325
103.57
110.692
117.755
124.717
131.532
138.149
144.511
150.552
156.203
161.395
103.503
110.491
117.414
124.23
130.892
137.348
143.544
149.421
154.922
159.989
103.458
110.354
117.182
123.9
130.459
136.81
142.899
148.673