/*--------------------------------*- C++ -*----------------------------------*\
| =========                 |                                                 |
| \\      /  F ield         | OpenFOAM: The Open Source CFD Toolbox           |
|  \\    /   O peration     | Version:  2.4.0                                 |
|   \\  /    A nd           | Web:      www.OpenFOAM.org                      |
|    \\/     M anipulation  |                                                 |
\*---------------------------------------------------------------------------*/
FoamFile
{
    version     2.0;
    format      ascii;
    class       volScalarField;
    location    "0.665";
    object      T;
}
// * * * * * * * * * * * * * * * * * * * * * * * * * * * * * * * * * * * * * //

dimensions      [0 0 0 1 0 0 0];

internalField   nonuniform List<scalar> 
1600
(
101.402
104.206
107.008
109.805
112.597
115.381
118.156
120.92
123.672
126.41
129.133
131.838
134.525
137.192
139.838
142.463
145.064
147.642
150.195
152.723
155.227
157.704
160.157
162.585
164.988
167.367
169.723
172.058
174.372
176.667
178.944
181.204
183.45
185.683
187.905
190.117
192.321
194.519
196.713
198.905
101.403
104.209
107.012
109.812
112.605
115.391
118.168
120.934
123.687
126.427
129.151
131.858
134.546
137.214
139.862
142.487
145.089
147.668
150.221
152.75
155.253
157.731
160.183
162.61
165.012
167.391
169.746
172.08
174.392
176.685
178.961
181.22
183.464
185.695
187.915
190.126
192.328
194.524
196.716
198.906
101.405
104.214
107.021
109.824
112.621
115.411
118.191
120.96
123.717
126.46
129.186
131.896
134.587
137.258
139.907
142.535
145.138
147.718
150.273
152.802
155.305
157.783
160.235
162.661
165.062
167.439
169.792
172.124
174.434
176.724
178.996
181.252
183.492
185.72
187.936
190.143
192.342
194.534
196.722
198.908
101.408
104.222
107.035
109.843
112.645
115.44
118.225
120.999
123.761
126.508
129.239
131.953
134.647
137.322
139.974
142.604
145.211
147.792
150.348
152.878
155.382
157.86
160.311
162.736
165.136
167.51
169.861
172.189
174.495
176.781
179.049
181.3
183.535
185.757
187.968
190.169
192.362
194.549
196.731
198.911
101.411
104.233
107.052
109.867
112.676
115.478
118.27
121.051
123.818
126.571
129.308
132.027
134.727
137.406
140.063
142.696
145.306
147.89
150.448
152.979
155.484
157.961
160.412
162.835
165.233
167.605
169.952
172.275
174.577
176.858
179.119
181.364
183.592
185.807
188.011
190.204
192.389
194.568
196.743
198.915
101.416
104.246
107.074
109.898
112.715
115.525
118.325
121.114
123.89
126.65
129.394
132.12
134.825
137.51
140.172
142.81
145.423
148.01
150.57
153.104
155.609
158.087
160.536
162.958
165.353
167.722
170.065
172.383
174.679
176.953
179.207
181.443
183.664
185.87
188.064
190.248
192.424
194.593
196.757
198.92
101.421
104.262
107.1
109.934
112.762
115.582
118.392
121.19
123.975
126.744
129.496
132.229
134.942
137.633
140.301
142.944
145.562
148.153
150.716
153.251
155.758
158.235
160.684
163.105
165.497
167.861
170.199
172.512
174.8
177.067
179.312
181.539
183.75
185.945
188.128
190.301
192.465
194.622
196.775
198.925
101.427
104.28
107.13
109.976
112.816
115.648
118.469
121.278
124.073
126.852
129.613
132.356
135.077
137.775
140.45
143.099
145.722
148.317
150.884
153.421
155.929
158.407
160.855
163.273
165.662
168.022
170.355
172.661
174.942
177.199
179.435
181.651
183.85
186.033
188.203
190.363
192.513
194.657
196.796
198.932
101.434
104.3
107.165
110.025
112.878
115.722
118.556
121.378
124.184
126.975
129.747
132.499
135.229
137.936
140.619
143.275
145.903
148.503
151.073
153.613
156.123
158.601
161.048
163.464
165.85
168.205
170.532
172.83
175.103
177.35
179.575
181.779
183.964
186.134
188.289
190.434
192.569
194.697
196.82
198.94
101.442
104.324
107.204
110.079
112.947
115.806
118.654
121.49
124.31
127.113
129.896
132.66
135.4
138.116
140.807
143.47
146.105
148.71
151.284
153.827
156.338
158.816
161.263
163.676
166.058
168.409
170.729
173.02
175.283
177.519
179.732
181.923
184.094
186.247
188.387
190.514
192.631
194.742
196.847
198.949
101.45
104.35
107.247
110.139
113.024
115.9
118.764
121.614
124.448
127.265
130.062
132.837
135.589
138.315
141.014
143.685
146.326
148.937
151.515
154.061
156.574
159.053
161.498
163.909
166.287
168.633
170.946
173.228
175.481
177.706
179.906
182.082
184.237
186.374
188.495
190.603
192.701
194.792
196.877
198.959
101.46
104.379
107.295
110.206
113.109
116.003
118.884
121.751
124.601
127.433
130.244
133.032
135.795
138.532
141.241
143.92
146.569
149.185
151.768
154.316
156.831
159.31
161.754
164.162
166.536
168.876
171.182
173.455
175.698
177.911
180.096
182.257
184.395
186.513
188.614
190.702
192.779
194.847
196.911
198.97
101.471
104.41
107.348
110.279
113.203
116.116
119.016
121.901
124.769
127.616
130.442
133.244
136.02
138.769
141.488
144.176
146.831
149.453
152.041
154.592
157.108
159.587
162.029
164.435
166.805
169.138
171.437
173.701
175.932
178.132
180.303
182.447
184.567
186.665
188.745
190.81
192.864
194.908
196.948
198.983
101.482
104.445
107.405
110.36
113.305
116.24
119.16
122.065
124.951
127.816
130.659
133.475
136.265
139.026
141.755
144.452
147.115
149.743
152.335
154.889
157.406
159.885
162.326
164.728
167.093
169.42
171.71
173.964
176.184
178.371
180.526
182.653
184.754
186.831
188.888
190.929
192.957
194.975
196.988
198.996
101.495
104.483
107.469
110.447
113.417
116.375
119.318
122.244
125.15
128.034
130.894
133.726
136.53
139.303
142.044
144.751
147.421
150.055
152.651
155.209
157.727
160.205
162.644
165.042
167.402
169.721
172.003
174.247
176.454
178.626
180.766
182.874
184.955
187.01
189.043
191.057
193.058
195.048
197.032
199.011
101.509
104.525
107.538
110.543
113.539
116.522
119.489
122.438
125.366
128.27
131.149
133.998
136.817
139.604
142.356
145.073
147.752
150.392
152.992
155.553
158.072
160.549
162.985
165.38
167.733
170.045
172.317
174.549
176.743
178.9
181.023
183.112
185.171
187.202
189.209
191.196
193.167
195.127
197.079
199.026
101.524
104.571
107.613
110.648
113.673
116.683
119.677
122.65
125.602
128.528
131.426
134.293
137.129
139.93
142.694
145.421
148.108
150.755
153.36
155.923
158.443
160.92
163.353
165.743
168.089
170.393
172.654
174.874
177.053
179.194
181.298
183.366
185.402
187.409
189.389
191.347
193.286
195.212
197.131
199.044
101.541
104.621
107.696
110.763
113.818
116.859
119.881
122.882
125.858
128.807
131.727
134.614
137.467
140.283
143.06
145.798
148.494
151.148
153.758
156.324
158.845
161.32
163.75
166.135
168.474
170.768
173.017
175.224
177.387
179.51
181.594
183.64
185.651
187.631
189.582
191.509
193.414
195.305
197.187
199.062
101.559
104.675
107.787
110.889
113.978
117.051
120.104
123.134
126.138
129.112
132.055
134.963
137.834
140.666
143.458
146.207
148.913
151.574
154.19
156.758
159.28
161.754
164.181
166.559
168.89
171.174
173.411
175.602
177.749
179.852
181.913
183.935
185.92
187.871
189.791
191.683
193.553
195.405
197.248
199.082
101.579
104.735
107.886
111.027
114.153
117.262
120.349
123.41
126.444
129.445
132.413
135.343
138.234
141.084
143.891
146.653
149.369
152.038
154.659
157.231
159.753
162.226
164.648
167.021
169.343
171.615
173.838
176.013
178.141
180.222
182.259
184.254
186.21
188.129
190.015
191.872
193.703
195.514
197.314
199.104
101.601
104.802
107.996
111.178
114.346
117.493
120.617
123.713
126.779
129.81
132.804
135.758
138.671
141.54
144.362
147.138
149.865
152.542
155.169
157.745
160.268
162.739
165.157
167.523
169.835
172.095
174.304
176.461
178.567
180.625
182.636
184.602
186.526
188.41
190.259
192.077
193.866
195.633
197.386
199.128
101.626
104.875
108.116
111.345
114.557
117.748
120.912
124.046
127.146
130.209
133.233
136.213
139.149
142.038
144.878
147.668
150.407
153.093
155.726
158.305
160.83
163.299
165.713
168.071
170.373
172.62
174.811
176.949
179.033
181.066
183.048
184.982
186.87
188.717
190.525
192.299
194.043
195.762
197.465
199.154
101.653
104.955
108.25
111.53
114.791
118.028
121.237
124.412
127.55
130.648
133.703
136.712
139.672
142.583
145.442
148.247
150.999
153.695
156.335
158.918
161.443
163.91
166.319
168.669
170.96
173.192
175.366
177.483
179.543
181.547
183.498
185.397
187.247
189.052
190.816
192.543
194.237
195.903
197.551
199.182
101.683
105.045
108.397
111.734
115.05
118.339
121.595
124.816
127.996
131.131
134.22
137.259
140.247
143.18
146.059
148.881
151.646
154.352
156.999
159.586
162.113
164.578
166.981
169.322
171.601
173.818
175.973
178.067
180.1
182.075
183.992
185.853
187.661
189.421
191.135
192.81
194.449
196.058
197.646
199.214
101.716
105.144
108.561
111.961
115.337
118.682
121.992
125.262
128.487
131.663
134.789
137.861
140.877
143.836
146.735
149.575
152.354
155.071
157.726
160.317
162.844
165.307
167.704
170.036
172.303
174.503
176.638
178.707
180.712
182.654
184.534
186.354
188.117
189.826
191.487
193.104
194.682
196.228
197.75
199.248
101.753
105.255
108.744
112.213
115.655
119.063
122.432
125.755
129.029
132.25
135.415
138.522
141.569
144.554
147.477
150.335
153.129
155.857
158.52
161.115
163.643
166.103
168.495
170.817
173.069
175.252
177.365
179.408
181.383
183.29
185.13
186.906
188.619
190.274
191.876
193.429
194.94
196.416
197.866
199.287
101.794
105.378
108.948
112.495
116.01
119.487
122.919
126.301
129.629
132.898
136.106
139.25
142.33
145.343
148.289
151.167
153.976
156.716
159.387
161.987
164.515
166.972
169.357
171.669
173.907
176.071
178.161
180.177
182.119
183.989
185.786
187.514
189.174
190.77
192.306
193.79
195.227
196.625
197.994
199.329
101.841
105.517
109.176
112.809
116.406
119.959
123.461
126.907
130.292
133.613
136.866
140.05
143.164
146.207
149.178
152.076
154.902
157.654
160.332
162.937
165.466
167.92
170.298
172.599
174.822
176.966
179.032
181.019
182.927
184.757
186.509
188.185
189.787
191.318
192.784
194.191
195.546
196.857
198.136
199.377
101.893
105.673
109.433
113.162
116.849
120.486
124.065
127.58
131.027
134.402
137.704
140.93
144.081
147.154
150.151
153.07
155.912
158.676
161.363
163.972
166.502
168.953
171.323
173.613
175.82
177.944
179.985
181.942
183.814
185.602
187.305
188.926
190.466
191.928
193.316
194.639
195.902
197.117
198.296
199.43
101.952
105.849
109.722
113.559
117.346
121.075
124.737
128.327
131.841
135.275
138.627
141.898
145.085
148.191
151.213
154.154
157.013
159.79
162.485
165.098
167.629
170.076
172.439
174.716
176.908
179.011
181.026
182.952
184.786
186.53
188.183
189.745
191.218
192.605
193.91
195.139
196.302
197.41
198.474
199.49
102.019
106.049
110.05
114.007
117.906
121.736
125.489
129.159
132.743
136.238
139.643
142.959
146.186
149.323
152.373
155.335
158.211
161.001
163.704
166.321
168.852
171.296
173.651
175.916
178.091
180.174
182.163
184.056
185.853
187.551
189.151
190.652
192.054
193.36
194.574
195.702
196.753
197.74
198.676
199.558
102.097
106.277
110.424
114.516
118.538
122.479
126.329
130.085
133.743
137.301
140.762
144.124
147.389
150.56
153.636
156.62
159.512
162.314
165.026
167.647
170.178
172.618
174.965
177.219
179.378
181.439
183.402
185.263
187.021
188.673
190.218
191.655
192.984
194.204
195.32
196.336
197.263
198.116
198.906
199.635
102.186
106.541
110.854
115.098
119.257
123.317
127.272
131.117
134.851
138.475
141.991
145.399
148.704
151.906
155.009
158.014
160.922
163.736
166.455
169.081
171.612
174.048
176.388
178.63
180.773
182.814
184.75
186.58
188.299
189.906
191.396
192.768
194.019
195.15
196.16
197.056
197.846
198.545
199.169
199.725
102.29
106.85
111.353
115.769
120.077
124.266
128.33
132.268
136.08
139.769
143.339
146.794
150.136
153.369
156.497
159.523
162.447
165.272
167.998
170.627
173.158
175.591
177.924
180.155
182.283
184.304
186.216
188.015
189.698
191.259
192.695
194.002
195.175
196.212
197.112
197.878
198.516
199.043
199.475
199.831
102.415
107.216
111.94
116.548
121.019
125.344
129.521
133.552
137.441
141.195
144.817
148.315
151.693
154.956
158.108
161.152
164.09
166.926
169.66
172.292
174.823
177.252
179.579
181.8
183.914
185.917
187.806
189.577
191.225
192.744
194.128
195.372
196.468
197.411
198.196
198.824
199.296
199.629
199.838
199.96
102.569
107.662
112.643
117.464
122.109
126.574
130.864
134.986
138.949
142.762
146.433
149.971
153.382
156.672
159.845
162.906
165.858
168.703
171.443
174.078
176.61
179.036
181.357
183.57
185.671
187.659
189.528
191.274
192.89
194.371
195.708
196.893
197.916
198.767
199.438
199.922
200.214
200.331
200.278
200.116
102.768
108.225
113.503
118.556
123.379
127.982
132.379
136.585
140.614
144.481
148.196
151.769
155.209
158.521
161.714
164.789
167.753
170.606
173.352
175.991
178.523
180.948
183.264
185.47
187.562
189.536
191.389
193.113
194.704
196.152
197.448
198.582
199.54
200.308
200.87
201.21
201.314
201.189
200.822
200.311
103.041
108.968
114.582
119.873
124.867
129.596
134.087
138.365
142.451
146.362
150.113
153.715
157.179
160.511
163.719
166.807
169.78
172.641
175.392
178.034
180.567
182.992
185.305
187.506
189.591
191.556
193.396
195.105
196.675
198.098
199.363
200.456
201.362
202.062
202.53
202.742
202.662
202.275
201.527
200.572
103.5
110.008
115.957
121.468
126.612
131.444
136.009
140.343
144.472
148.417
152.195
155.819
159.301
162.648
165.867
168.966
171.947
174.814
177.569
180.215
182.75
185.174
187.487
189.685
191.766
193.725
195.558
197.257
198.814
200.22
201.463
202.529
203.399
204.05
204.453
204.57
204.341
203.711
202.539
201.011
104.348
111.593
117.817
123.477
128.712
133.602
138.207
142.57
146.721
150.684
154.476
158.112
161.603
164.958
168.185
171.289
174.274
177.145
179.903
182.55
185.086
187.511
189.823
192.02
194.099
196.055
197.884
199.577
201.128
202.525
203.757
204.807
205.657
206.281
206.646
206.711
206.399
205.634
204.169
202.061
)
;

boundaryField
{
    carasuperior
    {
        type            fixedGradient;
        gradient        uniform 100;
    }
    lateralizquierda
    {
        type            fixedValue;
        value           uniform 100;
    }
    lateralderecha
    {
        type            fixedValue;
        value           uniform 200;
    }
    carainferior
    {
        type            zeroGradient;
    }
    frontAndBack
    {
        type            empty;
    }
}


// ************************************************************************* //
