/*--------------------------------*- C++ -*----------------------------------*\
| =========                 |                                                 |
| \\      /  F ield         | OpenFOAM: The Open Source CFD Toolbox           |
|  \\    /   O peration     | Version:  2.4.0                                 |
|   \\  /    A nd           | Web:      www.OpenFOAM.org                      |
|    \\/     M anipulation  |                                                 |
\*---------------------------------------------------------------------------*/
FoamFile
{
    version     2.0;
    format      ascii;
    class       volScalarField;
    location    "0.98";
    object      T;
}
// * * * * * * * * * * * * * * * * * * * * * * * * * * * * * * * * * * * * * //

dimensions      [0 0 0 1 0 0 0];

internalField   nonuniform List<scalar> 
1600
(
101.414
104.24
107.063
109.882
112.695
115.5
118.295
121.078
123.848
126.602
129.34
132.06
134.76
137.439
140.095
142.728
145.336
147.918
150.475
153.005
155.508
157.984
160.433
162.855
165.251
167.622
169.968
172.291
174.592
176.872
179.134
181.377
183.605
185.82
188.022
190.214
192.397
194.574
196.746
198.916
101.414
104.242
107.068
109.889
112.703
115.51
118.306
121.091
123.863
126.619
129.359
132.08
134.781
137.461
140.118
142.752
145.361
147.944
150.501
153.031
155.534
158.01
160.459
162.88
165.276
167.646
169.991
172.313
174.612
176.891
179.151
181.393
183.619
185.832
188.032
190.222
192.404
194.579
196.749
198.917
101.416
104.248
107.077
109.901
112.719
115.529
118.329
121.118
123.892
126.652
129.394
132.118
134.822
137.504
140.164
142.799
145.41
147.994
150.552
153.083
155.586
158.062
160.51
162.931
165.325
167.694
170.037
172.356
174.653
176.929
179.186
181.425
183.648
185.857
188.053
190.24
192.417
194.589
196.755
198.919
101.419
104.256
107.09
109.92
112.743
115.558
118.363
121.157
123.936
126.7
129.447
132.175
134.883
137.568
140.231
142.869
145.482
148.069
150.628
153.16
155.664
158.139
160.587
163.006
165.399
167.765
170.105
172.422
174.715
176.987
179.239
181.473
183.691
185.894
188.085
190.266
192.438
194.603
196.764
198.922
101.422
104.266
107.107
109.944
112.775
115.597
118.408
121.208
123.994
126.764
129.516
132.25
134.962
137.653
140.319
142.961
145.577
148.166
150.728
153.261
155.765
158.241
160.687
163.106
165.496
167.859
170.196
172.508
174.797
177.063
179.309
181.537
183.748
185.944
188.128
190.301
192.465
194.623
196.775
198.926
101.427
104.279
107.129
109.975
112.814
115.644
118.464
121.272
124.065
126.843
129.602
132.342
135.061
137.757
140.428
143.075
145.694
148.287
150.85
153.385
155.89
158.366
160.812
163.229
165.616
167.976
170.309
172.616
174.898
177.158
179.397
181.616
183.819
186.006
188.181
190.345
192.499
194.647
196.79
198.93
101.432
104.295
107.155
110.011
112.86
115.701
118.53
121.348
124.15
126.936
129.704
132.451
135.177
137.88
140.558
143.209
145.833
148.429
150.996
153.533
156.039
158.515
160.96
163.375
165.76
168.116
170.443
172.744
175.02
177.272
179.502
181.712
183.905
186.082
188.245
190.397
192.541
194.677
196.808
198.936
101.438
104.313
107.186
110.053
112.914
115.766
118.607
121.435
124.248
127.044
129.822
132.578
135.312
138.022
140.707
143.364
145.994
148.594
151.164
153.703
156.21
158.686
161.13
163.543
165.925
168.277
170.599
172.893
175.161
177.404
179.625
181.824
184.005
186.169
188.32
190.459
192.589
194.711
196.829
198.943
101.445
104.334
107.22
110.102
112.976
115.841
118.695
121.535
124.36
127.167
129.955
132.722
135.465
138.183
140.876
143.54
146.175
148.78
151.353
153.895
156.404
158.88
161.323
163.734
166.113
168.46
170.776
173.063
175.322
177.555
179.764
181.952
184.119
186.27
188.406
190.53
192.644
194.751
196.853
198.951
101.453
104.357
107.259
110.156
113.045
115.925
118.793
121.647
124.485
127.305
130.105
132.882
135.636
138.363
141.064
143.735
146.376
148.986
151.564
154.108
156.619
159.095
161.538
163.946
166.321
168.663
170.973
173.252
175.502
177.724
179.921
182.095
184.248
186.383
188.503
190.61
192.707
194.796
196.88
198.96
101.462
104.383
107.303
110.216
113.122
116.019
118.902
121.772
124.624
127.458
130.27
133.06
135.824
138.562
141.271
143.951
146.598
149.214
151.795
154.343
156.855
159.332
161.773
164.179
166.55
168.887
171.19
173.46
175.7
177.911
180.095
182.254
184.392
186.51
188.611
190.699
192.777
194.846
196.91
198.97
101.471
104.412
107.35
110.283
113.208
116.122
119.023
121.909
124.777
127.626
130.452
133.255
136.031
138.779
141.498
144.186
146.841
149.462
152.048
154.598
157.112
159.589
162.029
164.432
166.799
169.13
171.426
173.688
175.917
178.116
180.286
182.429
184.549
186.649
188.731
190.798
192.854
194.902
196.943
198.981
101.482
104.444
107.403
110.356
113.301
116.235
119.155
122.059
124.944
127.809
130.651
133.467
136.256
139.016
141.745
144.441
147.103
149.73
152.321
154.874
157.389
159.866
162.305
164.705
167.067
169.392
171.68
173.933
176.151
178.337
180.492
182.62
184.722
186.801
188.862
190.907
192.939
194.963
196.98
198.994
101.493
104.479
107.461
110.437
113.404
116.359
119.299
122.223
125.127
128.009
130.867
133.698
136.501
139.273
142.012
144.718
147.387
150.02
152.615
155.171
157.688
160.164
162.601
164.998
167.356
169.674
171.954
174.196
176.403
178.575
180.715
182.825
184.908
186.967
189.004
191.025
193.032
195.029
197.02
199.007
101.506
104.517
107.524
110.525
113.515
116.494
119.457
122.402
125.326
128.227
131.102
133.949
136.766
139.551
142.301
145.016
147.694
150.332
152.932
155.49
158.008
160.485
162.919
165.312
167.664
169.976
172.247
174.479
176.673
178.831
180.955
183.047
185.109
187.145
189.159
191.153
193.133
195.102
197.064
199.022
101.52
104.558
107.593
110.621
113.638
116.641
119.628
122.596
125.542
128.463
131.357
134.221
137.053
139.852
142.614
145.338
148.024
150.669
153.273
155.834
158.353
160.829
163.261
165.65
167.996
170.299
172.561
174.781
176.962
179.105
181.212
183.284
185.325
187.338
189.326
191.292
193.243
195.181
197.112
199.037
101.535
104.604
107.669
110.726
113.771
116.802
119.816
122.808
125.778
128.72
131.634
134.516
137.365
140.177
142.952
145.687
148.381
151.032
153.641
156.205
158.725
161.199
163.629
166.013
168.352
170.647
172.898
175.106
177.272
179.399
181.487
183.539
185.557
187.545
189.505
191.443
193.361
195.266
197.164
199.054
101.552
104.654
107.751
110.84
113.917
116.978
120.02
123.04
126.034
129
131.935
134.837
137.702
140.53
143.318
146.064
148.767
151.425
154.039
156.606
159.127
161.6
164.026
166.405
168.737
171.022
173.262
175.456
177.607
179.715
181.783
183.812
185.806
187.767
189.699
191.605
193.49
195.359
197.22
199.073
101.57
104.709
107.842
110.966
114.076
117.17
120.243
123.292
126.314
129.305
132.263
135.186
138.07
140.914
143.715
146.473
149.186
151.852
154.47
157.04
159.562
162.034
164.457
166.83
169.154
171.429
173.656
175.835
177.968
180.057
182.102
184.107
186.074
188.007
189.907
191.78
193.628
195.46
197.281
199.093
101.59
104.769
107.942
111.104
114.252
117.381
120.488
123.568
126.619
129.638
132.621
135.566
138.47
141.331
144.148
146.918
149.641
152.315
154.939
157.513
160.035
162.506
164.925
167.291
169.606
171.87
174.083
176.246
178.36
180.427
182.449
184.427
186.365
188.265
190.132
191.968
193.779
195.569
197.347
199.115
101.612
104.835
108.051
111.255
114.444
117.612
120.756
123.871
126.954
130.002
133.012
135.981
138.907
141.787
144.62
147.404
150.137
152.82
155.45
158.027
160.55
163.019
165.434
167.794
170.099
172.351
174.549
176.694
178.788
180.831
182.826
184.775
186.681
188.547
190.376
192.173
193.942
195.687
197.419
199.139
101.637
104.908
108.172
111.422
114.656
117.866
121.05
124.204
127.322
130.402
133.441
136.436
139.385
142.285
145.135
147.933
150.679
153.371
156.007
158.588
161.112
163.579
165.989
168.342
170.637
172.875
175.057
177.183
179.254
181.272
183.238
185.155
187.026
188.853
190.642
192.396
194.119
195.817
197.498
199.165
101.664
104.989
108.305
111.607
114.889
118.147
121.375
124.57
127.726
130.841
133.911
136.934
139.908
142.83
145.699
148.513
151.271
153.972
156.616
159.2
161.725
164.191
166.596
168.94
171.224
173.448
175.612
177.717
179.764
181.754
183.689
185.571
187.403
189.189
190.933
192.639
194.313
195.958
197.584
199.193
101.694
105.078
108.453
111.811
115.148
118.457
121.734
124.973
128.171
131.324
134.428
137.482
140.482
143.427
146.316
149.147
151.918
154.63
157.28
159.869
162.395
164.859
167.258
169.594
171.866
174.075
176.219
178.302
180.322
182.282
184.183
186.027
187.818
189.558
191.253
192.907
194.525
196.113
197.679
199.225
101.727
105.177
108.617
112.038
115.435
118.801
122.13
125.419
128.662
131.856
134.997
138.083
141.112
144.083
146.992
149.841
152.627
155.349
158.007
160.6
163.127
165.588
167.982
170.309
172.568
174.76
176.884
178.942
180.934
182.861
184.725
186.529
188.274
189.964
191.605
193.201
194.758
196.283
197.783
199.259
101.764
105.288
108.799
112.29
115.753
119.182
122.57
125.912
129.204
132.442
135.623
138.745
141.805
144.801
147.734
150.601
153.401
156.135
158.801
161.398
163.926
166.385
168.772
171.089
173.335
175.509
177.612
179.644
181.605
183.498
185.322
187.081
188.776
190.412
191.994
193.527
195.017
196.471
197.899
199.298
101.805
105.412
109.003
112.571
116.108
119.605
123.057
126.458
129.804
133.09
136.313
139.472
142.565
145.59
148.546
151.432
154.248
156.994
159.668
162.27
164.799
167.254
169.635
171.942
174.173
176.329
178.409
180.413
182.342
184.197
185.979
187.689
189.331
190.908
192.425
193.888
195.303
196.68
198.027
199.34
101.852
105.55
109.231
112.886
116.504
120.077
123.599
127.064
130.467
133.804
137.074
140.272
143.399
146.454
149.435
152.342
155.174
157.932
160.614
163.22
165.75
168.202
170.576
172.872
175.088
177.225
179.28
181.256
183.151
184.966
186.702
188.361
189.945
191.457
192.903
194.289
195.623
196.912
198.17
199.388
101.904
105.706
109.488
113.238
116.947
120.604
124.203
127.737
131.202
134.594
137.911
141.152
144.316
147.401
150.407
153.335
156.184
158.954
161.645
164.255
166.786
169.235
171.602
173.886
176.087
178.203
180.234
182.179
184.038
185.811
187.499
189.102
190.624
192.067
193.436
194.737
195.979
197.173
198.329
199.441
101.963
105.882
109.777
113.635
117.444
121.193
124.875
128.484
132.015
135.466
138.834
142.119
145.32
148.437
151.47
154.419
157.285
160.068
162.767
165.382
167.913
170.358
172.718
174.99
177.175
179.27
181.275
183.189
185.011
186.74
188.377
189.922
191.377
192.745
194.03
195.238
196.38
197.465
198.508
199.501
102.031
106.082
110.105
114.083
118.003
121.854
125.626
129.315
132.917
136.429
139.851
143.181
146.42
149.57
152.63
155.601
158.483
161.278
163.986
166.605
169.136
171.578
173.93
176.191
178.359
180.433
182.412
184.294
186.078
187.762
189.346
190.829
192.213
193.5
194.694
195.801
196.831
197.796
198.71
199.569
102.108
106.31
110.479
114.593
118.636
122.597
126.467
130.241
133.917
137.493
140.969
144.345
147.624
150.806
153.893
156.885
159.785
162.592
165.307
167.931
170.462
172.9
175.245
177.494
179.646
181.699
183.652
185.501
187.246
188.884
190.414
191.834
193.144
194.345
195.44
196.436
197.342
198.172
198.939
199.646
102.197
106.574
110.909
115.175
119.354
123.435
127.409
131.273
135.025
138.666
142.197
145.62
148.938
152.152
155.265
158.279
161.195
164.014
166.737
169.365
171.896
174.331
176.667
178.905
181.041
183.074
185.001
186.819
188.525
190.117
191.592
192.947
194.18
195.291
196.281
197.156
197.924
198.602
199.203
199.736
102.301
106.883
111.408
115.845
120.174
124.384
128.467
132.424
136.254
139.96
143.546
147.015
150.37
153.615
156.754
159.788
162.719
165.55
168.28
170.911
173.443
175.874
178.204
180.43
182.552
184.565
186.467
188.255
189.924
191.471
192.892
194.181
195.336
196.354
197.234
197.979
198.595
199.1
199.509
199.843
102.426
107.249
111.995
116.624
121.116
125.462
129.658
133.708
137.615
141.385
145.024
148.536
151.927
155.202
158.364
161.417
164.363
167.204
169.941
172.576
175.108
177.536
179.859
182.075
184.183
186.178
188.058
189.817
191.452
192.957
194.325
195.552
196.63
197.553
198.319
198.925
199.375
199.686
199.873
199.971
102.58
107.695
112.698
117.54
122.206
126.692
131.001
135.141
139.122
142.952
146.639
150.192
153.616
156.917
160.101
163.171
166.13
168.981
171.724
174.362
176.894
179.32
181.638
183.845
185.941
187.92
189.78
191.514
193.118
194.584
195.906
197.073
198.078
198.91
199.561
200.023
200.294
200.388
200.313
200.128
102.779
108.258
113.558
118.632
123.476
128.099
132.516
136.74
140.788
144.671
148.402
151.989
155.442
158.767
161.969
165.054
168.025
170.884
173.634
176.275
178.808
181.231
183.545
185.746
187.831
189.798
191.641
193.354
194.932
196.366
197.646
198.763
199.703
200.452
200.993
201.313
201.395
201.246
200.856
200.323
103.052
109.001
114.637
119.948
124.964
129.713
134.223
138.52
142.624
146.552
150.319
153.936
157.412
160.756
163.974
167.072
170.052
172.919
175.674
178.318
180.852
183.275
185.586
187.782
189.861
191.818
193.649
195.346
196.904
198.313
199.562
200.638
201.525
202.206
202.654
202.845
202.743
202.333
201.562
200.584
103.511
110.041
116.011
121.544
126.708
131.56
136.145
140.498
144.645
148.607
152.4
156.039
159.534
162.893
166.123
169.23
172.219
175.092
177.851
180.499
183.035
185.458
187.768
189.962
192.036
193.988
195.811
197.498
199.043
200.435
201.662
202.711
203.563
204.195
204.577
204.673
204.422
203.77
202.575
201.023
104.359
111.626
117.871
123.552
128.808
133.718
138.343
142.724
146.894
150.873
154.681
158.332
161.836
165.203
168.44
171.553
174.546
177.423
180.185
182.834
185.371
187.795
190.105
192.297
194.37
196.318
198.137
199.819
201.357
202.74
203.956
204.99
205.821
206.426
206.771
206.814
206.48
205.692
204.204
202.073
)
;

boundaryField
{
    carasuperior
    {
        type            fixedGradient;
        gradient        uniform 100;
    }
    lateralizquierda
    {
        type            fixedValue;
        value           uniform 100;
    }
    lateralderecha
    {
        type            fixedValue;
        value           uniform 200;
    }
    carainferior
    {
        type            zeroGradient;
    }
    frontAndBack
    {
        type            empty;
    }
}


// ************************************************************************* //
