/*--------------------------------*- C++ -*----------------------------------*\
| =========                 |                                                 |
| \\      /  F ield         | OpenFOAM: The Open Source CFD Toolbox           |
|  \\    /   O peration     | Version:  2.4.0                                 |
|   \\  /    A nd           | Web:      www.OpenFOAM.org                      |
|    \\/     M anipulation  |                                                 |
\*---------------------------------------------------------------------------*/
FoamFile
{
    version     2.0;
    format      ascii;
    class       surfaceScalarField;
    location    "0.1";
    object      phi;
}
// * * * * * * * * * * * * * * * * * * * * * * * * * * * * * * * * * * * * * //

dimensions      [0 3 -1 0 0 0 0];

internalField   nonuniform List<scalar> 
12720
(
-2.46973e-07
2.46967e-07
4.53437e-12
-9.477e-07
6.99068e-07
1.65846e-09
-1.84292e-06
8.93734e-07
1.48613e-09
-2.79503e-06
9.50677e-07
1.43574e-09
-3.75449e-06
9.57967e-07
1.48625e-09
-4.70052e-06
9.44545e-07
1.49438e-09
-5.6162e-06
9.14207e-07
1.4722e-09
-6.48027e-06
8.62658e-07
1.41132e-09
-7.26663e-06
7.85076e-07
1.28937e-09
6.81208e-07
1.08447e-09
-7.94893e-06
-7.02244e-07
9.5086e-07
-1.64896e-09
-2.12274e-06
2.11956e-06
6.98099e-12
-3.85337e-06
2.62533e-06
-9.75199e-10
-5.69524e-06
2.79374e-06
-1.19229e-09
-7.56221e-06
2.82607e-06
-1.13379e-09
-9.41145e-06
2.79488e-06
-1.09367e-09
-1.12069e-05
2.71067e-06
-1.02786e-09
-1.2905e-05
2.56172e-06
-9.3747e-10
-1.44532e-05
2.33414e-06
-8.4471e-10
2.02685e-06
-7.90472e-10
-1.57981e-05
-9.00647e-07
1.85299e-06
-1.48855e-09
-2.63705e-06
3.85498e-06
9.75746e-10
-4.72008e-06
4.70838e-06
-9.52451e-12
-6.93301e-06
5.00677e-06
-1.03422e-10
-9.18539e-06
5.07843e-06
2.84169e-11
-1.14312e-05
5.04061e-06
6.99357e-11
-1.36278e-05
4.90719e-06
1.07678e-10
-1.57186e-05
4.6524e-06
1.47471e-10
-1.7629e-05
4.24433e-06
1.68862e-10
3.67388e-06
9.7778e-11
-1.92761e-05
-9.59923e-07
2.81436e-06
-1.4442e-09
-2.81119e-06
5.70505e-06
1.19028e-09
-5.02788e-06
6.92499e-06
8.00449e-11
-7.38985e-06
7.36875e-06
-1.36077e-11
-9.81353e-06
7.50197e-06
1.41497e-10
-1.22593e-05
7.48616e-06
1.96837e-10
-1.46854e-05
7.33306e-06
2.49642e-10
-1.70247e-05
6.99139e-06
3.11245e-10
-1.91729e-05
6.39213e-06
3.81806e-10
5.49734e-06
3.09223e-10
-2.09966e-05
-9.6806e-07
3.78392e-06
-1.4961e-09
-2.84615e-06
7.58202e-06
1.13172e-09
-5.10453e-06
9.18342e-06
-5.34052e-11
-7.53072e-06
9.79512e-06
-1.709e-10
-1.0055e-05
1.00263e-05
-1.66771e-11
-1.26522e-05
1.00833e-05
5.00759e-11
-1.52896e-05
9.97033e-06
1.27662e-10
-1.78919e-05
9.59345e-06
2.34978e-10
-2.03107e-05
8.8105e-06
4.50411e-10
7.50331e-06
4.87188e-10
-2.23172e-05
-9.54448e-07
4.73987e-06
-1.50382e-09
-2.81553e-06
9.442e-06
1.09139e-09
-5.06903e-06
1.1437e-05
-9.60833e-11
-7.51979e-06
1.22461e-05
-2.28619e-10
-1.012e-05
1.26266e-05
-8.89196e-11
-1.28705e-05
1.28338e-05
-2.51141e-11
-1.57625e-05
1.28624e-05
5.44581e-11
-1.87235e-05
1.25542e-05
1.65002e-10
-2.15446e-05
1.1631e-05
6.14483e-10
9.77688e-06
9.8384e-10
-2.38192e-05
-9.23172e-07
5.66452e-06
-1.4798e-09
-2.73055e-06
1.12484e-05
1.02531e-09
-4.93656e-06
1.36432e-05
-1.33952e-10
-7.37076e-06
1.46806e-05
-2.8308e-10
-1.00155e-05
1.52715e-05
-1.74042e-10
-1.29131e-05
1.57315e-05
-1.25772e-10
-1.61042e-05
1.60535e-05
-6.61019e-11
-1.95468e-05
1.59968e-05
-4.10828e-11
-2.29666e-05
1.505e-05
8.37086e-10
1.24554e-05
2.2571e-09
-2.56474e-05
-8.70025e-07
6.53596e-06
-1.41514e-09
-2.57969e-06
1.29571e-05
9.36279e-10
-4.68159e-06
1.57452e-05
-1.69339e-10
-7.0326e-06
1.70319e-05
-3.38538e-10
-9.64815e-06
1.78873e-05
-2.77079e-10
-1.26235e-05
1.87072e-05
-2.40534e-10
-1.60779e-05
1.95081e-05
-1.59047e-10
-2.00474e-05
1.99666e-05
-2.39806e-10
-2.42232e-05
1.92238e-05
1.87017e-09
1.56286e-05
7.51047e-09
-2.74038e-05
-7.90217e-07
7.32747e-06
-1.28709e-09
-2.34896e-06
1.4515e-05
8.47902e-10
-4.27164e-06
1.76681e-05
-1.78867e-10
-6.43494e-06
1.91956e-05
-3.86916e-10
-8.87319e-06
2.0326e-05
-4.5128e-10
-1.17196e-05
2.15541e-05
-5.98913e-10
-1.51684e-05
2.29578e-05
-8.86747e-10
-1.93635e-05
2.4164e-05
-2.32558e-09
-2.40612e-05
2.39218e-05
-2.85162e-10
1.90213e-05
1.56037e-08
-2.74696e-05
-6.83548e-07
-1.07465e-09
8.01209e-06
-2.03701e-06
7.98537e-10
1.58676e-05
-3.69628e-06
-9.62706e-11
1.93275e-05
-5.53613e-06
-2.95813e-10
2.10357e-05
-7.56425e-06
-4.60231e-10
2.23546e-05
-9.86944e-06
-9.03959e-10
2.38602e-05
-1.25923e-05
-2.12475e-09
2.56828e-05
-1.58117e-05
-7.65995e-09
2.7391e-05
-1.92145e-05
-1.55446e-08
2.73402e-05
1.13971e-09
-2.14942e-05
2.12999e-05
-2.47352e-07
2.47357e-07
-8.20761e-14
-9.4807e-07
7.02376e-07
-4.14669e-13
-1.84301e-06
8.96427e-07
3.77824e-15
-2.79505e-06
9.53475e-07
6.39981e-14
-3.7545e-06
9.60939e-07
1.80026e-13
-4.70054e-06
9.47539e-07
4.22743e-13
-5.61624e-06
9.17166e-07
6.14604e-13
-6.48035e-06
8.65525e-07
5.99649e-13
-7.26681e-06
7.87744e-07
4.28026e-13
6.83459e-07
2.56198e-13
-7.94918e-06
-7.0554e-07
9.51247e-07
3.29442e-13
-2.1239e-06
2.12074e-06
2.22212e-14
-3.85407e-06
2.62562e-06
3.16824e-13
-5.69572e-06
2.79394e-06
2.61852e-13
-7.56238e-06
2.82647e-06
3.76067e-13
-9.41138e-06
2.79544e-06
4.99333e-13
-1.12066e-05
2.7114e-06
4.91766e-13
-1.29047e-05
2.56262e-06
3.5423e-13
-1.44529e-05
2.33517e-06
2.19948e-13
2.02762e-06
8.05795e-14
-1.57979e-05
-9.0334e-07
1.8531e-06
8.9975e-14
-2.63731e-06
3.85569e-06
-5.24833e-14
-4.72032e-06
4.70861e-06
1.84705e-13
-6.93339e-06
5.0069e-06
1.6944e-13
-9.18562e-06
5.07873e-06
1.12697e-13
-1.14312e-05
5.04113e-06
3.89447e-16
-1.36278e-05
4.90802e-06
-8.94095e-14
-1.57186e-05
4.65363e-06
-1.1378e-13
-1.76292e-05
4.24595e-06
-3.98674e-14
3.67516e-06
-4.91174e-14
-1.92767e-05
-9.62723e-07
2.81438e-06
2.78367e-13
-2.81137e-06
5.70553e-06
2.7897e-13
-5.02802e-06
6.92534e-06
2.58737e-13
-7.3902e-06
7.36908e-06
7.6365e-14
-9.81377e-06
7.50243e-06
-1.27913e-13
-1.22593e-05
7.4869e-06
-2.61421e-13
-1.46853e-05
7.33425e-06
-2.60719e-13
-1.70246e-05
6.99324e-06
-1.61428e-13
-1.91732e-05
6.39496e-06
-5.92248e-14
5.49991e-06
-6.33803e-14
-2.09977e-05
-9.71037e-07
3.78392e-06
5.47048e-13
-2.84653e-06
7.58215e-06
4.80761e-13
-5.10483e-06
9.18359e-06
2.93976e-13
-7.53122e-06
9.7953e-06
1.48696e-13
-1.00554e-05
1.00266e-05
5.25229e-14
-1.26523e-05
1.00839e-05
1.62273e-14
-1.52894e-05
9.97147e-06
-1.56899e-14
-1.78915e-05
9.59558e-06
-1.15504e-14
-2.0311e-05
8.81484e-06
-7.36568e-14
7.50826e-06
-1.1341e-13
-2.23188e-05
-9.57449e-07
4.73986e-06
5.49406e-13
-2.81607e-06
9.44187e-06
3.39201e-13
-5.06958e-06
1.1437e-05
2.73088e-13
-7.52059e-06
1.22461e-05
3.69495e-13
-1.01207e-05
1.26266e-05
4.38102e-13
-1.28709e-05
1.28341e-05
3.31331e-13
-1.57624e-05
1.28631e-05
1.42399e-13
-1.87228e-05
1.25561e-05
2.91002e-14
-2.15446e-05
1.16372e-05
-1.45827e-14
9.78647e-06
2.10946e-14
-2.38218e-05
-9.26138e-07
5.66452e-06
1.90835e-13
-2.73127e-06
1.1248e-05
-4.30382e-14
-4.93743e-06
1.3643e-05
1.6599e-13
-7.37202e-06
1.46804e-05
4.60734e-13
-1.00168e-05
1.52711e-05
4.92352e-13
-1.29141e-05
1.57312e-05
2.57405e-13
-1.61045e-05
1.60534e-05
1.15951e-13
-1.95457e-05
1.59973e-05
1.31391e-13
-2.29657e-05
1.5058e-05
1.94036e-13
1.2475e-05
2.6584e-13
-2.5652e-05
-8.72895e-07
6.536e-06
-2.71845e-13
-2.58059e-06
1.29567e-05
-2.90787e-13
-4.68284e-06
1.57451e-05
1.22847e-13
-7.03451e-06
1.70317e-05
2.69484e-13
-9.65043e-06
1.78868e-05
8.58956e-14
-1.26258e-05
1.87063e-05
-1.404e-14
-1.60792e-05
1.95067e-05
1.71206e-13
-2.00458e-05
1.99637e-05
3.08465e-13
-2.4217e-05
1.92311e-05
2.85429e-13
1.56756e-05
2.98146e-13
-2.74101e-05
-7.92876e-07
7.32759e-06
-3.51121e-13
-2.34996e-06
1.45146e-05
-1.9411e-13
-4.27325e-06
1.76682e-05
5.58068e-15
-6.43774e-06
1.91958e-05
-1.3572e-13
-8.87748e-06
2.03261e-05
-2.17894e-13
-1.17257e-05
2.1554e-05
-2.63528e-14
-1.51768e-05
2.29569e-05
2.03229e-13
-1.93727e-05
2.41573e-05
2.30801e-13
-2.40496e-05
2.39077e-05
1.78297e-13
1.90902e-05
2.5581e-13
-2.74485e-05
-6.85779e-07
-8.4883e-14
8.0123e-06
-2.03774e-06
2.86045e-14
1.58674e-05
-3.69753e-06
-1.10088e-13
1.93279e-05
-5.53866e-06
-3.02428e-13
2.10367e-05
-7.56912e-06
-1.61236e-13
2.23561e-05
-9.8787e-06
3.57134e-14
2.38626e-05
-1.26112e-05
-9.92543e-15
2.56873e-05
-1.58589e-05
-2.0495e-14
2.73973e-05
-1.92853e-05
7.77558e-14
2.73186e-05
1.41377e-13
-2.13721e-05
2.11781e-05
-2.47353e-07
2.47357e-07
-4.90797e-12
-9.48069e-07
7.02376e-07
-1.65917e-09
-1.84301e-06
8.96427e-07
-1.48669e-09
-2.79505e-06
9.53475e-07
-1.43606e-09
-3.7545e-06
9.60938e-07
-1.48632e-09
-4.70054e-06
9.47539e-07
-1.49402e-09
-5.61624e-06
9.17166e-07
-1.47154e-09
-6.48035e-06
8.65525e-07
-1.41063e-09
-7.26681e-06
7.87744e-07
-1.28876e-09
6.83459e-07
-1.08409e-09
-7.94918e-06
-7.0554e-07
9.51247e-07
1.64965e-09
-2.1239e-06
2.12074e-06
-6.89646e-12
-3.85407e-06
2.62562e-06
9.75066e-10
-5.69572e-06
2.79394e-06
1.19215e-09
-7.56238e-06
2.82646e-06
1.1339e-09
-9.41138e-06
2.79544e-06
1.09409e-09
-1.12066e-05
2.7114e-06
1.02838e-09
-1.29047e-05
2.56262e-06
9.37915e-10
-1.44529e-05
2.33517e-06
8.4502e-10
2.02762e-06
7.90622e-10
-1.57979e-05
-9.0334e-07
1.8531e-06
1.48929e-09
-2.63731e-06
3.85569e-06
-9.75347e-10
-4.72032e-06
4.70861e-06
9.68167e-12
-6.93338e-06
5.0069e-06
1.03414e-10
-9.18562e-06
5.07872e-06
-2.83561e-11
-1.14312e-05
5.04113e-06
-6.98483e-11
-1.36278e-05
4.90802e-06
-1.07686e-10
-1.57186e-05
4.65363e-06
-1.47474e-10
-1.76292e-05
4.24595e-06
-1.68897e-10
3.67516e-06
-9.78249e-11
-1.92767e-05
-9.62723e-07
2.81438e-06
1.44476e-09
-2.81137e-06
5.70553e-06
-1.1897e-09
-5.02802e-06
6.92534e-06
-7.96374e-11
-7.3902e-06
7.36908e-06
1.37666e-11
-9.81377e-06
7.50243e-06
-1.41435e-10
-1.22593e-05
7.4869e-06
-1.96913e-10
-1.46853e-05
7.33425e-06
-2.4979e-10
-1.70246e-05
6.99323e-06
-3.11342e-10
-1.91732e-05
6.39496e-06
-3.81878e-10
5.49991e-06
-3.09329e-10
-2.09977e-05
-9.71037e-07
3.78392e-06
1.49663e-09
-2.84653e-06
7.58215e-06
-1.13108e-09
-5.10483e-06
9.18358e-06
5.38953e-11
-7.53122e-06
9.7953e-06
1.71244e-10
-1.00554e-05
1.00266e-05
1.69787e-11
-1.26523e-05
1.00839e-05
-4.98848e-11
-1.52894e-05
9.97147e-06
-1.27592e-10
-1.78915e-05
9.59558e-06
-2.35061e-10
-2.0311e-05
8.81484e-06
-4.50516e-10
7.50826e-06
-4.87372e-10
-2.23188e-05
-9.57449e-07
4.73986e-06
1.5042e-09
-2.81607e-06
9.44187e-06
-1.09091e-09
-5.06958e-06
1.1437e-05
9.65956e-11
-7.52059e-06
1.22461e-05
2.29258e-10
-1.01207e-05
1.26266e-05
8.95257e-11
-1.28709e-05
1.28341e-05
2.54676e-11
-1.57624e-05
1.28631e-05
-5.43804e-11
-1.87228e-05
1.25561e-05
-1.65068e-10
-2.15446e-05
1.16372e-05
-6.14568e-10
9.78647e-06
-9.83858e-10
-2.38218e-05
-9.26138e-07
5.66452e-06
1.47988e-09
-2.73127e-06
1.1248e-05
-1.02518e-09
-4.93742e-06
1.3643e-05
1.34383e-10
-7.37202e-06
1.46804e-05
2.83705e-10
-1.00168e-05
1.52711e-05
1.74472e-10
-1.29141e-05
1.57312e-05
1.2585e-10
-1.61045e-05
1.60534e-05
6.60636e-11
-1.95457e-05
1.59973e-05
4.11974e-11
-2.29657e-05
1.5058e-05
-8.36881e-10
1.2475e-05
-2.25684e-09
-2.5652e-05
-8.72895e-07
6.536e-06
1.41483e-09
-2.58059e-06
1.29567e-05
-9.36464e-10
-4.68284e-06
1.57451e-05
1.69518e-10
-7.03451e-06
1.70317e-05
3.38748e-10
-9.65043e-06
1.78868e-05
2.77045e-10
-1.26258e-05
1.87063e-05
2.40371e-10
-1.60792e-05
1.95067e-05
1.59171e-10
-2.00458e-05
1.99637e-05
2.4023e-10
-2.4217e-05
1.92311e-05
-1.8697e-09
1.56756e-05
-7.51015e-09
-2.74101e-05
-7.92875e-07
7.32759e-06
1.28662e-09
-2.34996e-06
1.45146e-05
-8.48047e-10
-4.27325e-06
1.76682e-05
1.7892e-10
-6.43774e-06
1.91958e-05
3.86721e-10
-8.87748e-06
2.03261e-05
4.50962e-10
-1.17257e-05
2.1554e-05
5.98939e-10
-1.51768e-05
2.29569e-05
8.87164e-10
-1.93727e-05
2.41573e-05
2.32592e-09
-2.40496e-05
2.39077e-05
2.85355e-10
1.90902e-05
-1.56036e-08
-2.74485e-05
-6.85779e-07
1.07458e-09
8.0123e-06
-2.03774e-06
-7.984e-10
1.58674e-05
-3.69753e-06
9.62499e-11
1.93279e-05
-5.53866e-06
2.95569e-10
2.10367e-05
-7.56911e-06
4.6018e-10
2.23561e-05
-9.8787e-06
9.04173e-10
2.38626e-05
-1.26112e-05
2.12497e-09
2.56873e-05
-1.58589e-05
7.65996e-09
2.73973e-05
-1.92853e-05
1.55446e-08
2.73186e-05
-1.13964e-09
-2.13721e-05
2.11781e-05
-2.46973e-07
2.46968e-07
-9.47699e-07
6.99069e-07
-1.84292e-06
8.93734e-07
-2.79503e-06
9.50677e-07
-3.75448e-06
9.57966e-07
-4.70052e-06
9.44545e-07
-5.6162e-06
9.14207e-07
-6.48027e-06
8.62657e-07
-7.26663e-06
7.85075e-07
6.81207e-07
-7.94893e-06
-7.02245e-07
9.5086e-07
-2.12274e-06
2.11956e-06
-3.85336e-06
2.62533e-06
-5.69523e-06
2.79374e-06
-7.5622e-06
2.82607e-06
-9.41144e-06
2.79488e-06
-1.12069e-05
2.71067e-06
-1.2905e-05
2.56172e-06
-1.44532e-05
2.33414e-06
2.02685e-06
-1.57981e-05
-9.00647e-07
1.85299e-06
-2.63704e-06
3.85498e-06
-4.72008e-06
4.70838e-06
-6.933e-06
5.00677e-06
-9.18539e-06
5.07843e-06
-1.14312e-05
5.04061e-06
-1.36278e-05
4.90718e-06
-1.57186e-05
4.6524e-06
-1.7629e-05
4.24433e-06
3.67388e-06
-1.92761e-05
-9.59923e-07
2.81436e-06
-2.81119e-06
5.70505e-06
-5.02787e-06
6.92499e-06
-7.38984e-06
7.36875e-06
-9.81352e-06
7.50197e-06
-1.22593e-05
7.48616e-06
-1.46854e-05
7.33306e-06
-1.70247e-05
6.99138e-06
-1.91729e-05
6.39213e-06
5.49734e-06
-2.09966e-05
-9.68059e-07
3.78392e-06
-2.84615e-06
7.58201e-06
-5.10452e-06
9.18341e-06
-7.53072e-06
9.79512e-06
-1.0055e-05
1.00263e-05
-1.26522e-05
1.00833e-05
-1.52896e-05
9.97033e-06
-1.78919e-05
9.59345e-06
-2.03107e-05
8.8105e-06
7.50331e-06
-2.23172e-05
-9.54448e-07
4.73987e-06
-2.81553e-06
9.442e-06
-5.06903e-06
1.1437e-05
-7.51979e-06
1.22461e-05
-1.012e-05
1.26265e-05
-1.28705e-05
1.28338e-05
-1.57625e-05
1.28624e-05
-1.87235e-05
1.25542e-05
-2.15446e-05
1.1631e-05
9.77687e-06
-2.38192e-05
-9.23171e-07
5.66452e-06
-2.73055e-06
1.12484e-05
-4.93656e-06
1.36432e-05
-7.37075e-06
1.46806e-05
-1.00155e-05
1.52715e-05
-1.29131e-05
1.57315e-05
-1.61042e-05
1.60535e-05
-1.95467e-05
1.59968e-05
-2.29666e-05
1.505e-05
1.24554e-05
-2.56474e-05
-8.70025e-07
6.53596e-06
-2.57969e-06
1.29571e-05
-4.68159e-06
1.57452e-05
-7.03259e-06
1.70319e-05
-9.64815e-06
1.78873e-05
-1.26235e-05
1.87071e-05
-1.60779e-05
1.95081e-05
-2.00474e-05
1.99666e-05
-2.42232e-05
1.92238e-05
1.56286e-05
-2.74038e-05
-7.90216e-07
7.32746e-06
-2.34896e-06
1.4515e-05
-4.27164e-06
1.76681e-05
-6.43493e-06
1.91956e-05
-8.87319e-06
2.0326e-05
-1.17196e-05
2.15541e-05
-1.51684e-05
2.29578e-05
-1.93635e-05
2.4164e-05
-2.40612e-05
2.39218e-05
1.90213e-05
-2.74696e-05
-6.83548e-07
8.01209e-06
-2.03701e-06
1.58676e-05
-3.69628e-06
1.93275e-05
-5.53613e-06
2.10357e-05
-7.56425e-06
2.23546e-05
-9.86943e-06
2.38602e-05
-1.25923e-05
2.56828e-05
-1.58117e-05
2.7391e-05
-1.92145e-05
2.73402e-05
-2.14942e-05
2.12999e-05
-8.50995e-06
5.60205e-07
8.13526e-10
-8.95014e-06
4.39622e-07
5.71005e-10
-9.28289e-06
3.32366e-07
3.86279e-10
-9.52697e-06
2.43826e-07
2.53259e-10
-9.70148e-06
1.7435e-07
1.62203e-10
-9.82321e-06
1.21621e-07
1.0211e-10
-9.90555e-06
8.22829e-08
6.30627e-11
-9.95846e-06
5.28714e-08
3.75725e-11
-9.98869e-06
3.0211e-08
2.03127e-11
-1.00002e-05
1.14844e-08
7.40755e-12
-9.99431e-06
-5.86815e-09
-3.91787e-12
-9.96998e-06
-2.43181e-08
-1.62982e-11
-9.92348e-06
-4.64632e-08
-3.24833e-11
-9.84822e-06
-7.52058e-08
-5.5995e-11
-9.73425e-06
-1.13874e-07
-9.1926e-11
-9.56794e-06
-1.66168e-07
-1.47939e-10
-9.33194e-06
-2.35764e-07
-2.3443e-10
-9.00624e-06
-3.25333e-07
-3.63283e-10
-8.57091e-06
-4.34783e-07
-5.46664e-10
-5.58599e-07
-7.93864e-10
-8.01152e-06
-1.69044e-05
1.66727e-06
-7.93838e-10
-1.77734e-05
1.30944e-06
-7.39223e-10
-1.84323e-05
9.91906e-07
-6.37238e-10
-1.8918e-05
7.29983e-07
-5.21448e-10
-1.92673e-05
5.24131e-07
-4.07328e-10
-1.95127e-05
3.67248e-07
-3.04442e-10
-1.96796e-05
2.49404e-07
-2.17156e-10
-1.9787e-05
1.60463e-07
-1.44968e-10
-1.98479e-05
9.11516e-08
-8.46772e-11
-1.98696e-05
3.32345e-08
-3.20774e-11
-1.98547e-05
-2.07804e-08
1.77541e-11
-1.98009e-05
-7.81435e-08
7.00245e-11
-1.97011e-05
-1.46435e-07
1.29832e-10
-1.95424e-05
-2.3409e-07
2.0216e-10
-1.93058e-05
-3.5073e-07
2.90759e-10
-1.89654e-05
-5.07033e-07
3.96608e-10
-1.8488e-05
-7.1365e-07
5.15871e-10
-1.78355e-05
-9.78462e-07
6.39318e-10
-1.69695e-05
-1.30153e-06
7.4924e-10
-1.66705e-06
8.05393e-10
-1.58619e-05
-2.06031e-05
2.99432e-06
-1.31471e-10
-2.16187e-05
2.32535e-06
-2.28721e-10
-2.237e-05
1.74341e-06
-2.37764e-10
-2.29121e-05
1.27232e-06
-2.17454e-10
-2.32956e-05
9.07747e-07
-1.80909e-10
-2.35613e-05
6.33133e-07
-1.39685e-10
-2.37403e-05
4.28519e-07
-1.01516e-10
-2.38546e-05
2.74839e-07
-6.87387e-11
-2.39188e-05
1.55333e-07
-4.0837e-11
-2.3941e-05
5.54847e-08
-1.64614e-11
-2.39241e-05
-3.77136e-08
6.47477e-12
-2.38655e-05
-1.3678e-07
3.04515e-11
-2.37571e-05
-2.54846e-07
5.77358e-11
-2.35846e-05
-4.06714e-07
9.02571e-11
-2.33258e-05
-6.09661e-07
1.28946e-10
-2.29494e-05
-8.83584e-07
1.72235e-10
-2.24137e-05
-1.24961e-06
2.13249e-10
-2.16667e-05
-1.72565e-06
2.42138e-10
-2.06515e-05
-2.31703e-06
2.44368e-10
-2.99907e-06
1.47469e-10
-1.93196e-05
-2.23966e-05
4.39446e-06
-1.55727e-10
-2.34044e-05
3.33343e-06
-2.79094e-10
-2.41064e-05
2.44565e-06
-2.56525e-10
-2.45866e-05
1.75268e-06
-2.19372e-10
-2.49112e-05
1.23253e-06
-1.71412e-10
-2.51281e-05
8.50202e-07
-1.24215e-10
-2.52702e-05
5.70693e-07
-8.55278e-11
-2.53591e-05
3.63751e-07
-5.54741e-11
-2.54082e-05
2.0448e-07
-3.18201e-11
-2.54249e-05
7.22587e-08
-1.22834e-11
-2.54118e-05
-5.08856e-08
5.61111e-12
-2.53665e-05
-1.8207e-07
2.45534e-11
-2.5282e-05
-3.39397e-07
4.71562e-11
-2.5145e-05
-5.43801e-07
7.61118e-11
-2.4934e-05
-8.20805e-07
1.14259e-10
-2.46159e-05
-1.20177e-06
1.62749e-10
-2.41423e-05
-1.72346e-06
2.15259e-10
-2.3445e-05
-2.42317e-06
2.65202e-10
-2.24372e-05
-3.32517e-06
3.11658e-10
-4.40704e-06
1.95211e-10
-2.10294e-05
-2.37192e-05
5.7969e-06
-4.70922e-10
-2.46094e-05
4.2242e-06
-5.35281e-10
-2.51541e-05
2.99072e-06
-3.91367e-10
-2.5483e-05
2.08195e-06
-2.98196e-10
-2.56816e-05
1.43127e-06
-2.10307e-10
-2.58018e-05
9.70565e-07
-1.37766e-10
-2.58744e-05
6.43378e-07
-8.70758e-11
-2.59171e-05
4.06472e-07
-5.26338e-11
-2.59397e-05
2.27163e-07
-2.85735e-11
-2.59474e-05
7.99543e-08
-1.05373e-11
-2.59418e-05
-5.65338e-08
5.18423e-12
-2.59215e-05
-2.0237e-07
2.21093e-11
-2.58819e-05
-3.79021e-07
4.39586e-11
-2.58135e-05
-6.12232e-07
7.51699e-11
-2.56992e-05
-9.35295e-07
1.22307e-10
-2.55084e-05
-1.39277e-06
1.92499e-10
-2.51885e-05
-2.04364e-06
2.80321e-10
-2.4652e-05
-2.96001e-06
3.86854e-10
-2.37641e-05
-4.21362e-06
5.76197e-10
-5.81965e-06
5.38802e-10
-2.23521e-05
-2.51445e-05
7.12344e-06
-1.17605e-09
-2.57791e-05
4.85969e-06
-9.30963e-10
-2.60439e-05
3.25605e-06
-5.12215e-10
-2.61334e-05
2.17182e-06
-3.49161e-10
-2.61481e-05
1.44613e-06
-2.17629e-10
-2.61356e-05
9.58205e-07
-1.22091e-10
-2.6117e-05
6.24876e-07
-6.67178e-11
-2.6101e-05
3.90479e-07
-3.52996e-11
-2.60907e-05
2.1691e-07
-1.70336e-11
-2.60873e-05
7.65197e-08
-5.8124e-12
-2.6091e-05
-5.28071e-08
2.75341e-12
-2.61019e-05
-1.91445e-07
1.24458e-11
-2.61195e-05
-3.61485e-07
2.71781e-11
-2.61412e-05
-5.90621e-07
5.24834e-11
-2.61592e-05
-9.17316e-07
9.93568e-11
-2.61537e-05
-1.39854e-06
1.84683e-10
-2.60769e-05
-2.12071e-06
3.01573e-10
-2.58262e-05
-3.21114e-06
4.65849e-10
-2.51994e-05
-4.84139e-06
9.71019e-10
-7.15822e-06
1.31283e-09
-2.38622e-05
-2.67097e-05
8.18891e-06
-3.16305e-09
-2.68565e-05
5.00841e-06
-1.85593e-09
-2.66819e-05
3.08221e-06
-7.55085e-10
-2.6443e-05
1.93332e-06
-4.51852e-10
-2.62298e-05
1.23318e-06
-2.39902e-10
-2.60651e-05
7.93587e-07
-1.07989e-10
-2.59477e-05
5.07546e-07
-4.70884e-11
-2.58705e-05
3.13308e-07
-1.92055e-11
-2.58267e-05
1.73109e-07
-6.35184e-12
-2.58119e-05
6.16843e-08
-6.10351e-13
-2.58246e-05
-4.01119e-08
2.65315e-12
-2.58665e-05
-1.49526e-07
6.9369e-12
-2.59425e-05
-2.85521e-07
1.61025e-11
-2.60601e-05
-4.7305e-07
3.62839e-11
-2.62278e-05
-7.49682e-07
8.42958e-11
-2.64486e-05
-1.1779e-06
1.96548e-10
-2.67015e-05
-1.86818e-06
3.66628e-10
-2.68953e-05
-3.01794e-06
6.28681e-10
-2.67635e-05
-4.97515e-06
1.87472e-09
-8.23654e-06
3.42447e-09
-2.56886e-05
-2.77062e-05
8.4972e-06
-5.94396e-09
-2.69963e-05
4.30075e-06
-2.15453e-09
-2.62245e-05
2.31075e-06
-3.54316e-10
-2.56158e-05
1.32486e-06
-2.33216e-10
-2.51807e-05
7.98129e-07
-7.58671e-11
-2.48832e-05
4.96061e-07
1.35001e-11
-2.46864e-05
3.10718e-07
2.87863e-11
-2.45627e-05
1.89598e-07
2.56241e-11
-2.44941e-05
1.0448e-07
1.87567e-11
-2.44705e-05
3.80851e-08
1.05622e-11
-2.44887e-05
-2.19585e-08
2.25952e-12
-2.45517e-05
-8.65101e-08
-5.74186e-12
-2.46696e-05
-1.67633e-07
-1.31052e-11
-2.48606e-05
-2.81962e-07
-1.96292e-11
-2.51535e-05
-4.56839e-07
-1.22887e-11
-2.5587e-05
-7.44376e-07
6.18293e-11
-2.62004e-05
-1.25495e-06
1.54755e-10
-2.69853e-05
-2.23315e-06
1.30077e-10
-2.77116e-05
-4.25091e-06
2.00756e-09
-8.55576e-06
6.08412e-09
-2.73985e-05
-2.56898e-05
6.72678e-06
-9.35575e-09
-2.37621e-05
2.3715e-06
1.52152e-09
-2.24602e-05
1.00639e-06
2.46352e-09
-2.16356e-05
4.99321e-07
9.7682e-10
-2.11153e-05
2.77196e-07
5.66522e-10
-2.0785e-05
1.65388e-07
3.93214e-10
-2.05762e-05
1.01674e-07
2.46208e-10
-2.04484e-05
6.1631e-08
1.48593e-10
-2.03781e-05
3.41615e-08
8.39137e-11
-2.03532e-05
1.31326e-08
3.46105e-11
-2.03696e-05
-5.62258e-09
-9.15935e-12
-2.04304e-05
-2.56353e-08
-5.57036e-11
-2.05471e-05
-5.0826e-08
-1.15001e-10
-2.07421e-05
-8.67565e-08
-2.06086e-10
-2.1055e-05
-1.43556e-07
-3.44867e-10
-2.15543e-05
-2.4453e-07
-5.03051e-10
-2.2356e-05
-4.52304e-07
-9.55553e-10
-2.36379e-05
-9.48505e-07
-2.73519e-09
-2.55575e-05
-2.32932e-06
-2.0593e-09
-6.77628e-06
9.25516e-09
-2.73462e-05
-1.47328e-05
-3.46395e-08
-1.23576e-05
-3.7412e-09
-1.13512e-05
6.57112e-11
-1.0851e-05
-9.32539e-10
-1.05732e-05
-6.14817e-10
-1.04075e-05
-2.95347e-10
-1.03057e-05
-1.65291e-10
-1.02439e-05
-9.54292e-11
-1.02097e-05
-4.85618e-11
-1.01966e-05
-1.45592e-11
-1.02022e-05
1.52171e-11
-1.02279e-05
4.92705e-11
-1.02788e-05
9.60996e-11
-1.03657e-05
1.64708e-10
-1.05096e-05
2.94633e-10
-1.07548e-05
6.336e-10
-1.1208e-05
9.57046e-10
-1.21562e-05
-3.33925e-10
-1.44887e-05
3.2078e-09
3.6859e-08
-2.13019e-05
-8.51017e-06
5.61802e-07
2.91053e-14
-8.95031e-06
4.40713e-07
-1.07553e-13
-9.28305e-06
3.33123e-07
-1.34747e-13
-9.52715e-06
2.4435e-07
-3.37665e-14
-9.7017e-06
1.74713e-07
1.14508e-13
-9.82346e-06
1.21871e-07
1.86982e-13
-9.90585e-06
8.2452e-08
2.13775e-13
-9.9588e-06
5.29805e-08
1.96364e-13
-9.98905e-06
3.02732e-08
1.70534e-13
-1.00005e-05
1.15069e-08
1.08966e-13
-9.99467e-06
-5.88245e-09
3.23043e-14
-9.97031e-06
-2.43718e-08
-5.47712e-14
-9.92378e-06
-4.65628e-08
-4.23586e-14
-9.84848e-06
-7.53638e-08
2.60389e-14
-9.73446e-06
-1.1411e-07
6.58752e-14
-9.56809e-06
-1.66512e-07
5.63037e-14
-9.33207e-06
-2.36263e-07
-1.93225e-16
-9.00637e-06
-3.26054e-07
-3.3067e-14
-8.57109e-06
-4.35829e-07
5.73844e-14
-5.60156e-07
2.59024e-13
-8.01173e-06
-1.69041e-05
1.66719e-06
-7.01744e-14
-1.77731e-05
1.30899e-06
-1.36952e-13
-1.84321e-05
9.91458e-07
-5.77217e-14
-1.89179e-05
7.29629e-07
1.02098e-13
-1.92674e-05
5.23885e-07
2.28403e-13
-1.9513e-05
3.67095e-07
2.40622e-13
-1.968e-05
2.49316e-07
2.21466e-13
-1.97876e-05
1.60414e-07
1.69296e-13
-1.98486e-05
9.11257e-08
1.38538e-13
-1.98703e-05
3.32206e-08
6.25858e-14
-1.98554e-05
-2.07864e-08
-6.58011e-14
-1.98015e-05
-7.8139e-08
-1.35776e-13
-1.97016e-05
-1.46411e-07
-9.47654e-14
-1.95427e-05
-2.34028e-07
-4.24326e-16
-1.93059e-05
-3.50605e-07
3.93957e-14
-1.89652e-05
-5.06811e-07
-1.42601e-14
-1.84877e-05
-7.13307e-07
-1.06262e-13
-1.78351e-05
-9.77997e-07
-1.21386e-13
-1.69691e-05
-1.30103e-06
-3.53975e-15
-1.66691e-06
1.55679e-13
-1.58616e-05
-2.06034e-05
2.99375e-06
-8.00807e-14
-2.16188e-05
2.32423e-06
-6.48216e-14
-2.23701e-05
1.74247e-06
3.89422e-14
-2.29123e-05
1.27165e-06
1.60673e-13
-2.32959e-05
9.07317e-07
2.43007e-13
-2.35619e-05
6.32886e-07
2.01346e-13
-2.3741e-05
4.28388e-07
1.61365e-13
-2.38555e-05
2.74773e-07
9.76289e-14
-2.39197e-05
1.55299e-07
9.37445e-14
-2.39419e-05
5.5463e-08
6.6564e-14
-2.3925e-05
-3.773e-08
-4.99621e-14
-2.38663e-05
-1.36787e-07
-1.19764e-13
-2.37578e-05
-2.54828e-07
-6.61895e-14
-2.35851e-05
-4.06638e-07
-1.63766e-14
-2.33261e-05
-6.09475e-07
-2.78459e-14
-2.29496e-05
-8.83217e-07
-7.98499e-14
-2.24137e-05
-1.24899e-06
-1.41302e-13
-2.16667e-05
-1.72471e-06
-1.38018e-13
-2.06516e-05
-2.31584e-06
-6.09085e-14
-2.99841e-06
-4.10897e-15
-1.932e-05
-2.23971e-05
4.39301e-06
-7.91846e-14
-2.34045e-05
3.33132e-06
-5.94257e-14
-2.41064e-05
2.44418e-06
5.36264e-14
-2.45868e-05
1.75174e-06
1.22023e-13
-2.49116e-05
1.23198e-06
1.9078e-13
-2.51287e-05
8.49921e-07
1.57302e-13
-2.5271e-05
5.70565e-07
1.41679e-13
-2.536e-05
3.63697e-07
9.04262e-14
-2.54092e-05
2.04455e-07
1.01645e-13
-2.5426e-05
7.22374e-08
6.57164e-14
-2.54128e-05
-5.09121e-08
-4.91643e-14
-2.53674e-05
-1.82097e-07
-1.27893e-13
-2.52828e-05
-3.39405e-07
-1.42467e-13
-2.51456e-05
-5.43748e-07
-1.34803e-13
-2.49344e-05
-8.20614e-07
-1.247e-13
-2.46161e-05
-1.20132e-06
-1.28387e-13
-2.41423e-05
-1.72262e-06
-1.27802e-13
-2.3445e-05
-2.42174e-06
-1.11683e-13
-2.24376e-05
-3.32294e-06
-1.21857e-13
-4.40543e-06
-1.53271e-13
-2.10303e-05
-2.37195e-05
5.79318e-06
-1.21448e-13
-2.4609e-05
4.22031e-06
-2.09254e-14
-2.51538e-05
2.98858e-06
8.99814e-14
-2.54831e-05
2.08075e-06
8.82786e-14
-2.5682e-05
1.43065e-06
7.35642e-14
-2.58025e-05
9.70294e-07
4.52904e-14
-2.58753e-05
6.4328e-07
9.03695e-14
-2.59181e-05
4.06446e-07
1.34445e-13
-2.59408e-05
2.27154e-07
1.69928e-13
-2.59485e-05
7.99377e-08
1.36318e-13
-2.59429e-05
-5.65684e-08
-1.88708e-14
-2.59225e-05
-2.02419e-07
-1.47865e-13
-2.58828e-05
-3.79065e-07
-1.90532e-13
-2.58143e-05
-6.12226e-07
-1.75574e-13
-2.56996e-05
-9.35144e-07
-1.28349e-13
-2.55084e-05
-1.39231e-06
-6.82659e-14
-2.51881e-05
-2.04263e-06
-3.5122e-14
-2.46515e-05
-2.95799e-06
-9.55971e-14
-2.37643e-05
-4.20958e-06
-2.13878e-13
-5.81563e-06
-2.45254e-13
-2.23535e-05
-2.51442e-05
7.11438e-06
-2.74034e-14
-2.57778e-05
4.85299e-06
7.97261e-14
-2.60431e-05
3.25342e-06
1.5576e-13
-2.61333e-05
2.17061e-06
1.26773e-13
-2.61485e-05
1.44562e-06
6.64232e-14
-2.61364e-05
9.58058e-07
8.08349e-14
-2.61181e-05
6.24872e-07
1.31843e-13
-2.61022e-05
3.9051e-07
1.62617e-13
-2.6092e-05
2.16932e-07
1.39461e-13
-2.60886e-05
7.65137e-08
5.53453e-14
-2.60923e-05
-5.2849e-08
-4.83521e-14
-2.61032e-05
-1.91522e-07
-1.02818e-13
-2.61206e-05
-3.61587e-07
-1.1675e-13
-2.61421e-05
-5.90715e-07
-1.15728e-13
-2.61598e-05
-9.1731e-07
-9.13766e-14
-2.61537e-05
-1.39823e-06
-5.02212e-14
-2.60762e-05
-2.11982e-06
-5.23703e-14
-2.58249e-05
-3.20886e-06
-1.48771e-13
-2.51989e-05
-4.83462e-06
-2.52378e-13
-7.1486e-06
-2.09183e-13
-2.38646e-05
-2.67076e-05
8.16678e-06
1.87551e-13
-2.68537e-05
4.99727e-06
1.45139e-13
-2.66806e-05
3.07961e-06
9.2902e-14
-2.6443e-05
1.93247e-06
8.02892e-14
-2.62305e-05
1.23294e-06
3.62741e-14
-2.60662e-05
7.93633e-07
5.2283e-14
-2.5949e-05
5.07647e-07
1.25711e-13
-2.58719e-05
3.1339e-07
1.60769e-13
-2.58282e-05
1.73154e-07
1.56653e-13
-2.58133e-05
6.1688e-08
1.16146e-13
-2.5826e-05
-4.01526e-08
8.64432e-14
-2.58679e-05
-1.49614e-07
6.50504e-14
-2.59438e-05
-2.85659e-07
1.71079e-14
-2.60613e-05
-4.73234e-07
-1.56692e-14
-2.62287e-05
-7.49858e-07
1.25166e-14
-2.64488e-05
-1.17788e-06
1.94397e-14
-2.67005e-05
-1.86776e-06
-4.62698e-14
-2.68927e-05
-3.01604e-06
-1.40663e-13
-2.67612e-05
-4.96424e-06
-2.26101e-13
-8.21336e-06
-1.42785e-13
-2.5693e-05
-2.77009e-05
8.45169e-06
2.73387e-13
-2.69934e-05
4.28755e-06
1.60314e-13
-2.62243e-05
2.31019e-06
3.52601e-14
-2.5617e-05
1.32491e-06
-1.82495e-14
-2.51824e-05
7.98262e-07
-1.03849e-13
-2.4885e-05
4.96261e-07
-1.24249e-13
-2.46882e-05
3.10868e-07
-3.69277e-14
-2.45645e-05
1.89688e-07
5.48758e-14
-2.44958e-05
1.04525e-07
1.27895e-13
-2.44722e-05
3.80943e-08
1.95175e-13
-2.44904e-05
-2.19832e-08
2.4011e-13
-2.45534e-05
-8.65724e-08
2.04921e-13
-2.46713e-05
-1.67744e-07
1.35008e-13
-2.48625e-05
-2.82143e-07
1.01849e-13
-2.51552e-05
-4.57085e-07
8.70927e-14
-2.55885e-05
-7.44588e-07
4.83376e-14
-2.62008e-05
-1.25524e-06
-1.91702e-14
-2.69834e-05
-2.23334e-06
-9.18519e-14
-2.7707e-05
-4.23864e-06
-2.03592e-13
-8.50949e-06
-1.64319e-13
-2.74048e-05
-2.56811e-05
6.67487e-06
3.02215e-13
-2.37655e-05
2.37347e-06
1.27402e-13
-2.24642e-05
1.01134e-06
-1.42062e-13
-2.16393e-05
5.0099e-07
-2.63264e-13
-2.11183e-05
2.77868e-07
-3.03297e-13
-2.07875e-05
1.65813e-07
-2.47648e-13
-2.05783e-05
1.01947e-07
-1.62092e-13
-2.04502e-05
6.17958e-08
-5.07004e-14
-2.03799e-05
3.42518e-08
9.03669e-14
-2.03549e-05
1.31654e-08
2.43174e-13
-2.03713e-05
-5.63955e-09
3.13016e-13
-2.04322e-05
-2.57064e-08
2.92599e-13
-2.05491e-05
-5.09625e-08
2.38441e-13
-2.07445e-05
-8.6983e-08
1.74111e-13
-2.1058e-05
-1.43899e-07
1.26375e-13
-2.1558e-05
-2.45051e-07
9.36672e-14
-2.23605e-05
-4.53741e-07
9.45117e-14
-2.36431e-05
-9.53407e-07
9.20308e-14
-2.55518e-05
-2.33202e-06
-1.02136e-13
-6.72745e-06
-1.84625e-13
-2.73246e-05
-1.47319e-05
-3.24557e-14
-1.23622e-05
-1.76213e-13
-1.13508e-05
-3.49647e-13
-1.08507e-05
-3.88595e-13
-1.05734e-05
-3.70615e-13
-1.04079e-05
-2.85779e-13
-1.03061e-05
-1.5583e-13
-1.02444e-05
-7.32276e-15
-1.02102e-05
1.46988e-13
-1.01971e-05
2.60689e-13
-1.02027e-05
3.05317e-13
-1.02284e-05
2.79346e-13
-1.02792e-05
1.91985e-13
-1.03661e-05
1.23935e-13
-1.05097e-05
1.31746e-13
-1.07541e-05
1.30184e-13
-1.12069e-05
1.28699e-13
-1.21606e-05
4.55891e-14
-1.44894e-05
-1.96191e-13
-2.92782e-13
-2.118e-05
-8.51017e-06
5.61802e-07
-8.13376e-10
-8.95031e-06
4.40713e-07
-5.71078e-10
-9.28305e-06
3.33123e-07
-3.86439e-10
-9.52714e-06
2.4435e-07
-2.53365e-10
-9.70169e-06
1.74713e-07
-1.62129e-10
-9.82346e-06
1.21871e-07
-1.01937e-10
-9.90585e-06
8.24521e-08
-6.28968e-11
-9.95879e-06
5.29805e-08
-3.73931e-11
-9.98905e-06
3.02732e-08
-2.00629e-11
-1.00005e-05
1.15069e-08
-7.22912e-12
-9.99467e-06
-5.88256e-09
4.03624e-12
-9.97031e-06
-2.43718e-08
1.63638e-11
-9.92378e-06
-4.65629e-08
3.24452e-11
-9.84847e-06
-7.53638e-08
5.59033e-11
-9.73446e-06
-1.1411e-07
9.19203e-11
-9.56809e-06
-1.66512e-07
1.47971e-10
-9.33206e-06
-2.36263e-07
2.34388e-10
-9.00637e-06
-3.26054e-07
3.63157e-10
-8.57109e-06
-4.35829e-07
5.46565e-10
-5.60156e-07
7.9395e-10
-8.01173e-06
-1.69041e-05
1.66719e-06
7.93809e-10
-1.77731e-05
1.30899e-06
7.39061e-10
-1.84321e-05
9.91458e-07
6.37086e-10
-1.89179e-05
7.29629e-07
5.21435e-10
-1.92674e-05
5.23885e-07
4.07527e-10
-1.9513e-05