/*--------------------------------*- C++ -*----------------------------------*\
| =========                 |                                                 |
| \\      /  F ield         | OpenFOAM: The Open Source CFD Toolbox           |
|  \\    /   O peration     | Version:  2.4.0                                 |
|   \\  /    A nd           | Web:      www.OpenFOAM.org                      |
|    \\/     M anipulation  |                                                 |
\*---------------------------------------------------------------------------*/
FoamFile
{
    version     2.0;
    format      ascii;
    class       volVectorField;
    location    "0.1";
    object      U;
}
// * * * * * * * * * * * * * * * * * * * * * * * * * * * * * * * * * * * * * //

dimensions      [0 1 -1 0 0 0 0];

internalField   nonuniform List<vector> 
4800
(
(-0.000121242 0.000120744 2.38472e-09)
(-0.000846457 0.000429024 7.31067e-05)
(-0.002192 0.000562315 4.15654e-05)
(-0.00370203 0.000597813 -9.84476e-05)
(-0.00524083 0.000600221 -0.000345705)
(-0.0067706 0.000590347 -0.000699603)
(-0.00826595 0.000570595 -0.00115817)
(-0.00969714 0.000537903 -0.00171811)
(-0.0110257 0.000488962 -0.00237382)
(-0.0122074 0.000423479 -0.00311625)
(-0.000431907 0.000848146 -7.33182e-05)
(-0.00206742 0.00206154 -2.00196e-07)
(-0.00470315 0.00258889 -4.82238e-05)
(-0.00762116 0.00275463 -0.000205891)
(-0.0106064 0.00278026 -0.000470377)
(-0.0135908 0.00274376 -0.000843852)
(-0.01652 0.00265642 -0.00132533)
(-0.0193317 0.00250697 -0.00191156)
(-0.0219481 0.0022825 -0.00259675)
(-0.024279 0.00198281 -0.00337181)
(-0.000567828 0.00220194 -4.06577e-05)
(-0.00260422 0.00470089 4.89426e-05)
(-0.00579424 0.00577447 8.31472e-07)
(-0.00929908 0.00614069 -0.00015903)
(-0.0128905 0.00621734 -0.000424813)
(-0.0165022 0.00615545 -0.000799349)
(-0.0200732 0.00597604 -0.00128233)
(-0.0235268 0.00565236 -0.00187124)
(-0.0267575 0.00515243 -0.00256101)
(-0.0296308 0.00447192 -0.00334311)
(-0.000604858 0.00372516 0.000103006)
(-0.00277603 0.00762952 0.000210502)
(-0.00617249 0.00928237 0.000164585)
(-0.00990388 0.00986916 4.80813e-06)
(-0.013749 0.0100226 -0.000261596)
(-0.017656 0.00996571 -0.000638125)
(-0.021572 0.0097212 -0.00112567)
(-0.0254151 0.0092326 -0.00172322)
(-0.0290507 0.00842849 -0.0024273)
(-0.032275 0.00728141 -0.00323072)
(-0.000607662 0.00527969 0.000357135)
(-0.00280405 0.0106296 0.000482378)
(-0.00625504 0.0128818 0.000437958)
(-0.0100673 0.0137165 0.000279184)
(-0.0140389 0.0139921 1.30809e-05)
(-0.0181429 0.0140023 -0.000365193)
(-0.0223477 0.0137617 -0.000858681)
(-0.0265786 0.0131617 -0.00146917)
(-0.0306686 0.0120508 -0.00219623)
(-0.0342952 0.0103286 -0.00303638)
(-0.000597348 0.00682564 0.000721262)
(-0.00276739 0.0136307 0.000866885)
(-0.00619511 0.0165044 0.000823961)
(-0.0100159 0.0176296 0.000667843)
(-0.0140591 0.018098 0.000404412)
(-0.0183366 0.0182767 2.68114e-05)
(-0.0228606 0.0181646 -0.000471354)
(-0.0275894 0.0175691 -0.00109648)
(-0.0323356 0.0161847 -0.00185372)
(-0.0365802 0.0137192 -0.00274929)
(-0.000576496 0.0083362 0.00119322)
(-0.00267808 0.0165772 0.00136285)
(-0.00601529 0.020089 0.00132216)
(-0.00977474 0.0215558 0.00117166)
(-0.0138278 0.0223103 0.000915617)
(-0.0182417 0.0228037 0.00054475)
(-0.0231041 0.0230207 4.81516e-05)
(-0.0284564 0.0226487 -0.000587367)
(-0.0341446 0.0211023 -0.00137602)
(-0.0393578 0.0176357 -0.00234784)
(-0.000542095 0.00978056 0.00176924)
(-0.00252506 0.0194061 0.00196655)
(-0.00568917 0.0235589 0.00192959)
(-0.00928782 0.0254146 0.00178931)
(-0.0132367 0.0265565 0.00154838)
(-0.0176665 0.0275457 0.00119535)
(-0.0227682 0.0283769 0.000714241)
(-0.0287322 0.0285944 8.32065e-05)
(-0.0355646 0.0271511 -0.000723901)
(-0.0421 0.0223142 -0.00178982)
(-0.0004909 0.0111192 0.002443)
(-0.00229548 0.0220388 0.00267141)
(-0.00518437 0.0268086 0.00264036)
(-0.00848229 0.029072 0.00251641)
(-0.0121313 0.0306725 0.00230133)
(-0.0162998 0.0323215 0.0019829)
(-0.0212589 0.0340901 0.0015407)
(-0.0273576 0.0354213 0.000943101)
(-0.0349482 0.0346674 0.000151554)
(-0.0426635 0.0282901 -0.00102499)
(-0.000422773 0.0123071 0.00320448)
(-0.00198919 0.0243841 0.00346721)
(-0.00449571 0.0297026 0.00344463)
(-0.00732749 0.0323237 0.00334408)
(-0.0104032 0.0343366 0.00316857)
(-0.013833 0.0366199 0.00290968)
(-0.0178003 0.0393769 0.00255031)
(-0.0225467 0.0420333 0.00205971)
(-0.0286642 0.0424104 0.00141359)
(-0.0355109 0.0350591 0.000271363)
(-0.000116888 0.000116383 2.942e-09)
(-0.000842231 0.000423238 1.29151e-06)
(-0.00219253 0.000554516 1.15762e-06)
(-0.00370246 0.000589451 1.11842e-06)
(-0.00524097 0.000591876 1.15785e-06)
(-0.00677089 0.000582154 1.16438e-06)
(-0.00826648 0.00056272 1.14724e-06)
(-0.00969804 0.000530534 1.09983e-06)
(-0.0110271 0.000482274 1.00471e-06)
(-0.0122094 0.000417555 8.44973e-07)
(-0.000426134 0.000843879 -1.28418e-06)
(-0.00206352 0.00205756 5.44509e-09)
(-0.00470623 0.00258286 -7.58227e-07)
(-0.00762259 0.00274824 -9.27129e-07)
(-0.0106068 0.0027741 -8.81537e-07)
(-0.0135912 0.00273783 -8.5024e-07)
(-0.0165204 0.00265082 -7.99041e-07)
(-0.0193323 0.00250187 -7.28846e-07)
(-0.0219492 0.00227802 -6.56808e-07)
(-0.0242809 0.00197876 -6.1474e-07)
(-0.000560046 0.00220243 -1.15943e-06)
(-0.00259828 0.0047039 7.58844e-07)
(-0.00579714 0.00577726 -7.26447e-09)
(-0.00930017 0.00614369 -8.0296e-08)
(-0.0128908 0.00622064 2.22063e-08)
(-0.0165026 0.00615891 5.4399e-08)
(-0.0200737 0.00597963 8.36829e-08)
(-0.0235277 0.0056561 1.14597e-07)
(-0.0267593 0.00515628 1.31297e-07)
(-0.029634 0.00447522 7.60002e-08)
(-0.000596508 0.00372557 -1.12474e-06)
(-0.00276974 0.00763092 9.25993e-07)
(-0.00617561 0.00928341 6.24672e-08)
(-0.00990488 0.0098701 -1.05056e-08)
(-0.013749 0.0100236 1.09952e-07)
(-0.0176562 0.00996688 1.52879e-07)
(-0.0215722 0.00972264 1.93941e-07)
(-0.0254156 0.00923453 2.4193e-07)
(-0.0290526 0.00843125 2.96895e-07)
(-0.0322796 0.00728398 2.40441e-07)
(-0.000599327 0.00527983 -1.16495e-06)
(-0.00279799 0.01063 8.80606e-07)
(-0.00625847 0.012882 -4.12952e-08)
(-0.0100684 0.0137165 -1.32788e-07)
(-0.0140389 0.013992 -1.29291e-08)
(-0.0181428 0.0140022 3.89443e-08)
(-0.0223474 0.0137619 9.92638e-08)
(-0.0265781 0.0131625 1.82742e-07)
(-0.0306698 0.0120535 3.50248e-07)
(-0.0343019 0.0103319 3.78822e-07)
(-0.000589168 0.00682593 -1.17096e-06)
(-0.00276156 0.013631 8.49133e-07)
(-0.00619871 0.0165047 -7.45187e-08)
(-0.0100171 0.0176297 -1.77527e-07)
(-0.0140592 0.0180978 -6.88178e-08)
(-0.0183365 0.0182764 -1.92711e-08)
(-0.0228599 0.0181642 4.24728e-08)
(-0.0275873 0.0175694 1.28364e-07)
(-0.0323349 0.0161887 4.77925e-07)
(-0.0365912 0.0137266 7.65228e-07)
(-0.000568635 0.00833673 -1.15255e-06)
(-0.00267259 0.0165775 7.97392e-07)
(-0.00601903 0.0200894 -1.04074e-07)
(-0.00977632 0.021556 -2.19805e-07)
(-0.0138282 0.0223099 -1.34976e-07)
(-0.0182418 0.0228028 -9.76167e-08)
(-0.0231032 0.0230192 -5.13199e-08)
(-0.0284515 0.0226472 -3.18437e-08)
(-0.0341385 0.0211085 6.51232e-07)
(-0.0393772 0.017655 1.75575e-06)
(-0.00053474 0.00978147 -1.10258e-06)
(-0.00252007 0.0194067 7.27932e-07)
(-0.00569305 0.0235597 -1.31638e-07)
(-0.00928991 0.025415 -2.63103e-07)
(-0.0132378 0.026556 -2.15433e-07)
(-0.0176675 0.0275437 -1.87081e-07)
(-0.022768 0.0283719 -1.23562e-07)
(-0.0287222 0.0285837 -1.86265e-07)
(-0.0355425 0.0271453 1.45481e-06)
(-0.042131 0.022339 5.84173e-06)
(-0.000484223 0.0111207 -1.00289e-06)
(-0.00229108 0.0220399 6.59288e-07)
(-0.00518834 0.0268104 -1.39128e-07)
(-0.00848514 0.0290738 -3.0104e-07)
(-0.0121342 0.0306736 -3.5117e-07)
(-0.0163044 0.0323209 -4.65853e-07)
(-0.0212664 0.0340841 -6.89537e-07)
(-0.0273525 0.0353989 -1.80861e-06)
(-0.0349034 0.0346233 -2.21656e-07)
(-0.0426985 0.0282641 1.21365e-05)
(-0.000416859 0.012309 -8.37181e-07)
(-0.00198521 0.024386 6.21111e-07)
(-0.00449912 0.0297058 -7.49544e-08)
(-0.00733016 0.0323282 -2.30317e-07)
(-0.0104068 0.0343433 -3.581e-07)
(-0.0138409 0.0366311 -7.03065e-07)
(-0.0178213 0.0393969 -1.65261e-06)
(-0.0225717 0.0420651 -5.95777e-06)
(-0.0286327 0.0424459 -1.20902e-05)
(-0.0355521 0.0351057 8.86559e-07)
(-0.000116888 0.000116384 -3.38553e-09)
(-0.000842231 0.000423238 -1.29274e-06)
(-0.00219253 0.000554517 -1.15805e-06)
(-0.00370246 0.000589451 -1.11856e-06)
(-0.00524097 0.000591876 -1.15763e-06)
(-0.00677089 0.000582154 -1.16342e-06)
(-0.00826648 0.00056272 -1.14578e-06)
(-0.00969804 0.000530534 -1.09832e-06)
(-0.0110271 0.000482274 -1.00352e-06)
(-0.0122094 0.000417555 -8.44225e-07)
(-0.000426134 0.000843879 1.28527e-06)
(-0.00206352 0.00205756 -5.34848e-09)
(-0.00470623 0.00258286 7.58645e-07)
(-0.00762258 0.00274824 9.27438e-07)
(-0.0106068 0.0027741 8.82218e-07)
(-0.0135912 0.00273783 8.51357e-07)
(-0.0165204 0.00265082 8.0025e-07)
(-0.0193323 0.00250187 7.29787e-07)
(-0.0219492 0.00227802 6.57426e-07)
(-0.0242809 0.00197876 6.15e-07)
(-0.000560046 0.00220243 1.16015e-06)
(-0.00259828 0.0047039 -7.58673e-07)
(-0.00579713 0.00577726 7.67366e-09)
(-0.00930017 0.00614369 8.0577e-08)
(-0.0128908 0.00622064 -2.19504e-08)
(-0.0165026 0.0061589 -5.43219e-08)
(-0.0200737 0.00597962 -8.38231e-08)
(-0.0235277 0.0056561 -1.14804e-07)
(-0.0267593 0.00515628 -1.31404e-07)
(-0.029634 0.00447522 -7.61354e-08)
(-0.000596508 0.00372557 1.12561e-06)
(-0.00276973 0.00763092 -9.25104e-07)
(-0.00617561 0.00928341 -6.17302e-08)
(-0.00990488 0.0098701 1.07855e-08)
(-0.013749 0.0100236 -1.10106e-07)
(-0.0176562 0.00996688 -1.5337e-07)
(-0.0215722 0.00972264 -1.94506e-07)
(-0.0254156 0.00923453 -2.42304e-07)
(-0.0290526 0.00843124 -2.97082e-07)
(-0.0322796 0.00728398 -2.40654e-07)
(-0.000599327 0.00527983 1.16623e-06)
(-0.00279799 0.01063 -8.79355e-07)
(-0.00625847 0.012882 4.21608e-08)
(-0.0100684 0.0137165 1.33324e-07)
(-0.0140389 0.013992 1.32477e-08)
(-0.0181428 0.0140022 -3.8803e-08)
(-0.0223474 0.0137619 -9.92665e-08)
(-0.0265781 0.0131625 -1.82844e-07)
(-0.0306698 0.0120535 -3.50473e-07)
(-0.0343019 0.0103319 -3.79169e-07)
(-0.000589168 0.00682593 1.17214e-06)
(-0.00276156 0.013631 -8.48211e-07)
(-0.00619871 0.0165047 7.53426e-08)
(-0.0100171 0.0176297 1.78599e-07)
(-0.0140592 0.0180978 6.9973e-08)
(-0.0183365 0.0182764 2.00702e-08)
(-0.0228599 0.0181642 -4.21794e-08)
(-0.0275873 0.0175694 -1.28358e-07)
(-0.0323349 0.0161887 -4.78004e-07)
(-0.0365912 0.0137266 -7.65204e-07)
(-0.000568635 0.00833673 1.15288e-06)
(-0.00267259 0.0165775 -7.97433e-07)
(-0.00601903 0.0200894 1.04631e-07)
(-0.00977632 0.021556 2.21028e-07)
(-0.0138282 0.0223099 1.36091e-07)
(-0.0182418 0.0228028 9.80892e-08)
(-0.0231032 0.0230192 5.14755e-08)
(-0.0284515 0.0226472 3.2152e-08)
(-0.0341385 0.0211084 -6.50742e-07)
(-0.0393772 0.017655 -1.75509e-06)
(-0.00053474 0.00978147 1.10181e-06)
(-0.00252007 0.0194067 -7.28647e-07)
(-0.00569305 0.0235597 1.31917e-07)
(-0.0092899 0.025415 2.63676e-07)
(-0.0132378 0.026556 2.15552e-07)
(-0.0176675 0.0275437 1.86956e-07)
(-0.022768 0.0283719 1.23941e-07)
(-0.0287222 0.0285837 1.87097e-07)
(-0.0355425 0.0271453 -1.45398e-06)
(-0.042131 0.022339 -5.84098e-06)
(-0.000484223 0.0111207 1.00189e-06)
(-0.00229108 0.0220399 -6.59783e-07)
(-0.00518834 0.0268104 1.3915e-07)
(-0.00848514 0.0290738 3.00677e-07)
(-0.0121342 0.0306736 3.50573e-07)
(-0.0163044 0.0323209 4.65809e-07)
(-0.0212664 0.0340841 6.90171e-07)
(-0.0273525 0.0353989 1.80923e-06)
(-0.0349034 0.0346233 2.2208e-07)
(-0.0426985 0.0282641 -1.21359e-05)
(-0.000416859 0.012309 8.36953e-07)
(-0.00198521 0.024386 -6.20951e-07)
(-0.00449911 0.0297058 7.47838e-08)
(-0.00733016 0.0323282 2.29647e-07)
(-0.0104068 0.0343433 3.57775e-07)
(-0.0138409 0.0366311 7.03259e-07)
(-0.0178213 0.0393969 1.65273e-06)
(-0.0225717 0.0420651 5.95771e-06)
(-0.0286327 0.0424459 1.20903e-05)
(-0.0355521 0.0351057 -8.86269e-07)
(-0.000121242 0.000120745 -1.91844e-09)
(-0.000846457 0.000429025 -7.31054e-05)
(-0.002192 0.000562316 -4.1565e-05)
(-0.00370203 0.000597813 9.84478e-05)
(-0.00524082 0.000600221 0.000345705)
(-0.0067706 0.000590346 0.000699602)
(-0.00826594 0.000570595 0.00115817)
(-0.00969714 0.000537902 0.00171811)
(-0.0110257 0.000488961 0.00237382)
(-0.0122074 0.000423479 0.00311624)
(-0.000431908 0.000848147 7.3317e-05)
(-0.00206742 0.00206154 2.00093e-07)
(-0.00470315 0.00258889 4.82234e-05)
(-0.00762116 0.00275463 0.000205891)
(-0.0106064 0.00278026 0.000470377)
(-0.0135908 0.00274376 0.00084385)
(-0.01652 0.00265642 0.00132533)
(-0.0193317 0.00250696 0.00191156)
(-0.0219481 0.0022825 0.00259675)
(-0.024279 0.00198281 0.00337181)
(-0.000567828 0.00220194 4.0657e-05)
(-0.00260422 0.00470088 -4.89428e-05)
(-0.00579424 0.00577447 -8.31904e-07)
(-0.00929907 0.00614069 0.00015903)
(-0.0128905 0.00621734 0.000424813)
(-0.0165022 0.00615544 0.000799349)
(-0.0200731 0.00597604 0.00128233)
(-0.0235268 0.00565236 0.00187124)
(-0.0267575 0.00515243 0.00256101)
(-0.0296308 0.00447192 0.00334311)
(-0.000604858 0.00372516 -0.000103007)
(-0.00277603 0.00762952 -0.000210503)
(-0.00617249 0.00928236 -0.000164586)
(-0.00990387 0.00986915 -4.80842e-06)
(-0.013749 0.0100226 0.000261596)
(-0.017656 0.00996571 0.000638126)
(-0.021572 0.00972119 0.00112567)
(-0.0254151 0.0092326 0.00172322)
(-0.0290507 0.00842849 0.0024273)
(-0.032275 0.00728141 0.00323072)
(-0.000607661 0.00527969 -0.000357136)
(-0.00280405 0.0106296 -0.000482379)
(-0.00625504 0.0128818 -0.000437959)
(-0.0100673 0.0137165 -0.000279185)
(-0.0140389 0.0139921 -1.30812e-05)
(-0.0181429 0.0140023 0.000365193)
(-0.0223476 0.0137617 0.000858681)
(-0.0265785 0.0131617 0.00146917)
(-0.0306686 0.0120508 0.00219623)
(-0.0342952 0.0103286 0.00303638)
(-0.000597348 0.00682564 -0.000721263)
(-0.00276739 0.0136307 -0.000866886)
(-0.00619511 0.0165044 -0.000823962)
(-0.0100159 0.0176296 -0.000667844)
(-0.0140591 0.018098 -0.000404413)
(-0.0183366 0.0182767 -2.68122e-05)
(-0.0228606 0.0181646 0.000471353)
(-0.0275894 0.0175691 0.00109648)
(-0.0323355 0.0161847 0.00185372)
(-0.0365802 0.0137192 0.00274929)
(-0.000576496 0.0083362 -0.00119322)
(-0.00267807 0.0165772 -0.00136285)
(-0.00601528 0.020089 -0.00132216)
(-0.00977473 0.0215558 -0.00117166)
(-0.0138278 0.0223102 -0.000915618)
(-0.0182417 0.0228037 -0.000544751)
(-0.0231041 0.0230207 -4.81518e-05)
(-0.0284564 0.0226487 0.000587366)
(-0.0341445 0.0211023 0.00137602)
(-0.0393578 0.0176357 0.00234784)
(-0.000542094 0.00978056 -0.00176924)
(-0.00252506 0.0194061 -0.00196655)
(-0.00568917 0.0235589 -0.0019296)
(-0.00928782 0.0254146 -0.00178931)
(-0.0132367 0.0265565 -0.00154838)
(-0.0176665 0.0275457 -0.00119535)
(-0.0227682 0.0283769 -0.000714242)
(-0.0287322 0.0285944 -8.32074e-05)
(-0.0355646 0.0271511 0.0007239)
(-0.0421 0.0223142 0.00178982)
(-0.0004909 0.0111192 -0.002443)
(-0.00229548 0.0220388 -0.00267141)
(-0.00518437 0.0268086 -0.00264036)
(-0.00848229 0.029072 -0.00251641)
(-0.0121313 0.0306725 -0.00230133)
(-0.0162998 0.0323215 -0.0019829)
(-0.0212589 0.0340901 -0.0015407)
(-0.0273576 0.0354213 -0.000943101)
(-0.0349482 0.0346674 -0.000151554)
(-0.0426635 0.0282901 0.00102499)
(-0.000422773 0.0123071 -0.00320448)
(-0.00198919 0.0243841 -0.00346721)
(-0.00449571 0.0297026 -0.00344463)
(-0.00732749 0.0323237 -0.00334408)
(-0.0104032 0.0343366 -0.00316857)
(-0.013833 0.0366199 -0.00290968)
(-0.0178003 0.0393769 -0.00255031)
(-0.0225467 0.0420333 -0.00205971)
(-0.0286642 0.0424104 -0.00141359)
(-0.0355109 0.0350591 -0.000271364)
(-0.0132048 0.000347206 -0.00393231)
(-0.0140037 0.00027128 -0.00480609)
(-0.0146172 0.000203917 -0.00572248)
(-0.0150729 0.000148552 -0.00666899)
(-0.0154023 0.000105396 -0.00763601)
(-0.0156346 7.29439e-05 -0.00861662)
(-0.0157943 4.90286e-05 -0.00960598)
(-0.0158999 3.14262e-05 -0.0106009)
(-0.0159647 1.81134e-05 -0.0115993)
(-0.0159973 7.31048e-06 -0.0125997)
(-0.0160017 -2.5857e-06 -0.0136013)
(-0.0159784 -1.31255e-05 -0.0146032)
(-0.0159233 -2.59388e-05 -0.0156046)
(-0.0158285 -4.28687e-05 -0.0166044)
(-0.0156808 -6.60549e-05 -0.0176006)
(-0.0154613 -9.79081e-05 -0.0185903)
(-0.0151451 -0.000140857 -0.0195689)
(-0.0147017 -0.00019671 -0.0205297)
(-0.014098 -0.000265509 -0.0214629)
(-0.0133043 -0.000343807 -0.0223555)
(-0.0262462 0.001634 -0.00422364)
(-0.0278209 0.00128608 -0.00513594)
(-0.0290316 0.000975764 -0.00609368)
(-0.029934 0.000718601 -0.00708438)
(-0.03059 0.000515882 -0.00809823)
(-0.0310557 0.000361219 -0.0091279)
(-0.0313778 0.000245148 -0.0101682)
(-0.0315919 0.000157789 -0.0112153)
(-0.031723 9.00075e-05 -0.0122669)
(-0.0317874 3.36379e-05 -0.0133211)
(-0.0317928 -1.87674e-05 -0.0143766)
(-0.0317396 -7.44275e-05 -0.0154323)
(-0.0316201 -0.000140889 -0.0164869)
(-0.0314188 -0.00022654 -0.017539)
(-0.0311104 -0.000340912 -0.0185862)
(-0.0306589 -0.000494496 -0.0196252)
(-0.030017 -0.000697575 -0.0206511)
(-0.0291266 -0.000957436 -0.0216566)
(-0.0279238 -0.00127342 -0.022632)
(-0.0263503 -0.00162962 -0.0235642)
(-0.0320191 0.00367183 -0.00420385)
(-0.0338817 0.00287798 -0.00512403)
(-0.0352757 0.00217664 -0.00608763)
(-0.036291 0.00160022 -0.00708224)
(-0.0370151 0.00114839 -0.00809836)
(-0.0375217 0.000804559 -0.00912908)
(-0.0378681 0.000546381 -0.0101695)
(-0.0380964 0.000351383 -0.0112163)
(-0.0382352 0.000199185 -0.0122671)
(-0.0383024 7.17664e-05 -0.0133203)
(-0.0383066 -4.72194e-05 -0.0143747)
(-0.0382481 -0.000173573 -0.0154293)
(-0.0381185 -0.000323815 -0.0164828)
(-0.0379002 -0.000516356 -0.0175339)
(-0.0375646 -0.00077227 -0.0185805)
(-0.0370694 -0.0011151 -0.0196197)
(-0.0363564 -0.00156866 -0.020647)
(-0.0353501 -0.0021511 -0.0216558)
(-0.0339604 -0.00286387 -0.0226368)
(-0.0320938 -0.00367354 -0.0235774)
(-0.034867 0.00589929 -0.00411836)
(-0.0367684 0.00454909 -0.00506296)
(-0.038103 0.00338849 -0.00604597)
(-0.0390212 0.00245928 -0.00705504)
(-0.0396446 0.00174691 -0.00808126)
(-0.0400637 0.00121437 -0.00911864)
(-0.0403413 0.000819839 -0.0101632)
(-0.04052 0.000524731 -0.0112124)
(-0.0406267 0.000295855 -0.0122644)
(-0.0406777 0.000104887 -0.0133182)
(-0.0406806 -7.33174e-05 -0.0143727)
(-0.0406355 -0.000262868 -0.0154274)
(-0.0405353 -0.000489121 -0.0164815)
(-0.0403642 -0.000780891 -0.0175339)
(-0.0400954 -0.00117228 -0.0185833)
(-0.0396867 -0.00170343 -0.0196276)
(-0.0390741 -0.00241834 -0.0206633)
(-0.0381658 -0.00335671 -0.0216852)
(-0.0368358 -0.00453529 -0.0226849)
(-0.0349277 -0.00591092 -0.0236503)
(-0.0370407 0.00816022 -0.00397333)
(-0.0388194 0.00610576 -0.00496065)
(-0.0399094 0.00442406 -0.00597635)
(-0.0405697 0.00313719 -0.00700932)
(-0.0409679 0.0021875 -0.00805208)
(-0.0412086 0.0014991 -0.0091004)
(-0.0413545 0.00100135 -0.0101519)
(-0.041442 0.000635944 -0.0112053)
(-0.0414916 0.000356489 -0.0122599)
(-0.0415148 0.000125443 -0.013315)
(-0.0415164 -8.94135e-05 -0.0143706)
(-0.0414967 -0.000318584 -0.0154262)
(-0.0414513 -0.000594476 -0.0164818)
(-0.0413697 -0.000955106 -0.017537)
(-0.0412318 -0.0014479 -0.0185913)
(-0.0410021 -0.00213306 -0.0196441)
(-0.040618 -0.0030845 -0.0206937)
(-0.0399731 -0.00438271 -0.0217369)
(-0.0388939 -0.00609038 -0.0227674)
(-0.0371087 -0.00818502 -0.0237755)
(-0.039485 0.0103814 -0.00377047)
(-0.0409307 0.00738844 -0.00482389)
(-0.0415498 0.00512331 -0.00588622)
(-0.0417826 0.00350612 -0.00695169)
(-0.0418417 0.00237839 -0.00801606)
(-0.0418321 0.00159674 -0.0090782)
(-0.0418024 0.00105076 -0.0101383)
(-0.0417728 0.000660477 -0.011197)
(-0.0417511 0.000367928 -0.0122545)
(-0.0417399 0.000129317 -0.0133115)
(-0.0417401 -9.13245e-05 -0.0143682)
(-0.0417519 -0.000327474 -0.0154251)
(-0.0417752 -0.000615173 -0.0164825)
(-0.0418083 -0.0009985 -0.017541)
(-0.0418448 -0.00153626 -0.0186013)
(-0.0418661 -0.00231058 -0.0196645)
(-0.041825 -0.00343637 -0.0207315)
(-0.0416163 -0.0050648 -0.0218026)
(-0.04102 -0.00736549 -0.0228758)
(-0.0395715 -0.0104226 -0.0239486)
(-0.0423659 0.0123887 -0.00351532)
(-0.0430699 0.00812202 -0.00466618)
(-0.0428855 0.00526227 -0.00578857)
(-0.0425007 0.00341847 -0.00689277)
(-0.0421235 0.0022319 -0.00798105)
(-0.0418185 0.00145823 -0.00905753)
(-0.0415946 0.000941716 -0.0101261)
(-0.0414415 0.000584689 -0.0111896)
(-0.0413467 0.000323682 -0.0122498)
(-0.0413008 0.000114403 -0.0133082)
(-0.041299 -7.76478e-05 -0.0143657)
(-0.0413416 -0.000283902 -0.0154233)
(-0.0414337 -0.000538714 -0.016482)
(-0.0415857 -0.000886217 -0.0175431)
(-0.0418118 -0.00139013 -0.0186086)
(-0.0421249 -0.00214994 -0.0196814)
(-0.0425194 -0.00332692 -0.0207662)
(-0.0429344 -0.00517738 -0.0218684)
(-0.0431567 -0.00808122 -0.0229935)
(-0.0424559 -0.0124453 -0.0241594)
(-0.0447751 0.0136397 -0.00322155)
(-0.0439338 0.00776108 -0.00450934)
(-0.0425352 0.00451674 -0.0057016)
(-0.041408 0.0027196 -0.00684622)
(-0.0405836 0.00168629 -0.00795638)
(-0.0400102 0.0010652 -0.00904437)
(-0.0396256 0.000673185 -0.010119)
(-0.0393769 0.000412583 -0.0111855)
(-0.0392278 0.00022734 -0.012247)
(-0.0391563 8.16645e-05 -0.0133058)
(-0.0391519 -5.07352e-05 -0.0143632)
(-0.0392146 -0.000193219 -0.0154205)
(-0.0393545 -0.000371678 -0.0164792)
(-0.0395937 -0.000621144 -0.017541)
(-0.0399694 -0.000996884 -0.0186088)
(-0.0405371 -0.00159712 -0.0196875)
(-0.0413629 -0.00261026 -0.0207859)
(-0.042508 -0.00440358 -0.0219166)
(-0.0439482 -0.00769342 -0.0230956)
(-0.0447973 -0.0137035 -0.0243858)
(-0.0431768 0.0130635 -0.00299629)
(-0.0395058 0.00567492 -0.0044373)
(-0.0367718 0.0027181 -0.00567348)
(-0.0351456 0.00144346 -0.00683946)
(-0.0341224 0.000829433 -0.00795755)
(-0.0334693 0.00050191 -0.00904745)
(-0.033055 0.000309899 -0.0101219)
(-0.032796 0.00018784 -0.0111875)
(-0.0326433 0.000103646 -0.0122478)
(-0.0325699 3.88823e-05 -0.013305)
(-0.0325631 -1.91551e-05 -0.0143608)
(-0.0326223 -8.14133e-05 -0.0154162)
(-0.0327587 -0.000160067 -0.0164725)
(-0.0329978 -0.000272402 -0.0175315)
(-0.0333873 -0.00044874 -0.018596)
(-0.0340092 -0.000753235 -0.0196713)
(-0.0349941 -0.00133986 -0.0207685)
(-0.0365844 -0.00260017 -0.0219046)
(-0.0393224 -0.00560438 -0.0230982)
(-0.0430216 -0.0131776 -0.0245009)
(-0.0277672 0.00915848 -0.00299109)
(-0.0213374 0.00257113 -0.00441445)
(-0.018694 0.000863307 -0.00549582)
(-0.0176478 0.000357876 -0.00654816)
(-0.0170906 0.000177414 -0.00757614)
(-0.0167571 9.96194e-05 -0.00858874)
(-0.0165533 5.95091e-05 -0.00959364)
(-0.0164282 3.57144e-05 -0.0105941)
(-0.0163545 1.99855e-05 -0.0115917)
(-0.016318 8.29516e-06 -0.0125875)
(-0.0163121 -1.88222e-06 -0.0135822)
(-0.016336 -1.26172e-05 -0.0145761)
(-0.0163946 -2.61648e-05 -0.0155697)
(-0.0164995 -4.59199e-05 -0.0165632)
(-0.0166745 -7.90122e-05 -0.0175572)
(-0.0169651 -0.000145469 -0.0185529)
(-0.0174552 -0.000311072 -0.0195545)
(-0.0184022 -0.000810527 -0.020564)
(-0.0209762 -0.00257732 -0.0215674)
(-0.0275748 -0.00946216 -0.022869)
(-0.0132069 0.000342037 6.33727e-07)
(-0.0140056 0.000266981 4.44698e-07)
(-0.0146187 0.000200508 3.00783e-07)
(-0.0150741 0.000145945 1.97248e-07)
(-0.0154033 0.000103464 1.26447e-07)
(-0.0156355 7.1556e-05 7.96937e-08)
(-0.0157951 4.80682e-05 4.93041e-08)
(-0.0159006 3.08003e-05 2.94299e-08)
(-0.0159655 1.77557e-05 1.5958e-08)
(-0.015998 7.18143e-06 5.85901e-09)
(-0.0160025 -2.50001e-06 -3.02028e-09)
(-0.0159791 -1.28132e-05 -1.27393e-08)
(-0.0159241 -2.53622e-05 -2.53382e-08)
(-0.0158293 -4.19626e-05 -4.3596e-08)
(-0.0156816 -6.4726e-05 -7.15574e-08)
(-0.0154623 -9.60375e-05 -1.15202e-07)
(-0.0151463 -0.00013831 -1.82626e-07)
(-0.0147032 -0.000193352 -2.83024e-07)
(-0.0140999 -0.000261246 -4.25781e-07)
(-0.0133065 -0.000338666 -6.18171e-07)
(-0.0262482 0.00163 -6.17483e-07)
(-0.0278225 0.00128254 -5.75056e-07)
(-0.0290328 0.000972923 -4.95676e-07)
(-0.0299351 0.000716443 -4.05479e-07)
(-0.030591 0.00051431 -3.16624e-07)
(-0.0310568 0.000360116 -2.36602e-07)
(-0.031379 0.000244403 -1.68728e-07)
(-0.0315931 0.000157313 -1.12619e-07)
(-0.0317244 8.97382e-05 -6.57463e-08)
(-0.0317888 3.35384e-05 -2.48919e-08)
(-0.0317942 -1.87103e-05 1.37531e-08)
(-0.0317409 -7.42038e-05 5.43519e-08)
(-0.0316214 -0.000140464 1.00903e-07)
(-0.0314199 -0.000225854 1.57227e-07)
(-0.0311114 -0.000339878 2.26163e-07)
(-0.0306599 -0.000492999 3.08442e-07)
(-0.030018 -0.000695493 4.01126e-07)
(-0.0291278 -0.000954656 4.97131e-07)
(-0.0279254 -0.00126992 5.82729e-07)
(-0.0263523 -0.00162566 6.26542e-07)
(-0.0320226 0.00367328 -1.02325e-07)
(-0.0338843 0.00287866 -1.7795e-07)
(-0.0352775 0.00217721 -1.84896e-07)
(-0.0362925 0.00160076 -1.69007e-07)
(-0.0370164 0.0011489 -1.4052e-07)
(-0.0375231 0.000805013 -1.08489e-07)
(-0.0378696 0.000546752 -7.8833e-08)
(-0.038098 0.000351654 -5.33858e-08)
(-0.0382368 0.000199348 -3.16814e-08)
(-0.0383041 7.18194e-05 -1.27411e-08)
(-0.0383083 -4.72783e-05 4.99596e-09)
(-0.0382497 -0.000173746 2.35896e-08)
(-0.0381201 -0.000324102 4.48458e-08)
(-0.0379017 -0.000516753 7.01733e-08)
(-0.037566 -0.000772762 1.00253e-07)
(-0.0370707 -0.00111566 1.3388e-07)
(-0.0363578 -0.00156926 1.6573e-07)
(-0.0353518 -0.00215171 1.88204e-07)
(-0.0339628 -0.00286456 1.90007e-07)
(-0.0320972 -0.00367501 1.14691e-07)
(-0.034872 0.00589854 -1.21196e-07)
(-0.0367712 0.00454786 -2.17128e-07)
(-0.0381046 0.00338786 -1.99477e-07)
(-0.0390225 0.0024591 -1.70525e-07)
(-0.0396459 0.001747 -1.33168e-07)
(-0.040065 0.0012146 -9.64884e-08)
(-0.0403429 0.000820098 -6.64093e-08)
(-0.0405216 0.000524948 -4.30687e-08)
(-0.0406284 0.000295992 -2.46612e-08)
(-0.0406795 0.000104929 -9.4983e-09)
(-0.0406823 -7.33757e-05 4.32486e-09)
(-0.0406372 -0.000263026 1.89854e-08)
(-0.0405369 -0.000489368 3.65479e-08)
(-0.0403657 -0.000781198 5.90743e-08)
(-0.0400968 -0.00117259 8.87574e-08)
(-0.0396879 -0.00170361 1.2647e-07)
(-0.0390753 -0.00241827 1.67312e-07)
(-0.0381672 -0.00335616 2.06176e-07)
(-0.0368385 -0.00453405 2.42306e-07)
(-0.0349327 -0.00591015 1.51711e-07)
(-0.037048 0.00815653 -3.66382e-07)
(-0.0388218 0.00610241 -4.16347e-07)
(-0.0399101 0.00442259 -3.04328e-07)
(-0.0405705 0.00313669 -2.31865e-07)
(-0.0409688 0.00218751 -1.63516e-07)
(-0.0412098 0.00149936 -1.07117e-07)
(-0.041356 0.00100165 -6.76489e-08)
(-0.0414436 0.0006362 -4.08223e-08)
(-0.0414934 0.00035665 -2.20796e-08)
(-0.0415166 0.000125491 -8.07982e-09)
(-0.0415182 -8.94849e-05 4.01752e-09)
(-0.0414985 -0.000318775 1.70673e-08)
(-0.041453 -0.000594776 3.40231e-08)
(-0.0413711 -0.000955482 5.83143e-08)
(-0.041233 -0.00144826 9.50189e-08)
(-0.041003 -0.00213323 1.49661e-07)
(-0.0406186 -0.00308423 2.18e-07)
(-0.0399735 -0.00438146 3.00815e-07)
(-0.0388961 -0.00608707 4.47985e-07)
(-0.037116 -0.00818128 4.18873e-07)
(-0.0394967 0.0103726 -9.14731e-07)
(-0.0409313 0.00738238 -7.24011e-07)
(-0.0415486 0.00512153 -3.98258e-07)
(-0.0417824 0.00350585 -2.7146e-07)
(-0.0418422 0.00237873 -1.69205e-07)
(-0.0418332 0.00159728 -9.48853e-08)
(-0.0418039 0.00105127 -5.17828e-08)
(-0.0417746 0.000660853 -2.73294e-08)
(-0.041753 0.000368154 -1.31421e-08)
(-0.0417419 0.000129389 -4.47891e-09)
(-0.0417421 -9.14076e-05 2.09596e-09)
(-0.0417538 -0.000327716 9.58875e-09)
(-0.041777 -0.000615578 2.10386e-08)
(-0.0418099 -0.000999058 4.07242e-08)
(-0.0418459 -0.0015369 7.72021e-08)
(-0.0418667 -0.00231109 1.43606e-07)
(-0.0418248 -0.00343643 2.3452e-07)
(-0.0416147 -0.00506345 3.62212e-07)
(-0.0410202 -0.00735959 7.5504e-07)
(-0.0395832 -0.0104138 1.02093e-06)
(-0.0423866 0.0123736 -2.45999e-06)
(-0.0430653 0.00811603 -1.44338e-06)
(-0.0428805 0.00526311 -5.87212e-07)
(-0.0424994 0.00342004 -3.51368e-07)
(-0.0421237 0.00223337 -1.86553e-07)
(-0.0418196 0.00145945 -8.39406e-08)
(-0.0415963 0.000942593 -3.6519e-08)
(-0.0414435 0.00058526 -1.48067e-08)
(-0.0413488 0.000324003 -4.81308e-09)
(-0.0413029 0.000114511 -3.81904e-10)
(-0.0413012 -7.77374e-05 2.13271e-09)
(-0.0413437 -0.000284202 5.4482e-09)
(-0.0414357 -0.000539263 1.25378e-08)
(-0.0415875 -0.000887078 2.82118e-08)
(-0.041813 -0.00139136 6.55734e-08)
(-0.0421252 -0.00215149 1.52887e-07)
(-0.0425182 -0.00332878 2.85122e-07)
(-0.0429291 -0.00517887 4.88867e-07)
(-0.0431516 -0.00807587 1.45794e-06)
(-0.0424769 -0.012431 2.66336e-06)
(-0.0448116 0.0136113 -4.62283e-06)
(-0.0439191 0.00776128 -1.67561e-06)
(-0.042527 0.00452489 -2.75548e-07)
(-0.0414075 0.00272472 -1.81403e-07)
(-0.0405846 0.00168939 -5.90919e-08)
(-0.0400119 0.0010672 1.03985e-08)
(-0.0396278 0.000674423 2.23612e-08)
(-0.0393793 0.000413314 1.99794e-08)
(-0.0392303 0.000227729 1.46934e-08)
(-0.0391587 8.17979e-05 8.3755e-09)
(-0.0391544 -5.08292e-05 1.95821e-09)
(-0.0392171 -0.00019356 -4.2929e-09)
(-0.0393569 -0.000372343 -1.00788e-08)
(-0.0395959 -0.000622289 -1.518e-08)
(-0.0399713 -0.000998751 -9.4811e-09)
(-0.0405384 -0.00160006 4.81362e-08)
(-0.0413629 -0.00261536 1.20356e-07)
(-0.0425 -0.00441222 1.01097e-07)
(-0.0439335 -0.00769434 1.56126e-06)
(-0.0448348 -0.0136755 4.73196e-06)
(-0.0432182 0.0129707 -7.27643e-06)
(-0.0394686 0.00565354 1.1835e-06)
(-0.0367643 0.00271589 1.91594e-06)
(-0.0351499 0.00144123 7.59523e-07)
(-0.0341257 0.000827618 4.4038e-07)
(-0.0334721 0.000500791 3.05633e-07)
(-0.0330577 0.000309195 1.91364e-07)
(-0.0327986 0.000187398 1.1553e-07)
(-0.0326459 0.000103399 6.53482e-08)
(-0.0325723 3.87934e-05 2.71275e-08)
(-0.0325655 -1.90974e-05 -6.85953e-09)
(-0.0326248 -8.11949e-05 -4.30816e-08)
(-0.0327613 -0.000159647 -8.92519e-08)
(-0.0330006 -0.0002717 -1.60148e-07)
(-0.0333902 -0.000447572 -2.68121e-07)
(-0.0340129 -0.000751246 -3.91173e-07)
(-0.0349994 -0.00133729 -7.43115e-07)
(-0.0365778 -0.00259753 -2.12727e-06)
(-0.0392851 -0.00558125 -1.60175e-06)
(-0.0430629 -0.0130778 7.19832e-06)
(-0.0277776 0.00909606 -2.69824e-05)
(-0.0212579 0.00254865 -2.91435e-06)
(-0.0186767 0.00085487 5.08857e-08)
(-0.0176477 0.000352171 -7.26723e-07)
(-0.0170899 0.000173708 -4.79217e-07)
(-0.0167568 9.73722e-05 -2.30292e-07)
(-0.0165536 5.81428e-05 -1.28872e-07)
(-0.0164288 3.48963e-05 -7.4329e-08)
(-0.0163552 1.95418e-05 -3.76962e-08)
(-0.0163187 8.13831e-06 -1.1117e-08)
(-0.0163128 -1.78083e-06 1.21088e-08)
(-0.0163367 -1.2233e-05 3.86049e-08)
(-0.0163951 -2.54136e-05 7.50064e-08)
(-0.0164998 -4.46269e-05 1.28401e-07)
(-0.0166742 -7.68304e-05 2.29622e-07)
(-0.0169645 -0.000141767 4.93662e-07)
(-0.0174556 -0.000305206 7.4561e-07)
(-0.0183849 -0.000801688 -2.60049e-07)
(-0.0208914 -0.00255325 2.49856e-06)
(-0.0275808 -0.00939266 2.8711e-05)
(-0.0132069 0.000342037 -6.33544e-07)
(-0.0140056 0.000266981 -4.44925e-07)
(-0.0146187 0.000200508 -3.01124e-07)