/*--------------------------------*- C++ -*----------------------------------*\
| =========                 |                                                 |
| \\      /  F ield         | OpenFOAM: The Open Source CFD Toolbox           |
|  \\    /   O peration     | Version:  2.4.0                                 |
|   \\  /    A nd           | Web:      www.OpenFOAM.org                      |
|    \\/     M anipulation  |                                                 |
\*---------------------------------------------------------------------------*/
FoamFile
{
    version     2.0;
    format      ascii;
    class       volScalarField;
    location    "0.0092";
    object      T;
}
// * * * * * * * * * * * * * * * * * * * * * * * * * * * * * * * * * * * * * //

dimensions      [0 0 0 1 0 0 0];

internalField   nonuniform List<scalar> 
4800
(
100.194
100.581
100.968
101.354
101.738
102.117
102.487
102.844
103.182
103.493
100.581
101.742
102.903
104.063
105.217
106.359
107.475
108.552
109.571
110.511
100.968
102.904
104.841
106.779
108.71
110.625
112.503
114.319
116.039
117.626
101.354
104.063
106.779
109.5
112.22
114.927
117.594
120.182
122.64
124.908
101.738
105.218
108.711
112.221
115.745
119.269
122.762
126.174
129.431
132.439
102.117
106.359
110.625
114.928
119.269
123.641
128.012
132.323
136.471
140.314
102.488
107.476
112.504
117.595
122.764
128.013
133.323
138.633
143.817
148.66
102.845
108.554
114.321
120.184
126.177
132.325
138.634
145.068
151.502
157.641
103.182
109.573
116.042
122.644
129.435
136.475
143.82
151.504
159.482
167.46
103.494
110.514
117.631
124.915
132.445
140.321
148.666
157.645
167.462
178.222
100.194
100.581
100.968
101.354
101.738
102.117
102.487
102.844
103.182
103.493
100.581
101.742
102.903
104.063
105.217
106.359
107.475
108.552
109.571
110.511
100.968
102.903
104.841
106.779
108.71
110.625
112.503
114.319
116.039
117.626
101.354
104.063
106.779
109.5
112.22
114.927
117.594
120.182
122.64
124.908
101.738
105.218
108.711
112.221
115.745
119.269
122.762
126.174
129.431
132.438
102.117
106.359
110.625
114.928
119.269
123.641
128.012
132.323
136.471
140.314
102.488
107.476
112.505
117.595
122.764
128.013
133.323
138.633
143.817
148.66
102.845
108.554
114.321
120.185
126.177
132.325
138.634
145.068
151.502
157.641
103.183
109.573
116.043
122.645
129.436
136.476
143.82
151.504
159.482
167.46
103.494
110.515
117.631
124.915
132.446
140.322
148.667
157.646
167.463
178.223
100.194
100.581
100.968
101.354
101.738
102.117
102.487
102.844
103.182
103.493
100.581
101.742
102.903
104.063
105.217
106.359
107.475
108.552
109.571
110.511
100.968
102.903
104.841
106.779
108.71
110.625
112.503
114.319
116.039
117.626
101.354
104.063
106.779
109.5
112.22
114.927
117.594
120.182
122.64
124.908
101.738
105.218
108.711
112.221
115.745
119.269
122.762
126.174
129.431
132.438
102.117
106.359
110.625
114.928
119.269
123.641
128.012
132.323
136.471
140.314
102.488
107.476
112.505
117.595
122.764
128.013
133.323
138.633
143.817
148.66
102.845
108.554
114.321
120.185
126.177
132.325
138.634
145.068
151.502
157.641
103.183
109.573
116.043
122.645
129.436
136.476
143.82
151.504
159.482
167.46
103.494
110.515
117.631
124.915
132.446
140.322
148.667
157.646
167.463
178.223
100.194
100.581
100.968
101.354
101.738
102.117
102.487
102.844
103.182
103.493
100.581
101.742
102.903
104.063
105.217
106.359
107.475
108.552
109.571
110.511
100.968
102.904
104.841
106.779
108.71
110.625
112.503
114.319
116.039
117.626
101.354
104.063
106.779
109.5
112.22
114.927
117.594
120.182
122.64
124.908
101.738
105.218
108.711
112.221
115.745
119.269
122.762
126.174
129.431
132.439
102.117
106.359
110.625
114.928
119.269
123.641
128.012
132.323
136.471
140.314
102.488
107.476
112.504
117.595
122.764
128.013
133.323
138.633
143.817
148.66
102.845
108.554
114.321
120.184
126.177
132.325
138.634
145.068
151.502
157.641
103.182
109.573
116.042
122.644
129.435
136.475
143.82
151.504
159.482
167.46
103.494
110.514
117.631
124.915
132.445
140.321
148.666
157.645
167.462
178.222
103.773
104.016
104.222
104.391
104.526
104.63
104.707
104.762
104.796
104.813
104.813
104.796
104.761
104.707
104.63
104.526
104.391
104.222
104.016
103.773
111.354
112.087
112.704
113.208
113.609
113.916
114.144
114.304
114.405
114.454
114.454
114.405
114.304
114.144
113.916
113.608
113.208
112.703
112.086
111.353
119.045
120.272
121.298
122.13
122.784
123.283
123.65
123.906
124.067
124.145
124.145
124.067
123.905
123.649
123.281
122.782
122.128
121.297
120.271
119.044
126.928
128.659
130.088
131.229
132.114
132.78
133.266
133.602
133.812
133.914
133.913
133.812
133.601
133.265
132.779
132.112
131.227
130.086
128.657
126.927
135.1
137.347
139.164
140.584
141.662
142.459
143.032
143.423
143.667
143.783
143.783
143.666
143.422
143.03
142.457
141.66
140.581
139.162
137.345
135.098
143.687
146.465
148.638
150.28
151.49
152.363
152.978
153.393
153.649
153.77
153.77
153.648
153.392
152.977
152.361
151.488
150.278
148.636
146.462
143.685
152.869
156.186
158.644
160.408
161.655
162.526
163.125
163.522
163.764
163.879
163.878
163.763
163.521
163.123
162.524
161.653
160.406
158.641
156.184
152.867
162.943
166.766
169.342
171.053
172.195
172.96
173.473
173.806
174.007
174.102
174.101
174.007
173.806
173.472
172.959
172.193
171.052
169.34
166.764
162.941
174.495
178.591
180.906
182.268
183.11
183.649
183.999
184.223
184.357
184.419
184.419
184.356
184.223
183.998
183.648
183.109
182.267
180.905
178.591
174.494
188.984
192.199
193.422
194.004
194.328
194.526
194.651
194.73
194.777
194.799
194.799
194.777
194.73
194.651
194.525
194.328
194.003
193.422
192.199
188.983
103.773
104.016
104.222
104.391
104.526
104.63
104.707
104.761
104.796
104.812
104.812
104.796
104.761
104.707
104.629
104.525
104.391
104.222
104.016
103.772
111.354
112.086
112.704
113.208
113.608
113.916
114.144
114.304
114.405
114.454
114.454
114.405
114.303
114.143
113.915
113.607
113.207
112.702
112.085
111.352
119.045
120.272
121.298
122.13
122.783
123.282
123.649
123.905
124.067
124.144
124.144
124.066
123.904
123.648
123.28
122.781
122.127
121.296
120.27
119.043
126.928
128.659
130.087
131.228
132.113
132.78
133.265
133.601
133.812
133.913
133.913
133.811
133.6
133.264
132.778
132.111
131.226
130.084
128.656
126.925
135.1
137.347
139.164
140.583
141.661
142.459
143.031
143.423
143.666
143.783
143.782
143.665
143.421
143.029
142.456
141.658
140.58
139.16
137.343
135.097
143.687
146.464
148.638
150.28
151.489
152.363
152.978
153.392
153.648
153.769
153.769
153.647
153.391
152.976
152.36
151.486
150.276
148.634
146.461
143.684
152.869
156.186
158.643
160.407
161.654
162.525
163.124
163.521
163.763
163.878
163.877
163.762
163.52
163.122
162.523
161.651
160.404
158.64
156.182
152.866
162.943
166.765
169.342
171.053
172.194
172.96
173.472
173.805
174.006
174.101
174.1
174.006
173.804
173.47
172.958
172.192
171.05
169.339
166.762
162.94
174.495
178.591
180.906
182.268
183.109
183.648
183.998
184.222
184.356
184.418
184.418
184.355
184.222
183.997
183.647
183.108
182.266
180.904
178.589
174.492
188.984
192.199
193.422
194.003
194.328
194.525
194.651
194.73
194.777
194.799
194.799
194.777
194.73
194.65
194.525
194.327
194.003
193.421
192.198
188.982
103.773
104.016
104.222
104.391
104.526
104.63
104.707
104.761
104.796
104.812
104.812
104.796
104.761
104.707
104.629
104.525
104.391
104.222
104.016
103.772
111.354
112.086
112.704
113.208
113.608
113.916
114.144
114.304
114.405
114.454
114.454
114.405
114.303
114.143
113.915
113.607
113.207
112.702
112.085
111.352
119.045
120.272
121.298
122.13
122.783
123.282
123.649
123.905
124.067
124.144
124.144
124.066
123.904
123.648
123.28
122.781
122.127
121.296
120.27
119.043
126.928
128.659
130.087
131.228
132.113
132.78
133.265
133.601
133.812
133.913
133.913
133.811
133.6
133.264
132.778
132.111
131.226
130.084
128.656
126.925
135.1
137.347
139.164
140.583
141.661
142.459
143.031
143.423
143.666
143.783
143.782
143.665
143.421
143.029
142.456
141.658
140.58
139.16
137.343
135.097
143.687
146.464
148.638
150.28
151.489
152.363
152.978
153.392
153.648
153.769
153.769
153.647
153.391
152.976
152.36
151.486
150.276
148.634
146.461
143.684
152.869
156.186
158.643
160.407
161.654
162.525
163.124
163.521
163.763
163.878
163.877
163.762
163.52
163.122
162.523
161.651
160.404
158.64
156.182
152.866
162.943
166.765
169.342
171.053
172.194
172.96
173.472
173.805
174.006
174.101
174.1
174.006
173.804
173.47
172.958
172.192
171.05
169.339
166.762
162.94
174.495
178.591
180.906
182.268
183.109
183.648
183.998
184.222
184.356
184.418
184.418
184.355
184.222
183.997
183.647
183.108
182.266
180.904
178.589
174.492
188.984
192.199
193.422
194.003
194.328
194.525
194.651
194.73
194.777
194.799
194.799
194.777
194.73
194.65
194.525
194.327
194.003
193.421
192.198
188.982
103.773
104.016
104.222
104.391
104.526
104.63
104.707
104.762
104.796
104.813
104.813
104.796
104.761
104.707
104.63
104.526
104.391
104.222
104.016
103.773
111.354
112.087
112.704
113.208
113.609
113.916
114.144
114.304
114.405
114.454
114.454
114.405
114.304
114.144
113.916
113.608
113.208
112.703
112.086
111.353
119.045
120.272
121.298
122.13
122.784
123.283
123.65
123.906
124.067
124.145
124.145
124.067
123.905
123.649
123.281
122.782
122.128
121.297
120.271
119.044
126.928
128.659
130.088
131.229
132.114
132.78
133.266
133.602
133.812
133.914
133.913
133.812
133.601
133.265
132.779
132.112
131.227
130.086
128.657
126.927
135.1
137.347
139.164
140.584
141.662
142.459
143.032
143.423
143.667
143.783
143.783
143.666
143.422
143.03
142.457
141.66
140.581
139.162
137.345
135.098
143.687
146.465
148.638
150.28
151.49
152.363
152.978
153.393
153.649
153.77
153.77
153.648
153.392
152.977
152.361
151.488
150.278
148.636
146.462
143.685
152.869
156.186
158.644
160.408
161.655
162.526
163.125
163.522
163.764
163.879
163.878
163.763
163.521
163.123
162.524
161.653
160.406
158.641
156.184
152.867
162.943
166.766
169.342
171.053
172.195
172.96
173.473
173.806
174.007
174.102
174.101
174.007
173.806
173.472
172.959
172.193
171.052
169.34
166.764
162.941
174.495
178.591
180.906
182.268
183.11
183.649
183.999
184.223
184.357
184.419
184.419
184.356
184.223
183.998
183.648
183.109
182.267
180.905
178.591
174.494
188.984
192.199
193.422
194.004
194.328
194.526
194.651
194.73
194.777
194.799
194.799
194.777
194.73
194.651
194.525
194.328
194.003
193.422
192.199
188.983
103.493
103.182
102.845
102.488
102.117
101.738
101.354
100.968
100.581
100.194
110.511
109.571
108.553
107.476
106.359
105.218
104.064
102.904
101.743
100.581
117.625
116.039
114.319
112.503
110.625
108.711
106.779
104.842
102.904
100.968
124.907
122.639
120.182
117.594
114.927
112.221
109.5
106.779
104.064
101.354
132.437
129.43
126.174
122.762
119.269
115.746
112.222
108.711
105.218
101.738
140.313
136.471
132.323
128.013
123.642
119.27
114.929
110.627
106.36
102.117
148.659
143.816
138.633
133.324
128.014
122.765
117.597
112.506
107.477
102.488
157.641
151.503
145.069
138.636
132.327
126.179
120.186
114.323
108.555
102.845
167.461
159.483
151.506
143.822
136.478
129.438
122.647
116.045
109.575
103.183
178.224
167.464
157.648
148.669
140.324
132.449
124.918
117.634
110.516
103.495
103.492
103.181
102.844
102.487
102.116
101.737
101.353
100.967
100.58
100.193
110.509
109.57
108.551
107.474
106.358
105.217
104.063
102.903
101.741
100.58
117.624
116.037
114.318
112.502
110.624
108.709
106.778
104.84
102.903
100.967
124.905
122.638
120.18
117.592
114.926
112.219
109.499
106.778
104.063
101.353
132.436
129.429
126.173
122.761
119.268
115.744
112.22
108.71
105.217
101.737
140.311
136.469
132.321
128.011
123.64
119.269
114.927
110.625
106.359
102.117
148.658
143.815
138.631
133.322
128.013
122.763
117.595
112.504
107.476
102.487
157.639
151.501
145.067
138.634
132.325
126.177
120.185
114.321
108.554
102.845
167.459
159.481
151.504
143.82
136.476
129.436
122.645
116.043
109.573
103.182
178.222
167.462
157.646
148.667
140.322
132.447
124.916
117.632
110.515
103.494
103.492
103.181
102.844
102.487
102.116
101.737
101.353
100.967
100.58
100.193
110.509
109.57
108.551
107.474
106.358
105.217
104.063
102.903
101.741
100.58
117.624
116.037
114.318
112.502
110.624
108.709
106.778
104.84
102.903
100.967
124.905
122.638
120.18
117.592
114.926
112.219
109.499
106.778
104.063
101.353
132.436
129.429
126.173
122.761
119.268
115.744
112.22
108.71
105.217
101.737
140.311
136.469
132.321
128.011
123.64
119.269
114.927
110.625
106.359
102.117
148.658
143.815
138.631
133.322
128.013
122.763
117.595
112.504
107.476
102.487
157.639
151.501
145.067
138.634
132.325
126.177
120.185
114.321
108.554
102.845
167.459
159.481
151.504
143.82
136.476
129.436
122.645
116.043
109.573
103.182
178.222
167.462
157.646
148.667
140.322
132.447
124.916
117.632
110.515
103.494
103.493
103.182
102.845
102.488
102.117
101.738
101.354
100.968
100.581
100.194
110.511
109.571
108.553
107.476
106.359
105.218
104.064
102.904
101.743
100.581
117.625
116.039
114.319
112.503
110.625
108.711
106.779
104.842
102.904
100.968
124.907
122.639
120.182
117.594
114.927
112.221
109.5
106.779
104.064
101.354
132.437
129.43
126.174
122.762
119.269
115.746
112.222
108.711
105.218
101.738
140.313
136.471
132.323
128.013
123.642
119.27
114.929
110.627
106.36
102.117
148.659
143.816
138.633
133.324
128.014
122.765
117.597
112.506
107.477
102.488
157.641
151.503
145.069
138.636
132.327
126.179
120.186
114.323
108.555
102.845
167.461
159.483
151.506
143.822
136.478
129.438
122.647
116.045
109.575
103.183
178.224
167.464
157.648
148.669
140.324
132.449
124.918
117.634
110.516
103.495
188.986
174.501
162.953
152.882
143.702
135.115
126.941
119.056
111.361
103.775
192.203
178.601
166.78
156.204
146.485
137.367
128.677
120.287
112.096
104.02
193.427
180.919
169.362
158.669
148.666
139.192
130.113
121.318
112.717
104.227
194.01
182.286
171.081
160.442
150.318
140.622
131.263
122.157
113.226
104.398
194.337
183.134
172.232
161.702
151.542
141.714
132.16
122.821
113.633
104.534
194.537
183.682
173.012
162.59
152.434
142.53
132.844
123.333
113.949
104.641
194.667
184.044
173.543
163.212
153.075
143.128
133.353
123.718
114.189
104.723
194.752
184.285
173.902
163.642
153.525
143.555
133.72
123.999
114.364
104.782
194.807
184.441
174.138
163.927
153.828
143.846
133.973
124.194
114.487
104.824
194.839
184.535
174.28
164.102
154.015
144.027
134.132
124.317
114.565
104.851
194.854
184.578
174.346
164.184
154.105
144.115
134.21
124.378
114.603
104.864
194.853
184.575
174.343
164.182
154.105
144.117
134.214
124.383
114.607
104.865
194.835
184.525
174.269
164.095
154.017
144.036
134.146
124.332
114.576
104.855
194.798
184.419
174.114
163.914
153.831
143.864
134.001
124.223
114.509
104.832
194.733
184.238
173.854
163.615
153.53
143.589
133.771
124.052
114.403
104.797
194.625
183.948
173.448
163.162
153.085
143.19
133.443
123.81
114.255
104.747
194.442
183.481
172.828
162.501
152.458
142.643
133.003
123.489
114.061
104.682
194.1
182.705
171.883
161.556
151.603
141.923
132.436
123.082
113.817
104.601
193.352
181.355
170.444
160.237
150.478
141.01
131.735
122.589
113.524
104.503
191.304
178.92
168.303
158.472
149.062
139.905
130.908
122.014
113.186
104.392
188.985
174.499
162.951
152.88
143.699
135.113
126.939
119.054
111.359
103.774
192.201
178.599
166.778
156.202
146.482
137.365
128.675
120.285
112.095
104.019
193.425
180.917
169.36
158.666
148.664
139.19
130.111
121.317
112.715
104.226
194.008
182.284
171.078
160.44
150.316
140.619
131.261
122.155
113.225
104.397
194.335
183.132
172.229
161.699
151.539
141.711
132.158
122.819
113.631
104.533
194.536
183.679
173.009
162.587
152.432
142.527
132.842
123.331
113.947
104.64
194.665
184.041
173.539
163.209
153.072
143.125
133.35
123.716
114.187
104.722
194.75
184.282
173.899
163.638
153.522
143.552
133.717
123.997
114.362
104.781
194.805
184.438
174.134
163.924
153.825
143.843
133.97
124.192
114.485
104.823
194.837
184.531
174.277
164.098
154.012
144.024
134.129
124.315
114.563
104.85
194.852
184.574
174.343
164.18
154.102
144.112
134.207
124.376
114.601
104.863
194.851
184.571
174.339
164.178
154.102
144.114
134.211
124.38
114.605
104.864
194.833
184.521
174.266
164.092
154.014
144.033
134.143
124.329
114.573
104.853
194.795
184.415
174.11
163.91
153.828
143.861
133.998
124.221
114.506
104.831
194.73
184.235
173.85
163.611
153.526
143.585
133.768
124.049
114.401
104.795
194.622
183.944
173.444
163.158
153.081
143.187
133.44
123.807
114.253
104.746
194.439
183.477
172.824
162.497
152.454
142.64
132.999
123.486
114.058
104.68
194.097
182.701
171.879
161.552
151.6
141.919
132.432
123.08
113.814
104.599
193.349
181.351
170.44
160.233
150.474
141.006
131.732
122.586
113.521
104.502
191.301
178.916
168.299
158.468
149.059
139.902
130.905
122.012
113.183
104.39
188.985
174.499
162.951
152.88
143.699
135.113
126.939
119.054
111.359
103.774
192.201
178.599
166.778
156.202
146.482
137.365
128.675
120.285
112.095
104.019
193.425
180.917
169.36
158.666
148.664
139.19
130.111
121.317
112.715
104.226
194.008
182.284
171.078
160.44
150.316
140.619
131.261
122.155
113.225
104.397
194.335
183.132
172.229
161.699
151.539
141.711
132.158
122.819
113.631
104.533
194.536
183.679
173.009
162.587
152.432
142.527
132.842
123.331
113.947
104.64
194.665
184.041
173.539
163.209
153.072
143.125
133.35
123.716
114.187
104.722
194.75
184.282
173.899
163.638
153.522
143.552
133.717
123.997
114.362
104.781
194.805
184.438
174.134
163.924
153.825
143.843
133.97
124.192
114.485
104.823
194.837
184.531
174.277
164.098
154.012
144.024
134.129
124.315
114.563
104.85
194.852
184.574
174.343
164.18
154.102
144.112
134.207
124.376
114.601
104.863
194.851
184.571
174.339
164.178
154.102
144.114
134.211
124.38
114.605
104.864
194.833
184.521
174.266
164.092
154.014
144.033
134.143
124.329
114.573
104.853
194.795
184.415
174.11
163.91
153.828
143.861
133.998
124.221
114.506
104.831
194.73
184.235
173.85
163.611
153.526
143.585
133.768
124.049
114.401
104.795
194.622
183.944
173.444
163.158
153.081
143.187
133.44
123.807
114.253
104.746
194.439
183.477
172.824
162.497
152.454
142.64
132.999
123.486
114.058
104.68
194.097
182.701
171.879
161.552
151.6
141.919
132.432
123.08
113.814
104.599
193.349
181.351
170.44
160.233
150.474
141.006
131.732
122.586
113.521
104.502
191.301
178.916
168.299
158.468
149.059
139.902
130.905
122.012
113.183
104.39
188.986
174.501
162.953
152.882
143.702
135.115
126.941
119.056
111.361
103.775
192.203
178.601
166.78
156.204
146.485
137.367
128.677
120.287
112.096
104.02
193.427
180.919
169.362
158.669
148.666
139.192
130.113
121.318
112.717
104.227
194.01
182.286
171.081
160.442
150.318
140.622
131.263
122.157
113.226
104.398
194.337
183.134
172.232
161.702
151.542
141.714
132.16
122.821
113.633
104.534
194.537
183.682
173.012
162.59
152.434
142.53
132.844
123.333
113.949
104.641
194.667
184.044
173.543
163.212
153.075
143.128
133.353
123.718
114.189
104.723
194.752
184.285
173.902
163.642
153.525
143.555
133.72
123.999
114.364
104.782
194.807
184.441
174.138
163.927
153.828
143.846
133.973
124.194
114.487
104.824
194.839
184.535
174.28
164.102
154.015
144.027
134.132
124.317
114.565
104.851
194.854
184.578
174.346
164.184
154.105
144.115
134.21
124.378
114.603
104.864
194.853
184.575
174.343
164.182
154.105
144.117
134.214
124.383
114.607
104.865
194.835
184.525
174.269
164.095
154.017
144.036
134.146
124.332
114.576
104.855
194.798
184.419
174.114
163.914
153.831
143.864
134.001
124.223
114.509
104.832
194.733
184.238
173.854
163.615
153.53
143.589
133.771
124.052
114.403
104.797
194.625
183.948
173.448
163.162
153.085
143.19
133.443
123.81
114.255
104.747
194.442
183.481
172.828
162.501
152.458
142.643
133.003
123.489
114.061
104.682
194.1
182.705
171.883
161.556
151.603
141.923
132.436
123.082
113.817
104.601
193.352
181.355
170.444
160.237
150.478
141.01
131.735
122.589
113.524
104.503
191.304
178.92
168.303
158.472
149.062
139.905
130.908
122.014
113.186
104.392
184.244
174.72
165.375
156.287
147.396
138.641
129.978
121.376
112.812
104.269
178.058
170.344
162.193
153.909
145.597
137.288
128.99
120.701
112.419
104.139
173.081
166.407
159.146
151.561
143.796
135.926
127.993
120.02
112.022
104.009
169.109
163.059
156.425
149.396
142.103
134.631
127.039
119.366
111.64
103.883
165.948
160.296
154.103
147.499
140.59
133.459
126.168
118.765
111.288
103.768
163.46
158.076
152.194
145.907
139.301
132.449
125.411
118.241
110.98
103.666
161.553
156.353
150.691
144.637
138.26
131.625
124.79
117.808
110.725
103.582
160.169
155.093
149.582
143.69
137.477
131.001
124.317
117.478
110.529
103.518
159.266
154.268
148.851
143.063
136.956
130.584
124.001
117.256
110.397
103.474
158.821
153.861
148.489
142.751
136.696
130.376
123.843
117.146
110.332
103.457
184.24
174.716
165.371
156.284
147.393
138.638
129.975
121.373
112.81
104.267
178.055
170.34
162.189
153.905
145.593
137.285
128.986
120.698
112.416
104.138
173.077
166.403
159.142
151.558
143.793
135.923
127.99
120.017
112.019
104.007
169.106
163.056
156.422
149.393
142.099
134.628
127.036
119.362
111.637
103.882
165.945
160.293
154.1
147.496
140.587
133.455
126.165
118.762
111.285
103.766
163.457
158.073
152.191
145.904
139.298
132.445
125.408
118.237
110.976
103.664
161.551
156.351
150.689
144.634
138.257
131.621
124.786
117.804
110.72
103.579
160.166
155.091
149.579
143.687
137.474
130.997
124.313
117.473
110.524
103.514
159.263
154.266
148.848
143.06
136.953
130.581
123.996
117.251
110.391
103.47
158.818
153.858
148.486
142.748
136.693
130.372
123.838
117.14
110.325
103.451
184.24
174.716
165.371
156.284
147.393
138.638
129.975
121.373
112.81
104.267
178.055
170.34
162.189
153.905
145.593
137.285
128.986
120.698
112.416
104.138
173.077
166.403
159.142
151.558
143.793
135.923
127.99
120.017
112.019
104.007
169.106
163.056
156.422
149.393
142.099
134.628
127.036
119.362
111.637
103.882
165.945
160.293
154.1
147.496
140.587
133.455
126.165
118.762
111.285
103.766
163.457
158.073
152.191
145.904
139.298
132.445
125.408
118.237
110.976
103.664
161.551
156.351
150.689
144.634
138.257
131.621
124.786
117.804
110.72
103.579
160.166
155.091
149.579
143.687
137.474
130.997
124.313
117.473
110.524
103.514
159.263
154.266
148.849
143.06
136.953
130.581
123.996
117.251
110.391
103.47
158.818
153.858
148.486
142.748
136.693
130.372
123.838
117.14
110.325
103.451
184.244
174.72
165.375
156.287
147.396
138.641
129.978
121.376
112.812
104.269
178.058
170.344
162.193
153.909
145.597
137.288
128.99
120.701
112.419
104.139
173.081
166.407
159.146
151.561
143.796
135.926
127.993
120.02
112.022
104.009
169.109
163.059
156.425
149.396
142.103
134.631
127.039
119.366
111.64
103.883
165.948
160.296
154.103
147.499
140.59
133.459
126.168
118.765
111.288
103.768
163.46
158.076
152.194
145.907
139.301
132.449
125.411
118.241
110.98
103.666
161.554
156.353
150.692
144.637
138.26
131.625
124.79
117.808
110.725
103.582
160.169
155.093
149.582
143.69
137.477
131.001
124.317
117.478
110.529
103.518
159.266
154.269
148.851
143.063
136.956
130.585
124.001
117.256
110.397
103.474
158.821
153.861
148.489
142.751
136.696
130.376
123.843
117.146
110.332
103.457
192.891
195.655
196.828
197.465
197.87
198.148
198.343
198.477
198.561
198.602
198.602
198.562
198.478
198.345
198.15
197.873
197.468
196.831
195.658
192.893
184.56
188.556
191.02
192.63
193.739
194.528
195.09
195.48
195.726
195.846
195.846
195.728
195.483
195.095
194.534
193.746
192.637
191.027
188.563
184.566
178.739
182.991
186.066
188.295
189.93
191.134
192.012
192.626
193.018
193.209
193.21
193.021
192.632
192.019
191.144
189.941
188.307
186.078
183.003
178.75
174.334
178.602
181.958
184.556
186.551
188.068
189.196
189.997
190.511
190.763
190.765
190.516
190.005
189.207
188.082
186.568
184.574
181.977
178.621
174.352
170.901
175.126
178.608
181.42
183.652
185.392
186.709
187.655
188.267
188.569
188.571
188.274
187.666
186.724
185.411
183.675
181.445
178.635
175.154
170.929
168.223
172.395
175.93
178.863
181.247
183.14
184.593
185.648
186.335
186.675
186.678
186.344
185.663
184.614
183.166
181.277
178.897
175.967
172.434
168.264
166.179
170.301
173.855
176.856
179.335
181.33
182.878
184.01
184.752
185.121
185.124
184.763
184.029
182.903
181.362
179.373
176.899
173.903
170.352
166.233
164.695
168.777
172.335
175.373
177.91
179.97
181.58
182.765
183.544
183.933
183.937
183.558
182.787
181.61
180.008
177.956
175.426
172.393
168.84
164.762
163.726
167.781
171.337
174.394
176.964
179.062
180.71
181.927
182.73
183.131
183.136
182.745
181.952
180.744
179.106
177.016
174.455
171.405
167.855
163.804
163.247
167.288
170.843
173.908
176.492
178.608
180.273
181.506
182.32
182.727
182.732
182.336
181.532
180.31
178.655
176.548
173.974
170.916
167.368
163.332
192.893
195.657
196.829
197.467
197.872
198.149
198.344
198.477
198.561
198.602
198.602
198.561
198.477
198.344
198.15
197.872
197.467
196.829
195.656
192.891
184.563
188.559
191.022
192.632
193.741
194.529
195.091
195.48
195.726
195.846
195.846
195.727
195.482
195.094
194.532
193.745
192.635
191.025
188.561
184.563
178.742
182.994
186.069
188.298
189.932
191.136
192.013
192.627
193.018
193.209
193.21
193.021
192.631
192.018
191.142
189.939
188.305
186.076
183
178.747
174.337
178.605
181.961
184.558
186.553
188.07
189.197
189.998
190.511
190.763
190.764
190.515
190.004
189.206
188.081
186.566
184.572
181.974
178.618
174.349
170.904
175.129
178.611
181.422
183.654
185.394
186.71
187.656
188.268
188.569
188.571
188.273
187.665
186.723
185.41
183.673
181.443
178.633
175.152
170.926
168.226
172.398
175.932
178.865
181.249
183.142
184.595
185.649
186.336
186.675
186.678
186.344
185.662
184.612
183.164
181.276
178.895
175.965
172.432
168.261
166.182
170.304
173.857
176.858
179.337
181.332
182.879
184.011
184.753
185.121
185.124
184.763
184.028
182.902
181.361
179.372
176.897
173.901
170.35
166.23
164.698
168.78
172.337
175.375
177.912
179.971
181.581
182.766
183.545
183.933
183.937
183.557
182.786
181.609
180.007
177.954
175.424
172.391
168.838
164.759
163.729
167.784
171.34
174.397
176.966
179.063
180.711
181.928
182.73
183.131
183.136
182.744
181.951
180.743
179.104
177.015
174.454
171.403
167.853
163.802
163.25
167.291
170.845
173.91
176.493
178.609
180.274
181.506
182.32
182.727
182.732
182.336
181.532
180.309
178.654
176.547
173.972
170.914
167.366
163.33
192.893
195.657
196.829
197.467
197.872
198.149
198.344
198.477
198.561
198.602
198.602
198.561
198.477
198.344
198.15
197.872
197.467
196.829
195.656
192.891
184.563
188.559
191.022
192.632
193.741
194.529
195.091
195.48
195.726
195.845
195.846
195.727
195.482
195.094
194.532
193.745
192.635
191.025
188.561
184.563
178.742
182.994
186.069
188.298
189.932
191.136
192.013
192.627
193.018
193.209
193.21
193.021
192.631
192.018
191.142
189.939
188.305
186.076
183
178.747
174.337
178.605
181.961
184.558
186.553
188.07
189.197
189.998
190.511
190.763
190.764
190.515
190.004
189.206
188.081
186.566
184.572
181.974
178.618
174.349
170.904
175.129
178.611
181.422
183.654
185.394
186.71
187.656
188.268
188.569
188.571
188.273
187.665
186.723
185.41
183.673
181.443
178.633
175.152
170.926
168.226
172.398
175.932
178.865
181.249
183.142
184.595
185.649
186.336
186.675
186.678
186.344
185.662
184.612
183.164
181.276
178.895
175.965
172.432
168.261
166.182
170.304
173.857
176.858
179.337
181.332
182.879
184.011
184.753
185.121
185.124
184.763
184.028
182.902
181.361
179.372
176.897
173.901
170.35
166.23
164.698
168.78
172.337
175.375
177.912
179.971
181.581
182.766
183.545
183.933
183.937
183.557
182.786
181.609
180.007
177.954
175.424
172.391
168.838
164.759
163.729
167.784
171.34
174.397
176.966
179.064
180.711
181.928
182.73
183.131
183.136
182.745
181.951
180.743
179.105
177.015
174.454
171.403
167.853
163.802
163.25
167.291
170.845
173.91
176.494
178.609
180.274
181.507
182.32
182.727
182.732
182.336
181.532
180.309
178.654
176.547
173.972
170.915
167.366
163.33
192.891
195.655
196.828
197.465
197.87
198.148
198.343
198.477
198.561
198.602
198.602
198.562
198.478
198.345
198.15
197.873
197.468
196.831
195.658
192.893
184.56
188.556
191.02
192.63
193.739
194.528
195.09
195.48
195.726
195.846
195.846
195.728
195.483
195.095
194.534
193.746
192.637
191.027
188.563
184.566
178.739
182.991
186.066
188.295
189.93
191.134
192.012
192.626
193.018
193.209
193.21
193.021
192.632
192.019
191.144
189.941
188.307
186.078
183.003
178.75
174.334
178.602
181.958
184.556
186.551
188.068
189.196
189.997
190.511
190.763
190.765
190.516
190.005
189.207
188.082
186.568
184.574
181.977
178.621
174.352
170.901
175.126
178.608
181.42
183.652
185.392
186.709
187.655
188.267
188.569
188.571
188.274
187.666
186.724
185.411
183.675
181.445
178.635
175.154
170.929
168.223
172.395
175.93
178.863
181.247
183.14
184.593
185.648
186.335
186.675
186.678
186.344
185.663
184.614
183.166
181.277
178.897
175.967
172.434
168.264
166.179
170.301
173.855
176.856
179.335
181.33
182.878
184.01
184.752
185.121
185.124
184.763
184.029
182.903
181.362
179.373
176.899
173.903
170.352
166.233
164.695
168.777
172.335
175.373
177.91
179.97
181.58
182.765
183.544
183.933
183.937
183.558
182.787
181.61
180.008
177.956
175.426
172.394
168.841
164.762
163.726
167.781
171.337
174.395
176.964
179.062
180.71
181.927
182.73
183.131
183.136
182.745
181.952
180.745
179.106
177.016
174.455
171.405
167.855
163.804
163.247
167.289
170.843
173.908
176.492
178.608
180.273
181.506
182.32
182.727
182.732
182.336
181.533
180.31
178.655
176.549
173.974
170.916
167.369
163.332
104.269
112.813
121.379
129.983
138.648
147.403
156.293
165.379
174.722
184.242
104.139
112.419
120.703
128.993
137.292
145.601
153.912
162.194
170.343
178.055
104.008
112.021
120.02
127.994
135.927
143.796
151.559
159.142
166.4
173.072
103.882
111.637
119.363
127.036
134.626
142.096
149.387
156.413
163.044
169.093
103.765
111.283
118.758
126.158
133.446
140.574
147.479
154.08
160.27
165.921
103.662
110.971
118.228
125.394
132.426
139.273
145.875
152.158
158.037
163.42
103.577
110.712
117.788
124.763
131.59
138.218
144.59
150.64
156.3
161.499
103.51
110.512
117.449
124.279
130.953
137.421
143.628
149.515
155.025
160.1
103.465
110.376
117.218
123.95
130.523
136.886
142.986
148.771