/*--------------------------------*- C++ -*----------------------------------*\
| =========                 |                                                 |
| \\      /  F ield         | OpenFOAM: The Open Source CFD Toolbox           |
|  \\    /   O peration     | Version:  2.4.0                                 |
|   \\  /    A nd           | Web:      www.OpenFOAM.org                      |
|    \\/     M anipulation  |                                                 |
\*---------------------------------------------------------------------------*/
FoamFile
{
    version     2.0;
    format      ascii;
    class       volScalarField;
    location    "0.77";
    object      T;
}
// * * * * * * * * * * * * * * * * * * * * * * * * * * * * * * * * * * * * * //

dimensions      [0 0 0 1 0 0 0];

internalField   nonuniform List<scalar> 
1600
(
101.41
104.229
107.046
109.859
112.665
115.463
118.252
121.03
123.794
126.544
129.277
131.992
134.688
137.363
140.016
142.647
145.253
147.834
150.389
152.919
155.422
157.898
160.348
162.772
165.171
167.544
169.893
172.22
174.525
176.809
179.075
181.324
183.558
185.778
187.986
190.184
192.374
194.557
196.736
198.912
101.411
104.232
107.051
109.865
112.673
115.473
118.264
121.043
123.809
126.56
129.295
132.012
134.709
137.386
140.04
142.671
145.278
147.86
150.416
152.945
155.448
157.925
160.374
162.798
165.195
167.568
169.916
172.241
174.545
176.828
179.093
181.34
183.572
185.79
187.996
190.193
192.381
194.562
196.739
198.913
101.413
104.237
107.06
109.878
112.689
115.493
118.287
121.069
123.839
126.593
129.331
132.05
134.75
137.429
140.085
142.718
145.327
147.91
150.467
152.997
155.501
157.977
160.426
162.849
165.245
167.616
169.962
172.285
174.586
176.867
179.128
181.372
183.6
185.815
188.018
190.21
192.394
194.572
196.745
198.915
101.415
104.245
107.073
109.896
112.713
115.522
118.321
121.108
123.882
126.641
129.383
132.107
134.811
137.493
140.153
142.788
145.399
147.984
150.543
153.074
155.578
158.054
160.502
162.924
165.318
167.687
170.031
172.351
174.648
176.924
179.181
181.42
183.643
185.852
188.049
190.236
192.415
194.586
196.754
198.918
101.419
104.256
107.091
109.921
112.745
115.56
118.366
121.16
123.94
126.705
129.453
132.182
134.89
137.577
140.241
142.88
145.494
148.082
150.642
153.175
155.679
158.155
160.603
163.023
165.416
167.781
170.122
172.437
174.729
177
179.251
181.484
183.7
185.902
188.092
190.271
192.442
194.606
196.765
198.922
101.423
104.269
107.112
109.951
112.784
115.608
118.422
121.224
124.012
126.784
129.538
132.274
134.989
137.681
140.35
142.994
145.611
148.202
150.765
153.299
155.804
158.281
160.728
163.146
165.536
167.898
170.234
172.545
174.831
177.095
179.339
181.564
183.772
185.965
188.145
190.315
192.476
194.631
196.78
198.927
101.429
104.285
107.138
109.988
112.83
115.664
118.488
121.299
124.096
126.877
129.64
132.383
135.105
137.804
140.479
143.128
145.75
148.345
150.91
153.447
155.953
158.429
160.876
163.292
165.679
168.038
170.369
172.673
174.953
177.209
179.444
181.659
183.857
186.04
188.209
190.368
192.517
194.66
196.798
198.933
101.435
104.303
107.169
110.03
112.884
115.73
118.565
121.387
124.195
126.986
129.758
132.51
135.24
137.947
140.628
143.283
145.911
148.509
151.078
153.617
156.124
158.601
161.046
163.461
165.845
168.199
170.525
172.822
175.094
177.342
179.567
181.771
183.957
186.128
188.284
190.43
192.566
194.695
196.819
198.94
101.442
104.324
107.203
110.078
112.946
115.805
118.653
121.487
124.306
127.109
129.892
132.654
135.393
138.108
140.797
143.459
146.092
148.695
151.268
153.809
156.318
158.795
161.239
163.652
166.032
168.382
170.701
172.992
175.255
177.493
179.707
181.899
184.072
186.228
188.371
190.501
192.621
194.735
196.843
198.948
101.449
104.347
107.242
110.132
113.015
115.889
118.751
121.599
124.432
127.246
130.041
132.814
135.564
138.288
140.985
143.654
146.293
148.902
151.478
154.022
156.533
159.01
161.454
163.864
166.241
168.585
170.898
173.181
175.435
177.662
179.864
182.042
184.201
186.342
188.468
190.581
192.684
194.779
196.87
198.957
101.458
104.373
107.286
110.193
113.092
115.982
118.86
121.724
124.571
127.399
130.207
132.992
135.752
138.487
141.193
143.87
146.515
149.129
151.71
154.257
156.769
159.247
161.689
164.097
166.47
168.809
171.115
173.39
175.633
177.849
180.037
182.202
184.344
186.468
188.576
190.67
192.754
194.83
196.9
198.967
101.468
104.402
107.333
110.259
113.178
116.085
118.98
121.861
124.723
127.567
130.389
133.187
135.959
138.704
141.42
144.105
146.758
149.377
151.962
154.512
157.026
159.504
161.945
164.35
166.719
169.052
171.351
173.617
175.85
178.053
180.228
182.377
184.502
186.607
188.695
190.769
192.831
194.885
196.933
198.978
101.478
104.434
107.386
110.333
113.271
116.198
119.112
122.011
124.891
127.75
130.587
133.399
136.184
138.941
141.667
144.36
147.02
149.646
152.235
154.788
157.303
159.781
162.221
164.623
166.987
169.315
171.606
173.862
176.084
178.275
180.435
182.567
184.674
186.76
188.826
190.877
192.916
194.946
196.97
198.99
101.49
104.468
107.444
110.413
113.373
116.322
119.257
122.175
125.073
127.95
130.803
133.63
136.429
139.197
141.934
144.637
147.304
149.936
152.529
155.085
157.602
160.079
162.517
164.916
167.275
169.596
171.879
174.126
176.336
178.513
180.658
182.773
184.861
186.925
188.969
190.996
193.009
195.013
197.011
199.004
101.503
104.507
107.507
110.501
113.485
116.457
119.414
122.354
125.272
128.168
131.038
133.881
136.694
139.475
142.223
144.935
147.61
150.248
152.846
155.405
157.922
160.399
162.835
165.23
167.584
169.898
172.172
174.408
176.606
178.769
180.897
182.994
185.062
187.104
189.123
191.124
193.11
195.085
197.054
199.018
101.517
104.548
107.576
110.597
113.608
116.605
119.586
122.548
125.489
128.404
131.293
134.153
136.981
139.776
142.535
145.257
147.941
150.584
153.187
155.748
158.267
160.743
163.177
165.567
167.916
170.222
172.486
174.71
176.895
179.043
181.154
183.231
185.278
187.296
189.29
191.263
193.22
195.164
197.102
199.034
101.532
104.594
107.652
110.702
113.741
116.766
119.773
122.76
125.724
128.662
131.57
134.448
137.293
140.102
142.873
145.606
148.297
150.948
153.555
156.119
158.639
161.114
163.545
165.931
168.272
170.569
172.823
175.035
177.206
179.336
181.429
183.486
185.51
187.503
189.47
191.413
193.338
195.25
197.154
199.051
101.549
104.644
107.735
110.817
113.887
116.942
119.977
122.991
125.98
128.941
131.872
134.769
137.63
140.455
143.239
145.983
148.684
151.341
153.953
156.52
159.041
161.515
163.942
166.323
168.657
170.945
173.187
175.385
177.54
179.652
181.725
183.76
185.759
187.726
189.663
191.575
193.467
195.343
197.21
199.07
101.567
104.698
107.825
110.942
114.046
117.134
120.201
123.244
126.26
129.246
132.2
135.118
137.998
140.838
143.637
146.392
149.102
151.767
154.385
156.954
159.476
161.949
164.373
166.747
169.073
171.351
173.581
175.764
177.901
179.994
182.045
184.055
186.027
187.965
189.871
191.75
193.605
195.443
197.271
199.09
101.587
104.759
107.925
111.08
114.221
117.344
120.445
123.52
126.566
129.579
132.557
135.498
138.398
141.256
144.069
146.837
149.558
152.23
154.853
157.427
159.949
162.42
164.84
167.209
169.526
171.792
174.008
176.175
178.293
180.365
182.391
184.374
186.318
188.224
190.096
191.939
193.756
195.552
197.337
199.112
101.609
104.825
108.034
111.232
114.414
117.576
120.713
123.823
126.901
129.944
132.949
135.913
138.835
141.711
144.541
147.322
150.054
152.735
155.364
157.941
160.464
162.934
165.35
167.711
170.019
172.273
174.474
176.623
178.72
180.768
182.768
184.722
186.634
188.505
190.341
192.144
193.919
195.671
197.409
199.135
101.633
104.898
108.155
111.399
114.626
117.83
121.008
124.155
127.268
130.343
133.377
136.368
139.313
142.209
145.056
147.852
150.596
153.286
155.921
158.502
161.026
163.494
165.905
168.259
170.556
172.797
174.982
177.111
179.186
181.209
183.18
185.102
186.978
188.812
190.606
192.367
194.096
195.8
197.488
199.161
101.66
104.978
108.288
111.583
114.859
118.111
121.333
124.521
127.672
130.782
133.848
136.866
139.836
142.755
145.62
148.432
151.188
153.888
156.53
159.114
161.639
164.105
166.511
168.857
171.144
173.37
175.537
177.645
179.696
181.691
183.63
185.518
187.356
189.147
190.897
192.61
194.289
195.941
197.574
199.19
101.69
105.068
108.436
111.788
115.118
118.421
121.692
124.925
128.117
131.265
134.365
137.414
140.41
143.352
146.238
149.066
151.835
154.545
157.195
159.783
162.309
164.773
167.174
169.511
171.785
173.996
176.144
178.23
180.254
182.219
184.124
185.974
187.77
189.516
191.217
192.877
194.502
196.096
197.669
199.221
101.724
105.167
108.6
112.015
115.405
118.765
122.088
125.371
128.608
131.797
134.933
138.015
141.041
144.007
146.914
149.76
152.543
155.264
157.921
160.514
163.041
165.502
167.897
170.226
172.487
174.681
176.809
178.87
180.866
182.798
184.667
186.475
188.226
189.922
191.569
193.171
194.735
196.266
197.773
199.256
101.761
105.278
108.782
112.267
115.723
119.146
122.528
125.864
129.151
132.384
135.56
138.677
141.733
144.726
147.655
150.52
153.318
156.05
158.715
161.312
163.84
166.299
168.688
171.006
173.254
175.431
177.536
179.572
181.537
183.434
185.263
187.027
188.728
190.37
191.958
193.497
194.993
196.454
197.889
199.294
101.802
105.402
108.986
112.548
116.078
119.569
123.015
126.41
129.75
133.031
136.25
139.404
142.493
145.514
148.467
151.351
154.165
156.909
159.582
162.183
164.712
167.168
169.55
171.858
174.092
176.25
178.333
180.341
182.274
184.133
185.92
187.636
189.283
190.866
192.389
193.858
195.28
196.663
198.017
199.337
101.849
105.54
109.215
112.862
116.474
120.041
123.557
127.016
130.414
133.746
137.01
140.205
143.328
146.378
149.356
152.26
155.091
157.847
160.528
163.134
165.663
168.116
170.491
172.789
175.007
177.146
179.205
181.183
183.082
184.902
186.643
188.307
189.896
191.415
192.867
194.259
195.599
196.895
198.159
199.385
101.901
105.696
109.471
113.215
116.917
120.568
124.161
127.689
131.148
134.535
137.848
141.084
144.244
147.325
150.329
153.254
156.101
158.869
161.559
164.169
166.699
169.149
171.517
173.803
176.005
178.124
180.158
182.106
183.969
185.747
187.439
189.048
190.576
192.024
193.399
194.707
195.956
197.156
198.319
199.438
101.96
105.872
109.76
113.612
117.414
121.157
124.833
128.436
131.962
135.408
138.771
142.051
145.248
148.362
151.392
154.338
157.202
159.983
162.681
165.295
167.826
170.272
172.632
174.907
177.093
179.191
181.199
183.116
184.942
186.676
188.318
189.868
191.329
192.702
193.993
195.208
196.356
197.448
198.498
199.498
102.027
106.072
110.088
114.06
117.974
121.818
125.584
129.268
132.864
136.371
139.787
143.113
146.349
149.494
152.551
155.52
158.4
161.193
163.9
166.518
169.049
171.492
173.845
176.107
178.277
180.354
182.336
184.221
186.009
187.697
189.286
190.775
192.165
193.458
194.657
195.771
196.807
197.779
198.7
199.565
102.104
106.3
110.462
114.569
118.606
122.561
126.425
130.193
133.864
137.434
140.905
144.278
147.552
150.731
153.814
156.804
159.701
162.507
165.221
167.844
170.375
172.814
175.159
177.41
179.564
181.62
183.575
185.428
187.177
188.82
190.354
191.779
193.095
194.302
195.403
196.406
197.318
198.155
198.929
199.643
102.193
106.564
110.892
115.151
119.324
123.399
127.367
131.225
134.972
138.608
142.134
145.553
148.866
152.077
155.187
158.198
161.111
163.929
166.651
169.278
171.809
174.244
176.582
178.821
180.959
182.994
184.924
186.746
188.456
190.053
191.532
192.892
194.131
195.248
196.244
197.126
197.9
198.585
199.192
199.733
102.298
106.872
111.391
115.821
120.144
124.348
128.425
132.376
136.201
139.902
143.483
146.947
150.298
153.54
156.675
159.707
162.636
165.465
168.194
170.824
173.356
175.787
178.118
180.346
182.469
184.485
186.39
188.181
189.855
191.406
192.832
194.126
195.287
196.311
197.197
197.948
198.571
199.083
199.499
199.839
102.423
107.239
111.978
116.601
121.086
125.426
129.616
133.66
137.562
141.327
144.96
148.468
151.856
155.127
158.286
161.336
164.279
167.119
169.855
172.489
175.02
177.449
179.773
181.991
184.1
186.098
187.981
189.744
191.382
192.891
194.265
195.497
196.58
197.51
198.281
198.894
199.351
199.669
199.862
199.968
102.577
107.685
112.681
117.517
122.177
126.656
130.959
135.094
139.069
142.894
146.576
150.124
153.544
156.842
160.023
163.09
166.047
168.896
171.638
174.275
176.807
179.233
181.552
183.761
185.858
187.84
189.703
191.441
193.048
194.519
195.845
197.018
198.028
198.867
199.523
199.992
200.269
200.37
200.302
200.124
102.775
108.248
113.541
118.609
123.447
128.064
132.474
136.692
140.734
144.613
148.339
151.922
155.371
158.692
161.891
164.973
167.942
170.799
173.548
176.188
178.72
181.144
183.459
185.661
187.749
189.718
191.564
193.281
194.862
196.3
197.586
198.708
199.653
200.408
200.956
201.281
201.37
201.229
200.846
200.319
103.048
108.991
114.62
119.925
124.934
129.677
134.181
138.472
142.571
146.494
150.256
153.868
157.341
160.681
163.896
166.991
169.969
172.834
175.588
178.231
180.765
183.188
185.5
187.698
189.778
191.738
193.571
195.272
196.834
198.247
199.501
200.582
201.475
202.161
202.616
202.813
202.718
202.315
201.551
200.58
103.508
110.031
115.995
121.521
126.679
131.525
136.104
140.45
144.592
148.549
152.337
155.972
159.462
162.818
166.045
169.149
172.135
175.006
177.765
180.412
182.947
185.371
187.682
189.877
191.953
193.907
195.733
197.424
198.973
200.369
201.601
202.655
203.512
204.151
204.539
204.641
204.397
203.752
202.564
201.02
104.355
111.616
117.855
123.529
128.778
133.683
138.301
142.677
146.841
150.815
154.618
158.265
161.765
165.128
168.362
171.472
174.463
177.338
180.099
182.747
185.284
187.708
190.018
192.212
194.287
196.237
198.059
199.745
201.287
202.674
203.895
204.934
205.77
206.382
206.732
206.782
206.456
205.674
204.194
202.069
)
;

boundaryField
{
    carasuperior
    {
        type            fixedGradient;
        gradient        uniform 100;
    }
    lateralizquierda
    {
        type            fixedValue;
        value           uniform 100;
    }
    lateralderecha
    {
        type            fixedValue;
        value           uniform 200;
    }
    carainferior
    {
        type            zeroGradient;
    }
    frontAndBack
    {
        type            empty;
    }
}


// ************************************************************************* //
