/*--------------------------------*- C++ -*----------------------------------*\
| =========                 |                                                 |
| \\      /  F ield         | OpenFOAM: The Open Source CFD Toolbox           |
|  \\    /   O peration     | Version:  2.4.0                                 |
|   \\  /    A nd           | Web:      www.OpenFOAM.org                      |
|    \\/     M anipulation  |                                                 |
\*---------------------------------------------------------------------------*/
FoamFile
{
    version     2.0;
    format      ascii;
    class       volScalarField;
    location    "0.315";
    object      T;
}
// * * * * * * * * * * * * * * * * * * * * * * * * * * * * * * * * * * * * * //

dimensions      [0 0 0 1 0 0 0];

internalField   nonuniform List<scalar> 
1600
(
101.051
103.155
105.262
107.377
109.501
111.637
113.787
115.954
118.139
120.345
122.574
124.827
127.105
129.41
131.743
134.104
136.495
138.915
141.364
143.844
146.353
148.891
151.458
154.054
156.677
159.327
162.003
164.704
167.429
170.177
172.947
175.736
178.544
181.369
184.209
187.062
189.926
192.798
195.676
198.558
101.052
103.157
105.267
107.383
109.509
111.646
113.798
115.967
118.154
120.362
122.592
124.846
127.126
129.432
131.766
134.128
136.52
138.94
141.39
143.87
146.379
148.917
151.484
154.079
156.702
159.351
162.026
164.726
167.45
170.196
172.964
175.752
178.559
181.382
184.22
187.071
189.933
192.803
195.679
198.559
101.054
103.162
105.275
107.395
109.524
111.665
113.82
115.992
118.182
120.393
122.626
124.883
127.165
129.474
131.81
134.174
136.568
138.99
141.441
143.922
146.431
148.97
151.536
154.131
156.752
159.4
162.073
164.771
167.492
170.236
173.001
175.785
178.588
181.408
184.242
187.089
189.947
192.813
195.685
198.561
101.056
103.17
105.288
107.413
109.547
111.693
113.853
116.029
118.224
120.44
122.677
124.938
127.224
129.536
131.876
134.243
136.639
139.063
141.516
143.998
146.508
149.047
151.613
154.207
156.827
159.473
162.143
164.838
167.556
170.295
173.055
175.835
178.632
181.446
184.275
187.116
189.968
192.828
195.694
198.564
101.06
103.18
105.305
107.436
109.577
111.73
113.896
116.079
118.28
120.501
122.744
125.01
127.302
129.618
131.962
134.333
136.732
139.159
141.614
144.098
146.609
149.148
151.715
154.307
156.925
159.569
162.236
164.927
167.64
170.374
173.128
175.901
178.691
181.498
184.319
187.152
189.996
192.848
195.706
198.569
101.064
103.193
105.326
107.466
109.615
111.776
113.95
116.141
118.349
120.577
122.827
125.1
127.397
129.72
132.069
134.444
136.847
139.278
141.736
144.222
146.734
149.274
151.84
154.431
157.047
159.688
162.351
165.037
167.744
170.471
173.218
175.983
178.765
181.563
184.374
187.198
190.032
192.874
195.722
198.574
101.069
103.208
105.351
107.501
109.66
111.831
114.014
116.214
118.431
120.668
122.926
125.207
127.511
129.84
132.195
134.576
136.984
139.418
141.88
144.368
146.882
149.423
151.988
154.578
157.192
159.829
162.488
165.168
167.868
170.588
173.326
176.082
178.853
181.64
184.44
187.252
190.074
192.904
195.74
198.58
101.075
103.226
105.381
107.542
109.713
111.894
114.089
116.3
118.527
120.774
123.041
125.33
127.643
129.98
132.341
134.729
137.142
139.581
142.046
144.537
147.053
149.594
152.159
154.748
157.359
159.992
162.646
165.32
168.013
170.724
173.452
176.197
178.956
181.73
184.517
187.316
190.124
192.94
195.761
198.587
101.082
103.246
105.415
107.59
109.773
111.967
114.175
116.397
118.636
120.894
123.172
125.471
127.793
130.138
132.507
134.901
137.32
139.764
142.234
144.727
147.246
149.788
152.353
154.94
157.548
160.177
162.825
165.492
168.177
170.878
173.595
176.328
179.074
181.834
184.606
187.389
190.181
192.981
195.786
198.595
101.089
103.269
105.453
107.643
109.841
112.05
114.271
116.507
118.759
121.029
123.318
125.628
127.96
130.314
132.692
135.094
137.519
139.969
142.442
144.939
147.46
150.002
152.567
155.152
157.758
160.382
163.025
165.684
168.36
171.05
173.755
176.474
179.206
181.95
184.705
187.471
190.245
193.027
195.814
198.604
101.098
103.294
105.495
107.702
109.917
112.141
114.378
116.629
118.895
121.179
123.481
125.803
128.145
130.51
132.897
135.306
137.738
140.193
142.671
145.172
147.694
150.238
152.802
155.385
157.987
160.607
163.243
165.895
168.56
171.24
173.932
176.637
179.352
182.079
184.816
187.562
190.316
193.078
195.845
198.614
101.107
103.323
105.543
107.768
110.001
112.243
114.497
116.764
119.046
121.344
123.66
125.995
128.349
130.724
133.12
135.538
137.978
140.439
142.921
145.425
147.949
150.493
153.056
155.638
158.236
160.851
163.48
166.123
168.779
171.447
174.125
176.814
179.513
182.221
184.937
187.662
190.395
193.134
195.879
198.626
101.118
103.354
105.595
107.84
110.093
112.355
114.627
116.912
119.211
121.526
123.856
126.205
128.572
130.958
133.364
135.791
138.237
140.704
143.191
145.698
148.224
150.768
153.33
155.909
158.503
161.112
163.734
166.369
169.014
171.669
174.334
177.006
179.687
182.375
185.07
187.772
190.481
193.196
195.916
198.638
101.129
103.389
105.652
107.92
110.195
112.478
114.771
117.075
119.392
121.724
124.071
126.434
128.814
131.212
133.629
136.064
138.518
140.991
143.483
145.992
148.52
151.064
153.624
156.2
158.79
161.392
164.007
166.631
169.266
171.908
174.557
177.213
179.874
182.541
185.214
187.892
190.575
193.263
195.956
198.652
101.142
103.427
105.715
108.007
110.306
112.612
114.927
117.253
119.59
121.94
124.304
126.683
129.077
131.488
133.916
136.36
138.822
141.301
143.796
146.309
148.837
151.381
153.939
156.511
159.095
161.691
164.297
166.912
169.534
172.162
174.796
177.434
180.076
182.721
185.369
188.021
190.676
193.336
196
198.666
101.156
103.468
105.784
108.103
110.428
112.759
115.098
117.447
119.806
122.176
124.558
126.954
129.363
131.787
134.226
136.68
139.149
141.634
144.134
146.649
149.178
151.72
154.276
156.843
159.422
162.01
164.607
167.21
169.819
172.433
175.05
177.67
180.29
182.912
185.535
188.16
190.786
193.415
196.048
198.682
101.171
103.514
105.86
108.208
110.561
112.92
115.286
117.659
120.041
122.432
124.834
127.248
129.673
132.111
134.562
137.026
139.504
141.994
144.498
147.015
149.545
152.086
154.639
157.201
159.772
162.352
164.938
167.529
170.125
172.722
175.322
177.921
180.52
183.117
185.714
188.309
190.904
193.5
196.1
198.699
101.188
103.564
105.942
108.323
110.708
113.096
115.49
117.89
120.297
122.712
125.135
127.568
130.01
132.463
134.927
137.401
139.887
142.384
144.893
147.412
149.942
152.481
155.03
157.586
160.15
162.72
165.294
167.872
170.452
173.032
175.612
178.19
180.765
183.336
185.904
188.469
191.031
193.592
196.155
198.717
101.206
103.619
106.033
108.45
110.868
113.289
115.714
118.144
120.578
123.018
125.464
127.917
130.378
132.846
135.323
137.809
140.304
142.807
145.32
147.842
150.371
152.909
155.453
158.003
160.558
163.118
165.679
168.242
170.805
173.366
175.924
178.478
181.027
183.571
186.109
188.641
191.168
193.691
196.215
198.737
101.227
103.68
106.133
108.588
111.044
113.501
115.96
118.421
120.885
123.352
125.823
128.298
130.778
133.264
135.755
138.253
140.757
143.268
145.785
148.309
150.838
153.373
155.913
158.456
161.002
163.549
166.096
168.643
171.187
173.727
176.261
178.789
181.311
183.824
186.329
188.826
191.315
193.798
196.28
198.759
101.249
103.746
106.244
108.741
111.237
113.734
116.23
118.725
121.221
123.718
126.215
128.714
131.216
133.719
136.226
138.737
141.251
143.769
146.291
148.817
151.347
153.879
156.413
158.949
161.484
164.018
166.55
169.079
171.602
174.119
176.627
179.127
181.617
184.097
186.567
189.026
191.474
193.914
196.351
198.782
101.273
103.82
106.365
108.909
111.451
113.99
116.526
119.06
121.591
124.119
126.646
129.171
131.695
134.218
136.741
139.265
141.79
144.317
146.844
149.373
151.902
154.431
156.959
159.486
162.01
164.531
167.046
169.554
172.055
174.546
177.027
179.496
181.952
184.395
186.825
189.242
191.647
194.04
196.427
198.807
101.301
103.901
106.499
109.095
111.686
114.273
116.854
119.429
121.998
124.561
127.118
129.671
132.219
134.764
137.305
139.844
142.38
144.915
147.448
149.979
152.508
155.034
157.556
160.074
162.585
165.09
167.587
170.074
172.551
175.014
177.464
179.899
182.317
184.72
187.107
189.479
191.835
194.178
196.512
198.835
101.331
103.991
106.648
109.301
111.947
114.585
117.215
119.835
122.445
125.046
127.638
130.221
132.795
135.362
137.923
140.477
143.026
145.569
148.108
150.642
153.17
155.692
158.208
160.716
163.215
165.703
168.18
170.644
173.094
175.527
177.943
180.341
182.719
185.077
187.417
189.738
192.041
194.328
196.604
198.866
101.364
104.091
106.814
109.529
112.235
114.931
117.614
120.284
122.939
125.581
128.209
130.825
133.427
136.019
138.599
141.17
143.732
146.285
148.83
151.367
153.894
156.413
158.921
161.418
163.903
166.374
168.83
171.269
173.69
176.091
178.47
180.827
183.161
185.471
187.758
190.023
192.268
194.493
196.705
198.899
101.401
104.202
106.997
109.783
112.556
115.314
118.056
120.78
123.485
126.171
128.839
131.489
134.122
136.739
139.341
141.929
144.505
147.068
149.619
152.159
154.686
157.2
159.7
162.186
164.656
167.108
169.542
171.954
174.344
176.71
179.05
181.364
183.649
185.906
188.135
190.339
192.518
194.676
196.818
198.937
101.443
104.327
107.203
110.066
112.913
115.741
118.547
121.329
124.088
126.822
129.532
132.219
134.884
137.529
140.154
142.761
145.35
147.924
150.482
153.024
155.55
158.06
160.552
163.026
165.48
167.913
170.322
172.706
175.064
177.392
179.69
181.955
184.188
186.387
188.554
190.69
192.797
194.879
196.942
198.978
101.49
104.466
107.432
110.382
113.311
116.215
119.092
121.938
124.754
127.54
130.296
133.022
135.721
138.395
141.044
143.67
146.274
148.859
151.423
153.968
156.493
158.998
161.482
163.943
166.381
168.793
171.177
173.532
175.854
178.143
180.395
182.61
184.785
186.922
189.019
191.08
193.107
195.105
197.081
199.024
101.542
104.623
107.69
110.737
113.756
116.745
119.698
122.614
125.493
128.333
131.137
133.905
136.64
139.343
142.017
144.663
147.283
149.878
152.45
154.997
157.521
160.021
162.496
164.945
167.365
169.756
172.114
174.437
176.723
178.969
181.173
183.333
185.448
187.515
189.538
191.516
193.455
195.359
197.236
199.076
101.602
104.799
107.98
111.135
114.256
117.337
120.374
123.365
126.31
129.209
132.064
134.876
137.648
140.382
143.081
145.748
148.383
150.989
153.567
156.118
158.64
161.135
163.601
166.036
168.439
170.807
173.138
175.429
177.678
179.88
182.033
184.135
186.183
188.177
190.117
192.005
193.845
195.644
197.411
199.135
101.669
105
108.31
111.585
114.818
118
121.128
124.2
127.216
130.176
133.084
135.941
138.751
141.517
144.242
146.929
149.58
152.198
154.782
157.335
159.857
162.346
164.802
167.224
169.609
171.955
174.258
176.516
178.725
180.882
182.982
185.023
187.001
188.916
190.766
192.555
194.286
195.967
197.608
199.201
101.747
105.23
108.685
112.096
115.453
118.746
121.972
125.13
128.22
131.244
134.206
137.109
139.958
142.756
145.507
148.214
150.881
153.509
156.1
158.656
161.176
163.659
166.106
168.514
170.881
173.205
175.481
177.706
179.875
181.985
184.031
186.008
187.913
189.742
191.496
193.176
194.785
196.335
197.833
199.277
101.836
105.494
109.116
112.68
116.174
119.587
122.918
126.166
129.332
132.422
135.439
138.388
141.276
144.105
146.882
149.609
152.291
154.929
157.527
160.085
162.603
165.081
167.519
169.914
172.263
174.564
176.813
179.005
181.136
183.199
185.189
187.101
188.929
190.67
192.321
193.882
195.356
196.757
198.091
199.365
101.941
105.804
109.617
113.353
116.997
120.54
123.981
127.321
130.566
133.721
136.792
139.787
142.712
145.572
148.373
151.119
153.815
156.464
159.067
161.627
164.144
166.617
169.046
171.428
173.761
176.041
178.263
180.424
182.516
184.533
186.469
188.316
190.066
191.715
193.256
194.689
196.015
197.245
198.392
199.47
102.066
106.171
110.206
114.135
117.942
121.622
125.176
128.611
131.933
135.152
138.276
141.314
144.274
147.162
149.986
152.751
155.46
158.118
160.727
163.288
165.803
168.271
170.692
173.062
175.379
177.64
179.838
181.969
184.025
185.999
187.882
189.666
191.34
192.895
194.323
195.619
196.782
197.822
198.75
199.596
102.221
106.619
110.911
115.055
119.036
122.857
126.525
130.05
133.446
136.725
139.898
142.976
145.968
148.883
151.727
154.508
157.229
159.895
162.508
165.072
167.585
170.049
172.462
174.822
177.126
179.368
181.545
183.649
185.673
187.608
189.443
191.167
192.768
194.232
195.547
196.701
197.686
198.513
199.183
199.751
102.42
107.183
111.774
116.15
120.312
124.271
128.046
131.656
135.119
138.452
141.668
144.78
147.801
150.738
153.6
156.394
159.126
161.799
164.417
166.982
169.495
171.955
174.362
176.713
179.005
181.233
183.392
185.474
187.47
189.371
191.165
192.838
194.374
195.755
196.961
197.974
198.773
199.361
199.72
199.943
102.693
107.928
112.857
117.472
121.806
125.892
129.762
133.445
136.965
140.341
143.593
146.735
149.778
152.733
155.61
158.416
161.156
163.835
166.457
169.024
171.536
173.994
176.397
178.742
181.025
183.243
185.387
187.452
189.427
191.302
193.063
194.695
196.178
197.491
198.605
199.49
200.108
200.436
200.419
200.202
103.154
108.972
114.237
119.075
123.559
127.749
131.694
135.432
138.995
142.405
145.684
148.846
151.907
154.876
157.765
160.579
163.326
166.01
168.635
171.204
173.717
176.174
178.574
180.915
183.194
185.404
187.539
189.593
191.554
193.411
195.15
196.754
198.2
199.465
200.513
201.304
201.774
201.863
201.425
200.639
104.003
110.56
116.102
121.09
125.666
129.914
133.899
137.667
141.251
144.679
147.971
151.145
154.214
157.191
160.086
162.905
165.655
168.342
170.969
173.539
176.052
178.509
180.908
183.247
185.522
187.729
189.86
191.907
193.861
195.709
197.435
199.023
200.45
201.687
202.697
203.436
203.824
203.778
203.049
201.686
)
;

boundaryField
{
    carasuperior
    {
        type            fixedGradient;
        gradient        uniform 100;
    }
    lateralizquierda
    {
        type            fixedValue;
        value           uniform 100;
    }
    lateralderecha
    {
        type            fixedValue;
        value           uniform 200;
    }
    carainferior
    {
        type            zeroGradient;
    }
    frontAndBack
    {
        type            empty;
    }
}


// ************************************************************************* //
