/*--------------------------------*- C++ -*----------------------------------*\
| =========                 |                                                 |
| \\      /  F ield         | OpenFOAM: The Open Source CFD Toolbox           |
|  \\    /   O peration     | Version:  2.4.0                                 |
|   \\  /    A nd           | Web:      www.OpenFOAM.org                      |
|    \\/     M anipulation  |                                                 |
\*---------------------------------------------------------------------------*/
FoamFile
{
    version     2.0;
    format      ascii;
    class       volScalarField;
    location    "0.0089";
    object      T;
}
// * * * * * * * * * * * * * * * * * * * * * * * * * * * * * * * * * * * * * //

dimensions      [0 0 0 1 0 0 0];

internalField   nonuniform List<scalar> 
4800
(
100.194
100.581
100.968
101.354
101.738
102.117
102.487
102.844
103.182
103.493
100.581
101.742
102.903
104.063
105.217
106.359
107.475
108.552
109.571
110.511
100.968
102.903
104.841
106.779
108.71
110.625
112.503
114.319
116.039
117.626
101.354
104.063
106.779
109.499
112.22
114.927
117.594
120.182
122.64
124.908
101.738
105.218
108.711
112.221
115.745
119.269
122.762
126.174
129.431
132.439
102.117
106.359
110.625
114.928
119.269
123.641
128.012
132.323
136.471
140.314
102.488
107.476
112.504
117.595
122.764
128.013
133.323
138.633
143.817
148.66
102.845
108.554
114.321
120.184
126.177
132.325
138.634
145.068
151.502
157.641
103.182
109.573
116.042
122.644
129.435
136.475
143.82
151.504
159.482
167.46
103.494
110.514
117.631
124.915
132.445
140.321
148.666
157.645
167.462
178.222
100.194
100.581
100.968
101.354
101.738
102.117
102.487
102.844
103.182
103.493
100.581
101.742
102.903
104.063
105.217
106.359
107.475
108.552
109.571
110.511
100.968
102.903
104.841
106.779
108.71
110.625
112.503
114.319
116.039
117.626
101.354
104.063
106.779
109.5
112.22
114.927
117.593
120.182
122.64
124.908
101.738
105.218
108.711
112.221
115.745
119.269
122.762
126.174
129.431
132.438
102.117
106.359
110.625
114.928
119.269
123.641
128.012
132.323
136.471
140.314
102.488
107.476
112.505
117.595
122.764
128.013
133.323
138.633
143.817
148.66
102.845
108.554
114.321
120.185
126.177
132.325
138.634
145.068
151.502
157.641
103.183
109.573
116.043
122.644
129.436
136.476
143.82
151.504
159.482
167.46
103.494
110.515
117.631
124.915
132.446
140.321
148.667
157.646
167.463
178.223
100.194
100.581
100.968
101.354
101.738
102.117
102.487
102.844
103.182
103.493
100.581
101.742
102.903
104.063
105.217
106.359
107.475
108.552
109.571
110.511
100.968
102.903
104.841
106.779
108.71
110.625
112.503
114.319
116.039
117.626
101.354
104.063
106.779
109.5
112.22
114.927
117.593
120.182
122.64
124.908
101.738
105.218
108.711
112.221
115.745
119.269
122.762
126.174
129.431
132.438
102.117
106.359
110.625
114.928
119.269
123.641
128.012
132.323
136.471
140.314
102.488
107.476
112.505
117.595
122.764
128.013
133.323
138.633
143.817
148.66
102.845
108.554
114.321
120.185
126.177
132.325
138.634
145.068
151.502
157.641
103.183
109.573
116.043
122.644
129.436
136.476
143.82
151.504
159.482
167.46
103.494
110.515
117.631
124.915
132.446
140.321
148.667
157.646
167.463
178.223
100.194
100.581
100.968
101.354
101.738
102.117
102.487
102.844
103.182
103.493
100.581
101.742
102.903
104.063
105.217
106.359
107.475
108.552
109.571
110.511
100.968
102.903
104.841
106.779
108.71
110.625
112.503
114.319
116.039
117.626
101.354
104.063
106.779
109.499
112.22
114.927
117.594
120.182
122.64
124.908
101.738
105.218
108.711
112.221
115.745
119.269
122.762
126.174
129.431
132.439
102.117
106.359
110.625
114.928
119.269
123.641
128.012
132.323
136.471
140.314
102.488
107.476
112.504
117.595
122.764
128.013
133.323
138.633
143.817
148.66
102.845
108.554
114.321
120.184
126.177
132.325
138.634
145.068
151.502
157.641
103.182
109.573
116.042
122.644
129.435
136.475
143.82
151.504
159.482
167.46
103.494
110.514
117.631
124.915
132.445
140.321
148.666
157.645
167.462
178.222
103.773
104.016
104.222
104.391
104.526
104.63
104.707
104.762
104.796
104.813
104.813
104.796
104.761
104.707
104.63
104.526
104.391
104.222
104.016
103.773
111.354
112.087
112.704
113.208
113.609
113.916
114.144
114.304
114.405
114.454
114.454
114.405
114.304
114.144
113.916
113.608
113.208
112.703
112.086
111.353
119.045
120.272
121.298
122.13
122.784
123.283
123.65
123.906
124.067
124.145
124.145
124.067
123.905
123.649
123.281
122.782
122.128
121.297
120.271
119.044
126.928
128.659
130.088
131.229
132.114
132.78
133.266
133.602
133.812
133.914
133.913
133.812
133.601
133.265
132.779
132.112
131.227
130.086
128.657
126.927
135.1
137.347
139.164
140.584
141.662
142.459
143.032
143.423
143.667
143.783
143.783
143.666
143.422
143.03
142.457
141.66
140.581
139.162
137.345
135.098
143.687
146.465
148.638
150.28
151.49
152.363
152.978
153.393
153.649
153.77
153.77
153.648
153.392
152.977
152.361
151.488
150.278
148.636
146.462
143.685
152.869
156.186
158.644
160.408
161.655
162.526
163.125
163.522
163.764
163.879
163.878
163.763
163.521
163.123
162.524
161.653
160.406
158.641
156.184
152.867
162.943
166.766
169.342
171.053
172.195
172.96
173.473
173.806
174.007
174.102
174.101
174.007
173.806
173.472
172.959
172.193
171.052
169.34
166.764
162.941
174.495
178.591
180.906
182.268
183.11
183.649
183.999
184.223
184.357
184.419
184.419
184.356
184.223
183.998
183.648
183.109
182.267
180.905
178.591
174.494
188.984
192.199
193.422
194.004
194.328
194.526
194.651
194.73
194.777
194.799
194.799
194.777
194.73
194.651
194.525
194.328
194.003
193.422
192.199
188.983
103.773
104.016
104.222
104.391
104.526
104.63
104.707
104.761
104.796
104.812
104.812
104.796
104.761
104.707
104.629
104.525
104.391
104.222
104.016
103.772
111.354
112.086
112.704
113.208
113.608
113.916
114.144
114.304
114.405
114.454
114.454
114.405
114.303
114.143
113.915
113.607
113.207
112.702
112.085
111.352
119.045
120.272
121.298
122.13
122.783
123.282
123.649
123.905
124.067
124.144
124.144
124.066
123.904
123.648
123.28
122.781
122.127
121.296
120.27
119.043
126.928
128.659
130.087
131.228
132.113
132.78
133.265
133.601
133.812
133.913
133.913
133.811
133.6
133.264
132.778
132.111
131.226
130.084
128.656
126.925
135.1
137.347
139.164
140.583
141.661
142.459
143.031
143.423
143.666
143.783
143.782
143.665
143.421
143.029
142.456
141.658
140.58
139.16
137.343
135.097
143.687
146.464
148.638
150.28
151.489
152.363
152.978
153.392
153.648
153.769
153.769
153.647
153.391
152.976
152.36
151.486
150.276
148.634
146.461
143.684
152.869
156.186
158.643
160.407
161.654
162.525
163.124
163.521
163.763
163.878
163.877
163.762
163.52
163.122
162.523
161.651
160.404
158.64
156.182
152.866
162.943
166.765
169.342
171.053
172.194
172.96
173.472
173.805
174.006
174.101
174.1
174.006
173.804
173.47
172.958
172.192
171.05
169.339
166.762
162.94
174.495
178.591
180.906
182.268
183.109
183.648
183.998
184.222
184.356
184.418
184.418
184.355
184.222
183.997
183.647
183.108
182.266
180.904
178.589
174.492
188.984
192.199
193.422
194.003
194.328
194.525
194.651
194.73
194.777
194.799
194.799
194.777
194.73
194.65
194.525
194.327
194.003
193.421
192.198
188.982
103.773
104.016
104.222
104.391
104.526
104.63
104.707
104.761
104.796
104.812
104.812
104.796
104.761
104.707
104.629
104.525
104.391
104.222
104.016
103.772
111.354
112.086
112.704
113.208
113.608
113.916
114.144
114.304
114.405
114.454
114.454
114.405
114.303
114.143
113.915
113.607
113.207
112.702
112.085
111.352
119.045
120.272
121.298
122.13
122.783
123.282
123.649
123.905
124.067
124.144
124.144
124.066
123.904
123.648
123.28
122.781
122.127
121.296
120.27
119.043
126.928
128.659
130.087
131.228
132.113
132.78
133.265
133.601
133.812
133.913
133.913
133.811
133.6
133.264
132.778
132.111
131.226
130.084
128.656
126.925
135.1
137.347
139.164
140.583
141.661
142.459
143.031
143.423
143.666
143.783
143.782
143.665
143.421
143.029
142.456
141.658
140.58
139.16
137.343
135.097
143.687
146.464
148.638
150.28
151.489
152.363
152.978
153.392
153.648
153.769
153.769
153.647
153.391
152.976
152.36
151.486
150.276
148.634
146.461
143.684
152.869
156.186
158.643
160.407
161.654
162.525
163.124
163.521
163.763
163.878
163.877
163.762
163.52
163.122
162.523
161.651
160.404
158.64
156.182
152.866
162.943
166.765
169.342
171.053
172.194
172.96
173.472
173.805
174.006
174.101
174.1
174.006
173.804
173.47
172.958
172.192
171.05
169.339
166.762
162.94
174.495
178.591
180.906
182.268
183.109
183.648
183.998
184.222
184.356
184.418
184.418
184.355
184.222
183.997
183.647
183.108
182.266
180.904
178.589
174.492
188.984
192.199
193.422
194.003
194.328
194.525
194.651
194.73
194.777
194.799
194.799
194.777
194.73
194.65
194.525
194.327
194.003
193.421
192.198
188.982
103.773
104.016
104.222
104.391
104.526
104.63
104.707
104.762
104.796
104.813
104.813
104.796
104.761
104.707
104.63
104.526
104.391
104.222
104.016
103.773
111.354
112.087
112.704
113.208
113.609
113.916
114.144
114.304
114.405
114.454
114.454
114.405
114.304
114.144
113.916
113.608
113.208
112.703
112.086
111.353
119.045
120.272
121.298
122.13
122.784
123.283
123.65
123.906
124.067
124.145
124.145
124.067
123.905
123.649
123.281
122.782
122.128
121.297
120.271
119.044
126.928
128.659
130.088
131.229
132.114
132.78
133.266
133.602
133.812
133.914
133.913
133.812
133.601
133.265
132.779
132.112
131.227
130.086
128.657
126.927
135.1
137.347
139.164
140.584
141.662
142.459
143.032
143.423
143.667
143.783
143.783
143.666
143.422
143.03
142.457
141.66
140.581
139.162
137.345
135.098
143.687
146.465
148.638
150.28
151.49
152.363
152.978
153.393
153.649
153.77
153.77
153.648
153.392
152.977
152.361
151.488
150.278
148.636
146.462
143.685
152.869
156.186
158.644
160.408
161.655
162.526
163.125
163.522
163.764
163.879
163.878
163.763
163.521
163.123
162.524
161.653
160.406
158.641
156.184
152.867
162.943
166.766
169.342
171.053
172.195
172.96
173.473
173.806
174.007
174.102
174.101
174.007
173.806
173.472
172.959
172.193
171.052
169.34
166.764
162.941
174.495
178.591
180.906
182.268
183.11
183.649
183.999
184.223
184.357
184.419
184.419
184.356
184.223
183.998
183.648
183.109
182.267
180.905
178.591
174.494
188.984
192.199
193.422
194.004
194.328
194.526
194.651
194.73
194.777
194.799
194.799
194.777
194.73
194.651
194.525
194.328
194.003
193.422
192.199
188.983
103.493
103.182
102.845
102.488
102.117
101.738
101.354
100.968
100.581
100.194
110.511
109.571
108.553
107.476
106.359
105.218
104.064
102.904
101.743
100.581
117.625
116.039
114.319
112.503
110.625
108.711
106.779
104.842
102.904
100.968
124.907
122.639
120.182
117.594
114.927
112.221
109.5
106.779
104.064
101.354
132.437
129.43
126.174
122.762
119.269
115.746
112.222
108.711
105.218
101.738
140.313
136.471
132.323
128.013
123.642
119.27
114.929
110.627
106.36
102.117
148.659
143.816
138.633
133.324
128.014
122.765
117.597
112.506
107.477
102.488
157.641
151.503
145.069
138.636
132.327
126.179
120.186
114.323
108.555
102.845
167.461
159.483
151.506
143.822
136.478
129.438
122.647
116.045
109.575
103.183
178.224
167.464
157.648
148.669
140.324
132.449
124.918
117.634
110.516
103.495
103.492
103.181
102.844
102.487
102.116
101.737
101.353
100.967
100.58
100.193
110.509
109.57
108.551
107.474
106.358
105.217
104.063
102.903
101.741
100.58
117.624
116.037
114.318
112.502
110.624
108.709
106.778
104.84
102.903
100.967
124.905
122.638
120.18
117.592
114.926
112.219
109.499
106.778
104.063
101.353
132.436
129.429
126.173
122.761
119.268
115.744
112.22
108.71
105.217
101.737
140.311
136.469
132.321
128.011
123.64
119.269
114.927
110.625
106.359
102.117
148.658
143.815
138.631
133.322
128.013
122.763
117.595
112.504
107.476
102.487
157.639
151.501
145.067
138.634
132.325
126.177
120.185
114.321
108.554
102.845
167.459
159.481
151.504
143.82
136.476
129.436
122.645
116.043
109.573
103.182
178.222
167.462
157.646
148.667
140.322
132.447
124.916
117.632
110.515
103.494
103.492
103.181
102.844
102.487
102.116
101.737
101.353
100.967
100.58
100.193
110.509
109.57
108.551
107.474
106.358
105.217
104.063
102.903
101.741
100.58
117.624
116.037
114.318
112.502
110.624
108.709
106.778
104.84
102.903
100.967
124.905
122.638
120.18
117.592
114.926
112.219
109.499
106.778
104.063
101.353
132.436
129.429
126.173
122.761
119.268
115.744
112.22
108.71
105.217
101.737
140.311
136.469
132.321
128.011
123.64
119.269
114.927
110.625
106.359
102.117
148.658
143.815
138.631
133.322
128.013
122.763
117.595
112.504
107.476
102.487
157.639
151.501
145.067
138.634
132.325
126.177
120.185
114.321
108.554
102.845
167.459
159.481
151.504
143.82
136.476
129.436
122.645
116.043
109.573
103.182
178.222
167.462
157.646
148.667
140.322
132.447
124.916
117.632
110.515
103.494
103.493
103.182
102.845
102.488
102.117
101.738
101.354
100.968
100.581
100.194
110.511
109.571
108.553
107.476
106.359
105.218
104.064
102.904
101.743
100.581
117.625
116.039
114.319
112.503
110.625
108.711
106.779
104.842
102.904
100.968
124.907
122.639
120.182
117.594
114.927
112.221
109.5
106.779
104.064
101.354
132.437
129.43
126.174
122.762
119.269
115.746
112.222
108.711
105.218
101.738
140.313
136.471
132.323
128.013
123.642
119.27
114.929
110.627
106.36
102.117
148.659
143.816
138.633
133.324
128.014
122.765
117.597
112.506
107.477
102.488
157.641
151.503
145.069
138.636
132.327
126.179
120.186
114.323
108.555
102.845
167.461
159.483
151.506
143.822
136.478
129.438
122.647
116.045
109.575
103.183
178.224
167.464
157.648
148.669
140.324
132.449
124.918
117.634
110.516
103.495
188.986
174.501
162.953
152.882
143.702
135.115
126.941
119.056
111.361
103.775
192.203
178.601
166.78
156.204
146.485
137.367
128.677
120.287
112.096
104.02
193.427
180.919
169.362
158.669
148.666
139.192
130.113
121.318
112.717
104.227
194.01
182.286
171.081
160.442
150.318
140.622
131.263
122.157
113.226
104.398
194.337
183.134
172.232
161.702
151.542
141.713
132.16
122.821
113.633
104.534
194.537
183.682
173.012
162.59
152.434
142.53
132.844
123.333
113.949
104.641
194.667
184.044
173.542
163.212
153.075
143.128
133.353
123.718
114.189
104.723
194.752
184.285
173.902
163.641
153.525
143.554
133.72
123.999
114.364
104.782
194.807
184.441
174.137
163.927
153.828
143.845
133.973
124.194
114.487
104.824
194.839
184.535
174.28
164.101
154.015
144.027
134.131
124.317
114.564
104.851
194.854
184.577
174.346
164.183
154.104
144.114
134.209
124.378
114.603
104.864
194.853
184.575
174.343
164.181
154.105
144.117
134.213
124.382
114.607
104.865
194.835
184.524
174.269
164.095
154.016
144.036
134.145
124.331
114.575
104.855
194.798
184.418
174.113
163.913
153.83
143.863
134
124.223
114.508
104.832
194.732
184.238
173.853
163.614
153.529
143.588
133.77
124.051
114.403
104.796
194.625
183.947
173.447
163.161
153.084
143.189
133.442
123.809
114.255
104.747
194.441
183.48
172.827
162.499
152.456
142.642
133.001
123.488
114.06
104.682
194.1
182.703
171.881
161.554
151.601
141.921
132.434
123.081
113.816
104.6
193.352
181.353
170.442
160.235
150.475
141.007
131.733
122.587
113.523
104.503
191.303
178.918
168.299
158.469
149.059
139.902
130.905
122.013
113.184
104.391
188.985
174.499
162.951
152.88
143.699
135.113
126.939
119.054
111.359
103.774
192.201
178.598
166.778
156.202
146.482
137.365
128.675
120.285
112.095
104.019
193.425
180.917
169.36
158.666
148.663
139.19
130.111
121.317
112.715
104.226
194.008
182.284
171.078
160.44
150.315
140.619
131.261
122.155
113.224
104.397
194.335
183.132
172.229
161.699
151.539
141.711
132.158
122.819
113.631
104.533
194.536
183.679
173.009
162.587
152.431
142.527
132.842
123.331
113.947
104.64
194.665
184.041
173.539
163.209
153.072
143.125
133.35
123.716
114.187
104.721
194.75
184.282
173.898
163.638
153.522
143.552
133.717
123.997
114.362
104.781
194.805
184.438
174.134
163.924
153.825
143.843
133.97
124.191
114.485
104.823
194.837
184.531
174.276
164.098
154.012
144.024
134.129
124.315
114.562
104.849
194.852
184.574
174.342
164.18
154.101
144.111
134.207
124.376
114.601
104.863
194.851
184.571
174.339
164.178
154.102
144.114
134.211
124.38
114.604
104.864
194.833
184.521
174.265
164.091
154.013
144.032
134.142
124.329
114.573
104.853
194.795
184.415
174.11
163.91
153.827
143.86
133.998
124.22
114.506
104.831
194.73
184.234
173.849
163.61
153.525
143.585
133.767
124.048
114.4
104.795
194.622
183.944
173.443
163.157
153.08
143.185
133.439
123.806
114.252
104.745
194.439
183.476
172.823
162.495
152.453
142.638
132.998
123.485
114.058
104.68
194.097
182.699
171.877
161.55
151.598
141.917
132.431
123.078
113.814
104.599
193.349
181.349
170.438
160.231
150.472
141.004
131.73
122.584
113.52
104.502
191.3
178.914
168.295
158.465
149.055
139.899
130.902
122.01
113.182
104.39
188.985
174.499
162.951
152.88
143.699
135.113
126.939
119.054
111.359
103.774
192.201
178.598
166.778
156.202
146.482
137.365
128.675
120.285
112.095
104.019
193.425
180.917
169.36
158.666
148.663
139.19
130.111
121.317
112.715
104.226
194.008
182.284
171.078
160.44
150.315
140.619
131.261
122.155
113.224
104.397
194.335
183.132
172.229
161.699
151.539
141.711
132.158
122.819
113.631
104.533
194.536
183.679
173.009
162.587
152.431
142.527
132.842
123.331
113.947
104.64
194.665
184.041
173.539
163.209
153.072
143.125
133.35
123.716
114.187
104.721
194.75
184.282
173.898
163.638
153.522
143.552
133.717
123.997
114.362
104.781
194.805
184.438
174.134
163.924
153.825
143.843
133.97
124.191
114.485
104.823
194.837
184.531
174.276
164.098
154.012
144.024
134.129
124.315
114.562
104.849
194.852
184.574
174.342
164.18
154.101
144.111
134.207
124.376
114.601
104.863
194.851
184.571
174.339
164.178
154.102
144.114
134.211
124.38
114.604
104.864
194.833
184.521
174.265
164.091
154.013
144.032
134.142
124.329
114.573
104.853
194.795
184.415
174.11
163.91
153.827
143.86
133.998
124.22
114.506
104.831
194.73
184.234
173.849
163.61
153.525
143.585
133.767
124.048
114.4
104.795
194.622
183.944
173.443
163.157
153.08
143.185
133.439
123.806
114.252
104.745
194.439
183.476
172.823
162.495
152.453
142.638
132.998
123.485
114.058
104.68
194.097
182.699
171.877
161.55
151.598
141.917
132.431
123.078
113.814
104.599
193.349
181.349
170.438
160.231
150.472
141.004
131.73
122.584
113.52
104.502
191.3
178.914
168.295
158.465
149.055
139.899
130.902
122.01
113.182
104.39
188.986
174.501
162.953
152.882
143.702
135.115
126.941
119.056
111.361
103.775
192.203
178.601
166.78
156.204
146.485
137.367
128.677
120.287
112.096
104.02
193.427
180.919
169.362
158.669
148.666
139.192
130.113
121.318
112.717
104.227
194.01
182.286
171.081
160.442
150.318
140.622
131.263
122.157
113.226
104.398
194.337
183.134
172.232
161.702
151.542
141.713
132.16
122.821
113.633
104.534
194.537
183.682
173.012
162.59
152.434
142.53
132.844
123.333
113.949
104.641
194.667
184.044
173.542
163.212
153.075
143.128
133.353
123.718
114.189
104.723
194.752
184.285
173.902
163.641
153.525
143.554
133.72
123.999
114.364
104.782
194.807
184.441
174.137
163.927
153.828
143.845
133.973
124.194
114.487
104.824
194.839
184.535
174.28
164.101
154.015
144.027
134.131
124.317
114.564
104.851
194.854
184.577
174.346
164.183
154.104
144.114
134.209
124.378
114.603
104.864
194.853
184.575
174.343
164.181
154.105
144.117
134.213
124.382
114.607
104.865
194.835
184.524
174.269
164.095
154.016
144.036
134.145
124.331
114.575
104.855
194.798
184.418
174.113
163.913
153.83
143.863
134
124.223
114.508
104.832
194.732
184.238
173.853
163.614
153.529
143.588
133.77
124.051
114.403
104.796
194.625
183.947
173.447
163.161
153.084
143.189
133.442
123.809
114.255
104.747
194.441
183.48
172.827
162.499
152.456
142.642
133.001
123.488
114.06
104.682
194.1
182.703
171.881
161.554
151.601
141.921
132.434
123.081
113.816
104.6
193.351
181.353
170.442
160.235
150.475
141.007
131.733
122.587
113.523
104.503
191.303
178.918
168.299
158.469
149.059
139.902
130.905
122.013
113.184
104.391
184.241
174.716
165.371
156.283
147.392
138.638
129.975
121.374
112.811
104.268
178.053
170.338
162.187
153.903
145.591
137.283
128.986
120.698
112.417
104.139
173.073
166.399
159.138
151.554
143.79
135.921
127.989
120.017
112.02
104.008
169.1
163.049
156.416
149.388
142.095
134.625
127.034
119.362
111.638
103.883
165.936
160.285
154.093
147.489
140.582
133.452
126.163
118.761
111.286
103.767
163.447
158.063
152.183
145.897
139.292
132.441
125.405
118.236
110.977
103.665
161.539
156.34
150.679
144.626
138.25
131.617
124.784
117.803
110.722
103.581
160.153
155.079
149.568
143.678
137.467
130.992
124.311
117.473
110.526
103.517
159.25
154.253
148.837
143.051
136.945
130.576
123.994
117.251
110.394
103.473
158.804
153.845
148.475
142.738
136.685
130.367
123.836
117.14
110.329
103.456
184.237
174.712
165.367
156.279
147.389
138.634
129.972
121.371
112.808
104.267
178.049
170.334
162.183
153.9
145.588
137.28
128.983
120.695
112.414
104.137
173.07
166.396
159.135
151.551
143.786
135.918
127.986
120.014
112.017
104.007
169.097
163.046
156.413
149.385
142.092
134.622
127.031
119.359
111.635
103.881
165.934
160.282
154.09
147.486
140.578
133.449
126.159
118.758
111.283
103.765
163.444
158.06
152.18
145.894
139.289
132.438
125.402
118.233
110.974
103.663
161.536
156.337
150.676
144.623
138.247
131.613
124.78
117.799
110.718
103.578
160.15
155.076
149.566
143.675
137.463
130.989
124.306
117.468
110.521
103.513
159.247
154.251
148.835
143.048
136.942
130.572
123.989
117.246
110.388
103.469
158.802
153.843
148.472
142.735
136.682
130.363
123.831
117.135
110.322
103.45
184.237
174.712
165.367
156.279
147.389
138.634
129.972
121.371
112.808
104.267
178.049
170.334
162.183
153.9
145.588
137.28
128.983
120.695
112.414
104.137
173.07
166.396
159.135
151.551
143.786
135.918
127.986
120.014
112.017
104.007
169.097
163.046
156.413
149.385
142.092
134.622
127.031
119.359
111.635
103.881
165.934
160.282
154.09
147.486
140.578
133.449
126.159
118.758
111.283
103.765
163.444
158.06
152.18
145.894
139.289
132.438
125.402
118.233
110.974
103.663
161.536
156.337
150.676
144.623
138.247
131.613
124.78
117.799
110.718
103.578
160.15
155.076
149.566
143.675
137.463
130.989
124.306
117.468
110.521
103.513
159.247
154.251
148.835
143.048
136.942
130.572
123.989
117.246
110.388
103.469
158.802
153.843
148.472
142.736
136.682
130.363
123.831
117.135
110.322
103.45
184.241
174.716
165.371
156.283
147.392
138.638
129.975
121.374
112.811
104.268
178.053
170.338
162.187
153.903
145.591
137.283
128.986
120.698
112.417
104.139
173.073
166.399
159.138
151.554
143.79
135.921
127.989
120.017
112.02
104.008
169.099
163.049
156.416
149.388
142.095
134.625
127.034
119.362
111.638
103.883
165.936
160.285
154.093
147.489
140.582
133.452
126.163
118.761
111.286
103.767
163.447
158.063
152.183
145.897
139.292
132.441
125.405
118.236
110.977
103.665
161.539
156.34
150.679
144.626
138.25
131.617
124.784
117.803
110.722
103.581
160.153
155.079
149.569
143.678
137.467
130.993
124.311
117.473
110.526
103.517
159.25
154.253
148.838
143.051
136.946
130.576
123.994
117.251
110.394
103.473
158.804
153.846
148.475
142.739
136.685
130.367
123.836
117.141
110.329
103.456
192.889
195.653
196.826
197.464
197.869
198.146
198.341
198.475
198.559
198.6
198.6
198.56
198.476
198.343
198.149
197.871
197.467
196.829
195.656
192.891
184.555
188.552
191.015
192.625
193.734
194.523
195.085
195.474
195.72
195.84
195.841
195.723
195.478
195.09
194.529
193.741
192.632
191.022
188.558
184.561
178.731
182.983
186.058
188.287
189.922
191.126
192.003
192.618
193.009
193.2
193.201
193.013
192.623
192.011
191.135
189.933
188.299
186.07
182.995
178.742
174.323
178.592
181.947
184.545
186.54
188.057
189.184
189.985
190.499
190.751
190.753
190.504
189.993
189.196
188.071
186.556
184.563
181.966
178.61
174.342
170.889
175.113
178.595
181.406
183.638
185.378
186.694
187.64
188.252
188.554
188.556
188.259
187.651
186.71
185.397
183.661
181.431
178.622
175.142
170.917
168.209
172.38
175.914
178.847
181.231
183.124
184.576
185.631
186.318
186.658
186.661
186.327
185.646
184.597
183.149
181.261
178.881
175.951
172.419
168.249
166.163
170.284
173.838
176.838
179.317
181.312
182.859
183.991
184.733
185.101
185.105
184.744
184.009
182.884
181.344
179.355
176.882
173.886
170.336
166.217
164.678
168.759
172.316
175.354
177.89
179.95
181.559
182.744
183.523
183.912
183.916
183.537
182.766
181.59
179.988
177.936
175.407
172.375
168.823
164.745
163.708
167.763
171.318
174.375
176.943
179.041
180.688
181.905
182.708
183.109
183.114
182.723
181.93
180.723
179.085
176.996
174.435
171.386
167.836
163.786
163.229
167.27
170.823
173.888
176.471
178.586
180.251
181.483
182.298
182.704
182.71
182.314
181.51
180.288
178.633
176.528
173.953
170.897
167.35
163.314
192.891
195.655
196.828
197.465
197.87
198.147
198.342
198.475
198.559
198.6
198.6
198.559
198.476
198.342
198.148
197.87
197.465
196.828
195.654
192.889
184.558
188.554
191.017
192.627
193.736
194.524
195.086
195.475
195.721
195.84
195.841
195.722
195.477
195.089
194.527
193.739
192.63
191.02
188.556
184.558
178.734
182.986
186.061
188.289
189.924
191.127
192.004
192.618
193.009
193.2
193.201
193.012
192.622
192.01
191.134
189.931
188.297
186.068
182.992
178.739
174.327
178.594
181.95
184.547
186.542
188.058
189.186
189.986
190.499
190.751
190.752
190.503
189.992
189.194
188.069
186.554
184.561
181.963
178.608
174.339
170.892
175.116
178.598
181.408
183.64
185.379
186.695
187.641
188.253
188.554
188.556
188.258
187.65
186.708
185.396
183.659
181.429
178.62
175.139
170.914
168.212
172.383
175.917
178.849
181.233
183.125
184.578
185.632
186.318
186.658
186.661
186.326
185.645
184.595
183.148
181.259
178.879
175.949
172.417
168.247
166.166
170.287
173.84
176.84
179.319
181.313
182.86
183.992
184.733
185.101
185.105
184.743
184.008
182.883
181.342
179.353
176.88
173.883
170.333
166.214
164.681
168.762
172.319
175.356
177.892
179.951
181.561
182.745
183.524
183.912
183.916
183.536
182.765
181.589
179.987
177.934
175.405
172.373
168.82
164.742
163.711
167.765
171.32
174.377
176.945
179.042
180.689
181.906
182.708
183.109
183.113
182.722
181.929
180.722
179.083
176.994
174.433
171.384
167.834
163.784
163.232
167.272
170.826
173.89
176.472
178.588
180.252
181.484
182.298
182.704
182.71
182.313
181.509
180.287
178.632
176.526
173.952
170.895
167.348
163.312
192.891
195.655
196.828
197.465
197.87
198.147
198.342
198.475
198.559
198.6
198.6
198.559
198.476
198.342
198.148
197.87
197.465
196.828
195.654
192.889
184.558
188.554
191.017
192.627
193.736
194.524
195.086
195.475
195.721
195.84
195.841
195.722
195.477
195.089
194.527
193.739
192.63
191.02
188.556
184.558
178.734
182.986
186.06
188.289
189.924
191.127
192.004
192.618
193.009
193.2
193.201
193.012
192.622
192.01
191.134
189.931
188.297
186.068
182.992
178.739
174.327
178.594
181.95
184.547
186.542
188.058
189.186
189.986
190.499
190.751
190.752
190.503
189.992
189.194
188.069
186.554
184.561
181.964
178.608
174.339
170.892
175.116
178.597
181.408
183.64
185.379
186.695
187.641
188.253
188.554
188.556
188.258
187.65
186.708
185.396
183.659
181.429
178.62
175.139
170.914
168.212
172.383
175.917
178.849
181.233
183.125
184.578
185.632
186.318
186.658
186.661
186.326
185.645
184.595
183.148
181.259
178.879
175.949
172.417
168.247
166.166
170.287
173.84
176.841
179.319
181.313
182.86
183.992
184.733
185.101
185.105
184.743
184.008
182.883
181.342
179.353
176.88
173.883
170.333
166.214
164.681
168.762
172.319
175.356
177.892
179.951
181.561
182.745
183.524
183.912
183.916
183.536
182.765
181.589
179.987
177.934
175.405
172.373
168.821
164.742
163.711
167.765
171.32
174.377
176.945
179.042
180.689
181.906
182.708
183.109
183.114
182.722
181.929
180.722
179.083
176.994
174.434
171.384
167.834
163.784
163.232
167.272
170.826
173.89
176.473
178.588
180.253
181.484
182.298
182.705
182.71
182.313
181.51
180.288
178.632
176.526
173.952
170.895
167.348
163.312
192.889
195.653
196.826
197.464
197.869
198.146
198.341
198.475
198.559
198.6
198.6
198.56
198.476
198.343
198.149
197.871
197.467
196.829
195.656
192.891
184.555
188.551
191.015
192.625
193.734
194.523
195.085
195.474
195.72
195.84
195.841
195.723
195.478
195.09
194.529
193.741
192.632
191.022
188.558
184.561
178.731
182.983
186.058
188.287
189.922
191.126
192.003
192.618
193.009
193.2
193.201
193.013
192.623
192.011
191.135
189.933
188.299
186.07
182.995
178.742
174.323
178.592
181.947
184.545
186.54
188.057
189.184
189.985
190.499
190.751
190.753
190.504
189.993
189.196
188.071
186.556
184.563
181.966
178.61
174.342
170.889
175.113
178.595
181.406
183.638
185.378
186.694
187.64
188.252
188.554
188.556
188.259
187.651
186.71
185.397
183.661
181.431
178.622
175.142
170.917
168.209
172.38
175.914
178.847
181.231
183.124
184.577
185.631
186.318
186.658
186.661
186.327
185.646
184.597
183.149
181.261
178.881
175.951
172.419
168.249
166.163
170.284
173.838
176.838
179.317
181.312
182.859
183.991
184.733
185.101
185.105
184.744
184.009
182.884
181.344
179.355
176.882
173.886
170.336
166.217
164.678
168.759
172.316
175.354
177.89
179.95
181.56
182.744
183.524
183.912
183.916
183.537
182.766
181.59
179.988
177.936
175.407
172.375
168.823
164.745
163.708
167.763
171.318
174.375
176.943
179.041
180.688
181.905
182.708
183.109
183.114
182.723
181.93
180.723
179.085
176.996
174.436
171.386
167.837
163.787
163.229
167.27
170.823
173.888
176.471
178.586
180.252
181.484
182.298
182.705
182.71
182.314
181.511
180.289
178.634
176.528
173.954
170.897
167.35
163.314
104.268
112.812
121.377
129.98
138.644
147.398
156.288
165.374
174.718
184.239
104.138
112.417
120.7
128.99
137.288
145.596
153.906
162.188
170.337
178.049
104.008
112.019
120.017
127.99
135.922
143.79
151.553
159.135
166.393
173.064
103.881
111.635
119.359
127.031
134.62
142.089
149.379
156.405
163.035
169.083
103.764
111.28
118.754
126.153
133.439
140.566
147.47
154.07
160.259
165.909
103.661
110.968
118.223
125.388
132.418
139.264
145.865
152.147
158.024
163.406
103.576
110.709
117.783
124.756
131.582
138.209
144.579
150.628
156.286
161.484
103.509
110.509
117.444
124.272
130.944
137.41
143.616
149.502
155.01
160.084
103.464
110.373
117.213
123.943
130.514
136.875
142.974
148.757
154.172