/*--------------------------------*- C++ -*----------------------------------*\
| =========                 |                                                 |
| \\      /  F ield         | OpenFOAM: The Open Source CFD Toolbox           |
|  \\    /   O peration     | Version:  2.4.0                                 |
|   \\  /    A nd           | Web:      www.OpenFOAM.org                      |
|    \\/     M anipulation  |                                                 |
\*---------------------------------------------------------------------------*/
FoamFile
{
    version     2.0;
    format      ascii;
    class       volScalarField;
    location    "0.99";
    object      T;
}
// * * * * * * * * * * * * * * * * * * * * * * * * * * * * * * * * * * * * * //

dimensions      [0 0 0 1 0 0 0];

internalField   nonuniform List<scalar> 
1600
(
101.414
104.24
107.063
109.883
112.695
115.5
118.295
121.079
123.848
126.603
129.341
132.061
134.761
137.44
140.096
142.729
145.337
147.92
150.476
153.006
155.509
157.985
160.434
162.856
165.252
167.623
169.969
172.292
174.593
176.873
179.134
181.378
183.606
185.82
188.022
190.214
192.397
194.574
196.746
198.916
101.414
104.243
107.068
109.889
112.704
115.51
118.307
121.092
123.864
126.62
129.36
132.081
134.782
137.462
140.119
142.753
145.362
147.945
150.502
153.033
155.535
158.011
160.46
162.881
165.277
167.647
169.992
172.314
174.613
176.892
179.152
181.394
183.62
185.833
188.033
190.223
192.404
194.579
196.749
198.917
101.416
104.248
107.077
109.901
112.72
115.53
118.33
121.118
123.893
126.653
129.395
132.119
134.823
137.505
140.165
142.801
145.411
147.996
150.554
153.084
155.588
158.063
160.511
162.932
165.326
167.695
170.038
172.357
174.654
176.93
179.187
181.426
183.649
185.857
188.054
190.24
192.418
194.589
196.755
198.919
101.419
104.256
107.09
109.92
112.743
115.559
118.364
121.157
123.937
126.701
129.448
132.176
134.884
137.569
140.232
142.871
145.483
148.07
150.629
153.161
155.665
158.14
160.588
163.008
165.4
167.766
170.107
172.423
174.716
176.988
179.24
181.473
183.691
185.895
188.086
190.266
192.438
194.603
196.764
198.922
101.422
104.266
107.108
109.945
112.775
115.597
118.409
121.209
123.995
126.765
129.517
132.251
134.963
137.654
140.321
142.962
145.578
148.167
150.729
153.262
155.766
158.242
160.689
163.107
165.497
167.86
170.197
172.509
174.798
177.064
179.31
181.537
183.748
185.944
188.128
190.301
192.465
194.623
196.776
198.926
101.427
104.279
107.13
109.975
112.814
115.645
118.465
121.272
124.066
126.843
129.603
132.343
135.062
137.758
140.429
143.076
145.696
148.288
150.852
153.386
155.892
158.367
160.813
163.23
165.618
167.977
170.31
172.617
174.899
177.159
179.398
181.617
183.82
186.007
188.181
190.345
192.5
194.647
196.79
198.931
101.432
104.295
107.156
110.012
112.861
115.701
118.531
121.348
124.151
126.937
129.705
132.452
135.178
137.881
140.559
143.21
145.835
148.43
150.997
153.534
156.04
158.516
160.961
163.376
165.761
168.117
170.444
172.745
175.021
177.273
179.503
181.713
183.905
186.082
188.246
190.398
192.541
194.677
196.808
198.936
101.438
104.313
107.186
110.054
112.915
115.767
118.608
121.436
124.249
127.045
129.823
132.579
135.313
138.023
140.708
143.365
145.995
148.595
151.165
153.704
156.211
158.687
161.132
163.545
165.926
168.278
170.6
172.895
175.162
177.405
179.625
181.825
184.005
186.17
188.321
190.46
192.589
194.712
196.829
198.943
101.445
104.334
107.221
110.102
112.977
115.842
118.696
121.536
124.361
127.168
129.956
132.723
135.466
138.185
140.877
143.541
146.176
148.781
151.354
153.896
156.405
158.881
161.325
163.735
166.114
168.461
170.777
173.064
175.323
177.556
179.765
181.952
184.12
186.271
188.407
190.531
192.645
194.751
196.853
198.951
101.453
104.357
107.259
110.156
113.046
115.926
118.794
121.648
124.486
127.306
130.106
132.883
135.637
138.364
141.065
143.736
146.378
148.988
151.565
154.109
156.62
159.097
161.539
163.948
166.322
168.664
170.974
173.253
175.503
177.725
179.922
182.096
184.249
186.384
188.504
190.611
192.707
194.796
196.88
198.96
101.462
104.383
107.303
110.217
113.123
116.019
118.903
121.772
124.625
127.459
130.271
133.061
135.825
138.563
141.272
143.952
146.6
149.215
151.797
154.344
156.856
159.333
161.774
164.18
166.551
168.888
171.191
173.461
175.701
177.912
180.096
182.255
184.392
186.51
188.612
190.7
192.777
194.846
196.91
198.97
101.471
104.412
107.351
110.283
113.208
116.122
119.023
121.909
124.778
127.626
130.453
133.256
136.032
138.781
141.499
144.187
146.842
149.463
152.049
154.599
157.113
159.59
162.03
164.433
166.8
169.131
171.427
173.689
175.918
178.116
180.286
182.43
184.55
186.65
188.731
190.799
192.855
194.902
196.944
198.981
101.482
104.444
107.403
110.357
113.302
116.235
119.156
122.06
124.945
127.81
130.652
133.468
136.257
139.017
141.746
144.442
147.105
149.731
152.322
154.875
157.39
159.867
162.306
164.706
167.069
169.393
171.681
173.934
176.152
178.338
180.493
182.62
184.722
186.802
188.862
190.907
192.94
194.963
196.98
198.994
101.493
104.479
107.461
110.437
113.404
116.359
119.3
122.224
125.128
128.01
130.868
133.699
136.502
139.274
142.014
144.719
147.389
150.021
152.616
155.172
157.689
160.166
162.602
164.999
167.357
169.675
171.955
174.197
176.404
178.576
180.716
182.826
184.909
186.967
189.005
191.025
193.032
195.03
197.021
199.007
101.506
104.517
107.524
110.525
113.516
116.494
119.457
122.402
125.327
128.228
131.103
133.95
136.767
139.552
142.303
145.017
147.695
150.334
152.933
155.492
158.009
160.486
162.92
165.314
167.666
169.977
172.248
174.48
176.674
178.832
180.956
183.047
185.11
187.146
189.159
191.154
193.133
195.102
197.064
199.022
101.52
104.559
107.593
110.621
113.638
116.642
119.629
122.597
125.543
128.464
131.358
134.222
137.054
139.853
142.615
145.34
148.025
150.67
153.274
155.836
158.354
160.83
163.262
165.651
167.997
170.3
172.562
174.782
176.963
179.106
181.212
183.285
185.326
187.338
189.326
191.293
193.243
195.181
197.112
199.037
101.535
104.604
107.669
110.726
113.771
116.803
119.816
122.809
125.778
128.721
131.635
134.517
137.366
140.178
142.953
145.688
148.382
151.034
153.642
156.206
158.726
161.201
163.63
166.014
168.353
170.648
172.899
175.107
177.273
179.4
181.488
183.539
185.558
187.545
189.506
191.443
193.362
195.267
197.164
199.054
101.552
104.654
107.752
110.841
113.917
116.978
120.02
123.04
126.035
129.001
131.936
134.838
137.703
140.531
143.319
146.065
148.768
151.427
154.04
156.607
159.128
161.601
164.028
166.406
168.738
171.023
173.263
175.457
177.608
179.716
181.784
183.813
185.807
187.768
189.699
191.605
193.49
195.359
197.22
199.073
101.57
104.709
107.842
110.966
114.077
117.171
120.244
123.293
126.315
129.306
132.264
135.187
138.071
140.915
143.716
146.474
149.187
151.853
154.471
157.042
159.563
162.035
164.458
166.831
169.155
171.43
173.657
175.836
177.969
180.058
182.103
184.108
186.075
188.007
189.908
191.78
193.629
195.46
197.281
199.093
101.59
104.769
107.942
111.104
114.252
117.381
120.488
123.569
126.62
129.639
132.622
135.567
138.471
141.332
144.149
146.919
149.642
152.316
154.94
157.514
160.036
162.507
164.926
167.293
169.608
171.871
174.084
176.247
178.361
180.428
182.45
184.428
186.366
188.266
190.133
191.969
193.779
195.569
197.347
199.115
101.613
104.835
108.051
111.256
114.444
117.612
120.756
123.872
126.955
130.003
133.013
135.982
138.908
141.788
144.621
147.405
150.139
152.821
155.451
158.028
160.552
163.021
165.435
167.795
170.101
172.352
174.55
176.695
178.789
180.832
182.827
184.776
186.682
188.547
190.377
192.174
193.942
195.688
197.419
199.139
101.637
104.908
108.172
111.423
114.656
117.867
121.051
124.204
127.323
130.403
133.442
136.437
139.386
142.286
145.136
147.935
150.68
153.372
156.008
158.589
161.113
163.581
165.991
168.343
170.638
172.876
175.058
177.184
179.255
181.273
183.239
185.156
187.026
188.854
190.643
192.396
194.119
195.817
197.498
199.165
101.664
104.989
108.305
111.607
114.89
118.148
121.376
124.57
127.727
130.842
133.912
136.935
139.909
142.831
145.7
148.514
151.272
153.973
156.617
159.201
161.727
164.192
166.597
168.942
171.226
173.449
175.613
177.718
179.765
181.754
183.689
185.572
187.404
189.19
190.934
192.64
194.313
195.958
197.584
199.193
101.694
105.078
108.453
111.812
115.148
118.458
121.734
124.974
128.172
131.325
134.429
137.483
140.483
143.429
146.317
149.148
151.92
154.631
157.282
159.87
162.397
164.86
167.26
169.595
171.867
174.076
176.22
178.303
180.323
182.283
184.184
186.028
187.818
189.558
191.253
192.907
194.525
196.113
197.679
199.225
101.727
105.178
108.617
112.038
115.435
118.801
122.131
125.42
128.663
131.857
134.998
138.084
141.113
144.084
146.994
149.842
152.628
155.35
158.008
160.601
163.128
165.589
167.983
170.31
172.569
174.761
176.885
178.943
180.935
182.862
184.726
186.529
188.274
189.965
191.605
193.202
194.759
196.283
197.784
199.259
101.764
105.288
108.8
112.291
115.754
119.182
122.57
125.913
129.205
132.443
135.624
138.746
141.806
144.802
147.735
150.602
153.403
156.136
158.802
161.399
163.928
166.386
168.774
171.09
173.336
175.51
177.613
179.645
181.606
183.499
185.323
187.081
188.777
190.413
191.994
193.527
195.017
196.471
197.899
199.298
101.806
105.412
109.003
112.572
116.108
119.606
123.058
126.459
129.804
133.09
136.314
139.473
142.566
145.591
148.547
151.433
154.25
156.995
159.669
162.271
164.8
167.255
169.636
171.943
174.174
176.33
178.41
180.414
182.343
184.198
185.98
187.69
189.332
190.909
192.425
193.888
195.304
196.68
198.027
199.34
101.852
105.55
109.232
112.886
116.504
120.078
123.6
127.065
130.468
133.805
137.074
140.273
143.401
146.455
149.436
152.343
155.175
157.933
160.615
163.221
165.751
168.203
170.578
172.873
175.089
177.226
179.281
181.257
183.152
184.967
186.703
188.362
189.945
191.458
192.904
194.29
195.623
196.913
198.17
199.388
101.904
105.706
109.488
113.239
116.947
120.605
124.203
127.737
131.202
134.595
137.912
141.153
144.317
147.402
150.408
153.336
156.185
158.955
161.646
164.257
166.787
169.236
171.603
173.887
176.088
178.204
180.235
182.18
184.039
185.812
187.5
189.103
190.625
192.067
193.436
194.738
195.98
197.173
198.329
199.441
101.963
105.882
109.777
113.635
117.444
121.194
124.876
128.485
132.016
135.467
138.835
142.12
145.321
148.438
151.471
154.421
157.287
160.069
162.768
165.383
167.914
170.359
172.719
174.992
177.176
179.271
181.276
183.19
185.012
186.741
188.378
189.923
191.378
192.745
194.03
195.239
196.38
197.466
198.508
199.501
102.031
106.082
110.105
114.084
118.004
121.854
125.627
129.316
132.918
136.43
139.851
143.182
146.421
149.571
152.631
155.602
158.485
161.28
163.987
166.606
169.137
171.579
173.931
176.192
178.36
180.435
182.413
184.295
186.079
187.763
189.346
190.83
192.214
193.501
194.695
195.802
196.831
197.796
198.71
199.569
102.108
106.311
110.479
114.593
118.636
122.597
126.467
130.242
133.918
137.494
140.969
144.346
147.625
150.807
153.894
156.886
159.786
162.593
165.309
167.932
170.463
172.902
175.246
177.495
179.647
181.7
183.653
185.502
187.247
188.885
190.415
191.834
193.144
194.345
195.441
196.437
197.342
198.172
198.94
199.646
102.197
106.574
110.909
115.175
119.355
123.435
127.41
131.274
135.026
138.667
142.198
145.621
148.939
152.153
155.266
158.28
161.196
164.015
166.738
169.366
171.897
174.332
176.669
178.906
181.042
183.075
185.002
186.82
188.526
190.118
191.593
192.948
194.181
195.292
196.282
197.157
197.925
198.602
199.203
199.736
102.301
106.883
111.408
115.845
120.175
124.384
128.468
132.424
136.255
139.961
143.547
147.016
150.371
153.617
156.755
159.789
162.72
165.551
168.281
170.913
173.444
175.875
178.205
180.432
182.553
184.566
186.468
188.256
189.925
191.472
192.893
194.182
195.337
196.355
197.235
197.979
198.596
199.1
199.509
199.843
102.426
107.249
111.995
116.624
121.117
125.462
129.659
133.709
137.616
141.386
145.025
148.537
151.928
155.203
158.365
161.418
164.364
167.205
169.943
172.577
175.109
177.537
179.86
182.077
184.184
186.179
188.059
189.818
191.453
192.957
194.326
195.552
196.63
197.554
198.319
198.925
199.376
199.686
199.873
199.971
102.58
107.695
112.698
117.541
122.207
126.692
131.001
135.142
139.123
142.953
146.64
150.193
153.617
156.918
160.102
163.172
166.131
168.982
171.726
174.364
176.896
179.321
181.639
183.847
185.942
187.921
189.781
191.515
193.119
194.585
195.906
197.074
198.079
198.911
199.561
200.024
200.294
200.388
200.313
200.128
102.779
108.258
113.558
118.632
123.477
128.1
132.516
136.741
140.788
144.672
148.403
151.99
155.443
158.768
161.971
165.055
168.026
170.885
173.635
176.276
178.809
181.233
183.546
185.747
187.833
189.799
191.642
193.355
194.933
196.367
197.647
198.764
199.704
200.452
200.994
201.313
201.395
201.246
200.856
200.323
103.052
109.001
114.637
119.949
124.964
129.713
134.224
138.521
142.625
146.553
150.32
153.937
157.413
160.757
163.976
167.073
170.054
172.92
175.675
178.32
180.853
183.277
185.587
187.784
189.862
191.819
193.65
195.347
196.905
198.314
199.562
200.639
201.526
202.206
202.655
202.845
202.743
202.333
201.562
200.584
103.511
110.041
116.012
121.544
126.709
131.561
136.146
140.498
144.645
148.607
152.401
156.04
159.535
162.894
166.124
169.231
172.22
175.093
177.852
180.5
183.036
185.459
187.769
189.963
192.038
193.989
195.812
197.499
199.044
200.436
201.663
202.712
203.563
204.196
204.578
204.673
204.422
203.77
202.575
201.023
104.359
111.626
117.871
123.553
128.808
133.719
138.343
142.725
146.894
150.874
154.682
158.333
161.837
165.204
168.441
171.554
174.547
177.424
180.186
182.836
185.373
187.796
190.106
192.298
194.371
196.319
198.138
199.82
201.358
202.741
203.957
204.99
205.821
206.427
206.771
206.815
206.481
205.692
204.205
202.073
)
;

boundaryField
{
    carasuperior
    {
        type            fixedGradient;
        gradient        uniform 100;
    }
    lateralizquierda
    {
        type            fixedValue;
        value           uniform 100;
    }
    lateralderecha
    {
        type            fixedValue;
        value           uniform 200;
    }
    carainferior
    {
        type            zeroGradient;
    }
    frontAndBack
    {
        type            empty;
    }
}


// ************************************************************************* //
