/*--------------------------------*- C++ -*----------------------------------*\
| =========                 |                                                 |
| \\      /  F ield         | OpenFOAM: The Open Source CFD Toolbox           |
|  \\    /   O peration     | Version:  2.4.0                                 |
|   \\  /    A nd           | Web:      www.OpenFOAM.org                      |
|    \\/     M anipulation  |                                                 |
\*---------------------------------------------------------------------------*/
FoamFile
{
    version     2.0;
    format      ascii;
    class       volScalarField;
    location    "0.0054";
    object      T;
}
// * * * * * * * * * * * * * * * * * * * * * * * * * * * * * * * * * * * * * //

dimensions      [0 0 0 1 0 0 0];

internalField   nonuniform List<scalar> 
4800
(
100.194
100.581
100.967
101.354
101.737
102.117
102.487
102.844
103.182
103.493
100.581
101.742
102.903
104.063
105.217
106.358
107.475
108.552
109.571
110.511
100.968
102.903
104.841
106.778
108.71
110.624
112.503
114.319
116.039
117.625
101.354
104.063
106.778
109.499
112.22
114.926
117.593
120.181
122.639
124.908
101.738
105.217
108.71
112.22
115.744
119.268
122.761
126.174
129.43
132.438
102.117
106.359
110.625
114.927
119.268
123.64
128.011
132.322
136.47
140.314
102.487
107.476
112.504
117.594
122.762
128.012
133.322
138.631
143.816
148.66
102.845
108.553
114.32
120.183
126.176
132.323
138.632
145.067
151.501
157.64
103.182
109.572
116.041
122.643
129.434
136.473
143.818
151.502
159.481
167.459
103.494
110.513
117.63
124.913
132.443
140.319
148.664
157.644
167.461
178.222
100.194
100.581
100.968
101.354
101.737
102.117
102.487
102.844
103.182
103.493
100.581
101.742
102.903
104.063
105.217
106.358
107.475
108.552
109.571
110.511
100.968
102.903
104.841
106.778
108.71
110.624
112.503
114.319
116.038
117.625
101.354
104.063
106.778
109.499
112.22
114.926
117.593
120.181
122.639
124.907
101.738
105.217
108.71
112.22
115.744
119.268
122.761
126.174
129.43
132.438
102.117
106.359
110.625
114.927
119.268
123.64
128.011
132.322
136.47
140.314
102.487
107.476
112.504
117.594
122.762
128.012
133.322
138.632
143.816
148.66
102.845
108.553
114.32
120.183
126.176
132.324
138.633
145.067
151.501
157.641
103.182
109.573
116.041
122.643
129.434
136.474
143.818
151.503
159.481
167.459
103.494
110.514
117.63
124.913
132.444
140.319
148.665
157.644
167.462
178.222
100.194
100.581
100.968
101.354
101.737
102.117
102.487
102.844
103.182
103.493
100.581
101.742
102.903
104.063
105.217
106.358
107.475
108.552
109.571
110.511
100.968
102.903
104.841
106.778
108.71
110.624
112.503
114.319
116.038
117.625
101.354
104.063
106.778
109.499
112.22
114.926
117.593
120.181
122.639
124.907
101.738
105.217
108.71
112.22
115.744
119.268
122.761
126.174
129.43
132.438
102.117
106.359
110.625
114.927
119.268
123.64
128.011
132.322
136.47
140.314
102.487
107.476
112.504
117.594
122.762
128.012
133.322
138.632
143.816
148.66
102.845
108.553
114.32
120.183
126.176
132.324
138.633
145.067
151.501
157.641
103.182
109.573
116.041
122.643
129.434
136.474
143.818
151.503
159.481
167.459
103.494
110.514
117.63
124.913
132.444
140.319
148.665
157.644
167.462
178.222
100.194
100.581
100.967
101.354
101.737
102.117
102.487
102.844
103.182
103.493
100.581
101.742
102.903
104.063
105.217
106.358
107.475
108.552
109.571
110.511
100.968
102.903
104.841
106.778
108.71
110.624
112.503
114.319
116.039
117.625
101.354
104.063
106.778
109.499
112.22
114.926
117.593
120.181
122.639
124.908
101.738
105.217
108.71
112.22
115.744
119.268
122.761
126.174
129.43
132.438
102.117
106.359
110.625
114.927
119.268
123.64
128.011
132.322
136.47
140.314
102.487
107.476
112.504
117.594
122.762
128.012
133.322
138.631
143.816
148.66
102.845
108.553
114.32
120.183
126.176
132.323
138.632
145.067
151.501
157.64
103.182
109.572
116.041
122.643
129.434
136.473
143.818
151.502
159.481
167.459
103.494
110.513
117.63
124.913
132.443
140.319
148.664
157.644
167.461
178.222
103.773
104.016
104.222
104.391
104.526
104.63
104.707
104.761
104.796
104.813
104.813
104.796
104.761
104.707
104.63
104.526
104.391
104.222
104.016
103.773
111.354
112.086
112.704
113.208
113.609
113.916
114.144
114.304
114.405
114.454
114.454
114.405
114.304
114.144
113.916
113.608
113.208
112.703
112.086
111.353
119.045
120.272
121.298
122.13
122.783
123.282
123.649
123.906
124.067
124.145
124.145
124.067
123.905
123.649
123.281
122.782
122.128
121.297
120.271
119.044
126.928
128.658
130.087
131.228
132.113
132.78
133.266
133.602
133.812
133.913
133.913
133.812
133.601
133.264
132.779
132.112
131.226
130.085
128.656
126.926
135.1
137.346
139.164
140.583
141.661
142.459
143.031
143.423
143.667
143.783
143.783
143.666
143.422
143.03
142.457
141.659
140.581
139.161
137.344
135.098
143.686
146.464
148.638
150.279
151.49
152.363
152.978
153.393
153.648
153.77
153.77
153.648
153.392
152.976
152.361
151.487
150.277
148.635
146.462
143.684
152.868
156.185
158.643
160.407
161.654
162.525
163.124
163.522
163.764
163.878
163.878
163.763
163.521
163.123
162.524
161.652
160.405
158.641
156.183
152.867
162.942
166.765
169.342
171.053
172.194
172.96
173.472
173.806
174.007
174.101
174.101
174.007
173.805
173.471
172.959
172.193
171.051
169.34
166.763
162.941
174.494
178.591
180.906
182.268
183.11
183.649
183.999
184.223
184.357
184.419
184.419
184.356
184.223
183.998
183.648
183.109
182.267
180.905
178.59
174.493
188.983
192.199
193.422
194.004
194.328
194.526
194.651
194.73
194.777
194.799
194.799
194.777
194.73
194.651
194.525
194.328
194.003
193.422
192.199
188.983
103.772
104.016
104.222
104.391
104.526
104.63
104.707
104.761
104.796
104.812
104.812
104.795
104.761
104.707
104.629
104.525
104.391
104.222
104.016
103.772
111.353
112.086
112.704
113.208
113.608
113.916
114.144
114.304
114.405
114.454
114.454
114.404
114.303
114.143
113.915
113.607
113.207
112.702
112.085
111.352
119.044
120.272
121.298
122.129
122.783
123.282
123.649
123.905
124.066
124.144
124.144
124.066
123.904
123.648
123.28
122.781
122.127
121.295
120.269
119.042
126.927
128.658
130.087
131.228
132.113
132.78
133.265
133.601
133.811
133.913
133.912
133.811
133.6
133.263
132.777
132.11
131.225
130.084
128.655
126.925
135.099
137.346
139.163
140.583
141.661
142.458
143.031
143.422
143.666
143.782
143.782
143.665
143.421
143.029
142.456
141.658
140.58
139.16
137.343
135.096
143.686
146.464
148.637
150.279
151.489
152.362
152.977
153.392
153.647
153.769
153.769
153.647
153.391
152.975
152.36
151.486
150.276
148.634
146.46
143.683
152.868
156.185
158.643
160.407
161.654
162.525
163.124
163.521
163.763
163.877
163.877
163.762
163.52
163.122
162.522
161.651
160.404
158.639
156.181
152.865
162.942
166.765
169.341
171.052
172.194
172.96
173.472
173.805
174.006
174.1
174.1
174.005
173.804
173.47
172.958
172.191
171.05
169.339
166.762
162.939
174.494
178.591
180.905
182.268
183.109
183.648
183.998
184.222
184.356
184.418
184.418
184.355
184.221
183.997
183.647
183.108
182.266
180.903
178.589
174.492
188.983
192.199
193.421
194.003
194.327
194.525
194.651
194.73
194.777
194.799
194.799
194.777
194.73
194.65
194.525
194.327
194.003
193.421
192.198
188.982
103.772
104.016
104.222
104.391
104.526
104.63
104.707
104.761
104.796
104.812
104.812
104.795
104.761
104.707
104.629
104.525
104.391
104.222
104.016
103.772
111.353
112.086
112.704
113.208
113.608
113.916
114.144
114.304
114.405
114.454
114.454
114.404
114.303
114.143
113.915
113.607
113.207
112.702
112.085
111.352
119.044
120.272
121.298
122.129
122.783
123.282
123.649
123.905
124.066
124.144
124.144
124.066
123.904
123.648
123.28
122.781
122.127
121.295
120.269
119.042
126.927
128.658
130.087
131.228
132.113
132.78
133.265
133.601
133.811
133.913
133.912
133.811
133.6
133.263
132.777
132.11
131.225
130.084
128.655
126.925
135.099
137.346
139.163
140.583
141.661
142.458
143.031
143.422
143.666
143.782
143.782
143.665
143.421
143.029
142.456
141.658
140.58
139.16
137.343
135.096
143.686
146.464
148.637
150.279
151.489
152.362
152.977
153.392
153.647
153.769
153.769
153.647
153.391
152.975
152.36
151.486
150.276
148.634
146.46
143.683
152.868
156.185
158.643
160.407
161.654
162.525
163.124
163.521
163.763
163.877
163.877
163.762
163.52
163.122
162.522
161.651
160.404
158.639
156.181
152.865
162.942
166.765
169.341
171.052
172.194
172.96
173.472
173.805
174.006
174.1
174.1
174.005
173.804
173.47
172.958
172.191
171.05
169.339
166.762
162.939
174.494
178.591
180.905
182.268
183.109
183.648
183.998
184.222
184.356
184.418
184.418
184.355
184.221
183.997
183.647
183.108
182.266
180.903
178.589
174.492
188.983
192.199
193.421
194.003
194.327
194.525
194.651
194.73
194.777
194.799
194.799
194.777
194.73
194.65
194.525
194.327
194.003
193.421
192.198
188.982
103.773
104.016
104.222
104.391
104.526
104.63
104.707
104.761
104.796
104.813
104.813
104.796
104.761
104.707
104.63
104.526
104.391
104.222
104.016
103.773
111.354
112.086
112.704
113.208
113.609
113.916
114.144
114.304
114.405
114.454
114.454
114.405
114.304
114.144
113.916
113.608
113.208
112.703
112.086
111.353
119.045
120.272
121.298
122.13
122.783
123.282
123.649
123.906
124.067
124.145
124.145
124.067
123.905
123.649
123.281
122.782
122.128
121.297
120.271
119.044
126.928
128.658
130.087
131.228
132.113
132.78
133.266
133.602
133.812
133.913
133.913
133.812
133.601
133.264
132.779
132.112
131.226
130.085
128.656
126.926
135.1
137.346
139.164
140.583
141.661
142.459
143.031
143.423
143.667
143.783
143.783
143.666
143.422
143.03
142.457
141.659
140.581
139.161
137.344
135.098
143.686
146.464
148.638
150.279
151.49
152.363
152.978
153.393
153.648
153.77
153.77
153.648
153.392
152.976
152.361
151.487
150.277
148.635
146.462
143.684
152.868
156.185
158.643
160.407
161.654
162.525
163.124
163.522
163.764
163.878
163.878
163.763
163.521
163.123
162.524
161.652
160.405
158.641
156.183
152.867
162.942
166.765
169.342
171.053
172.194
172.96
173.472
173.806
174.007
174.101
174.101
174.007
173.805
173.471
172.959
172.193
171.051
169.34
166.763
162.941
174.494
178.591
180.906
182.268
183.11
183.649
183.999
184.223
184.357
184.419
184.419
184.356
184.223
183.998
183.648
183.109
182.267
180.905
178.59
174.493
188.983
192.199
193.422
194.004
194.328
194.526
194.651
194.73
194.777
194.799
194.799
194.777
194.73
194.651
194.525
194.328
194.003
193.422
192.199
188.983
103.493
103.182
102.844
102.487
102.117
101.738
101.354
100.968
100.581
100.194
110.51
109.571
108.552
107.475
106.359
105.218
104.064
102.904
101.743
100.581
117.625
116.038
114.319
112.503
110.625
108.71
106.779
104.841
102.904
100.968
124.906
122.639
120.181
117.593
114.927
112.22
109.5
106.779
104.064
101.354
132.436
129.43
126.173
122.762
119.268
115.745
112.221
108.711
105.218
101.738
140.312
136.47
132.322
128.012
123.641
119.269
114.928
110.626
106.36
102.117
148.659
143.815
138.632
133.323
128.013
122.764
117.595
112.505
107.477
102.488
157.64
151.501
145.068
138.634
132.325
126.178
120.185
114.322
108.555
102.845
167.46
159.482
151.504
143.82
136.476
129.436
122.645
116.043
109.574
103.183
178.223
167.463
157.646
148.667
140.322
132.447
124.916
117.632
110.515
103.495
103.492
103.181
102.844
102.487
102.116
101.737
101.353
100.967
100.58
100.193
110.509
109.569
108.551
107.474
106.357
105.216
104.062
102.903
101.741
100.58
117.623
116.037
114.317
112.501
110.623
108.709
106.777
104.84
102.903
100.967
124.905
122.637
120.179
117.591
114.925
112.219
109.498
106.778
104.063
101.353
132.435
129.428
126.172
122.76
119.267
115.743
112.219
108.709
105.217
101.737
140.311
136.468
132.32
128.01
123.639
119.268
114.926
110.624
106.358
102.116
148.657
143.814
138.63
133.321
128.011
122.762
117.594
112.503
107.475
102.487
157.638
151.5
145.066
138.632
132.323
126.176
120.183
114.32
108.553
102.844
167.458
159.48
151.502
143.818
136.474
129.435
122.643
116.042
109.573
103.182
178.221
167.46
157.644
148.665
140.32
132.445
124.914
117.63
110.514
103.494
103.492
103.181
102.844
102.487
102.116
101.737
101.353
100.967
100.58
100.193
110.509
109.569
108.551
107.474
106.357
105.216
104.062
102.903
101.741
100.58
117.623
116.037
114.317
112.501
110.623
108.709
106.777
104.84
102.903
100.967
124.905
122.637
120.179
117.591
114.925
112.219
109.498
106.778
104.063
101.353
132.435
129.428
126.172
122.76
119.267
115.743
112.219
108.709
105.217
101.737
140.311
136.468
132.32
128.01
123.639
119.268
114.926
110.624
106.358
102.116
148.657
143.814
138.63
133.321
128.011
122.762
117.594
112.503
107.475
102.487
157.638
151.5
145.066
138.632
132.323
126.176
120.183
114.32
108.553
102.844
167.458
159.48
151.502
143.818
136.474
129.435
122.643
116.042
109.573
103.182
178.221
167.46
157.644
148.665
140.32
132.445
124.914
117.63
110.514
103.494
103.493
103.182
102.844
102.487
102.117
101.738
101.354
100.968
100.581
100.194
110.51
109.571
108.552
107.475
106.359
105.218
104.064
102.904
101.743
100.581
117.625
116.038
114.319
112.503
110.625
108.71
106.779
104.841
102.904
100.968
124.906
122.639
120.181
117.593
114.927
112.22
109.5
106.779
104.064
101.354
132.436
129.43
126.173
122.762
119.268
115.745
112.221
108.711
105.218
101.738
140.312
136.47
132.322
128.012
123.641
119.269
114.928
110.626
106.36
102.117
148.659
143.815
138.632
133.323
128.013
122.764
117.595
112.505
107.477
102.488
157.64
151.501
145.068
138.634
132.325
126.178
120.185
114.322
108.555
102.845
167.46
159.482
151.504
143.82
136.476
129.436
122.645
116.043
109.574
103.183
178.223
167.463
157.646
148.667
140.322
132.447
124.916
117.632
110.515
103.495
188.986
174.5
162.951
152.88
143.699
135.112
126.939
119.054
111.36
103.775
192.202
178.599
166.778
156.201
146.481
137.364
128.674
120.285
112.095
104.019
193.426
180.917
169.359
158.665
148.662
139.188
130.109
121.316
112.715
104.226
194.009
182.284
171.077
160.438
150.313
140.617
131.258
122.154
113.224
104.397
194.336
183.131
172.228
161.696
151.535
141.707
132.154
122.816
113.63
104.533
194.536
183.678
173.006
162.582
152.426
142.522
132.836
123.327
113.945
104.64
194.665
184.039
173.535
163.202
153.064
143.117
133.343
123.711
114.184
104.721
194.75
184.278
173.892
163.629
153.511
143.541
133.707
123.989
114.358
104.78
194.804
184.433
174.124
163.911
153.81
143.827
133.956
124.181
114.479
104.821
194.836
184.524
174.263
164.08
153.992
144.003
134.11
124.3
114.554
104.847
194.849
184.563
174.324
164.156
154.074
144.084
134.182
124.357
114.59
104.859
194.847
184.556
174.314
164.146
154.065
144.078
134.179
124.355
114.589
104.859
194.827
184.5
174.231
164.048
153.965
143.985
134.1
124.296
114.553
104.847
194.786
184.386
174.064
163.852
153.764
143.798
133.943
124.177
114.479
104.822
194.718
184.195
173.788
163.534
153.442
143.504
133.696
123.993
114.366
104.784
194.604
183.89
173.361
163.056
152.971
143.08
133.347
123.735
114.208
104.731
194.413
183.402
172.711
162.361
152.311
142.502
132.88
123.394
114.001
104.661
194.059
182.594
171.725
161.371
151.413
141.743
132.281
122.964
113.743
104.575
193.287
181.195
170.227
159.993
150.232
140.783
131.542
122.442
113.432
104.472
191.181
178.678
168.002
158.151
148.749
139.621
130.67
121.835
113.074
104.354
188.984
174.498
162.949
152.877
143.697
135.11
126.937
119.052
111.358
103.774
192.201
178.597
166.775
156.199
146.479
137.362
128.672
120.283
112.093
104.018
193.424
180.915
169.357
158.662
148.659
139.186
130.107
121.314
112.714
104.225
194.008
182.281
171.074
160.435
150.31
140.614
131.256
122.151
113.222
104.396
194.334
183.129
172.225
161.693
151.533
141.704
132.152
122.814
113.628
104.532
194.534
183.675
173.003
162.58
152.423
142.519
132.834
123.325
113.943
104.639
194.663
184.036
173.532
163.199
153.061
143.115
133.34
123.708
114.182
104.72
194.748
184.275
173.888
163.626
153.508
143.538
133.705
123.987
114.356
104.779
194.802
184.43
174.121
163.908
153.807
143.825
133.954
124.179
114.477
104.82
194.834
184.52
174.26
164.077
153.989
144
134.108
124.298
114.552
104.846
194.847
184.56
174.32
164.152
154.071
144.081
134.18
124.354
114.588
104.858
194.845
184.553
174.31
164.142
154.062
144.075
134.176
124.352
114.587
104.858
194.825
184.497
174.228
164.045
153.962
143.982
134.097
124.293
114.551
104.846
194.784
184.383
174.06
163.848
153.761
143.795
133.94
124.175
114.477
104.821
194.715
184.192
173.784
163.53
153.439
143.5
133.693
123.99
114.364
104.783
194.602
183.886
173.357
163.052
152.968
143.077
133.344
123.732
114.206
104.729
194.411
183.398
172.707
162.357
152.307
142.499
132.877
123.392
113.999
104.66
194.056
182.59
171.72
161.367
151.409
141.74
132.278
122.961
113.74
104.574
193.284
181.191
170.223
159.989
150.229
140.779
131.539
122.439
113.43
104.471
191.179
178.674
167.998
158.147
148.745
139.617
130.667
121.832
113.072
104.353
188.984
174.498
162.949
152.877
143.697
135.11
126.937
119.052
111.358
103.774
192.201
178.597
166.775
156.199
146.479
137.362
128.672
120.283
112.093
104.018
193.424
180.915
169.357
158.662
148.659
139.186
130.107
121.314
112.714
104.225
194.008
182.281
171.074
160.435
150.31
140.614
131.256
122.151
113.222
104.396
194.334
183.129
172.225
161.693
151.533
141.704
132.152
122.814
113.628
104.532
194.534
183.675
173.003
162.58
152.423
142.519
132.834
123.325
113.943
104.639
194.663
184.036
173.532
163.199
153.061
143.115
133.34
123.708
114.182
104.72
194.748
184.275
173.888
163.626
153.508
143.538
133.705
123.987
114.356
104.779
194.802
184.43
174.121
163.908
153.807
143.825
133.954
124.179
114.477
104.82
194.834
184.52
174.26
164.077
153.989
144
134.108
124.298
114.552
104.846
194.847
184.56
174.32
164.152
154.071
144.081
134.18
124.354
114.588
104.858
194.845
184.553
174.31
164.142
154.062
144.075
134.176
124.352
114.587
104.858
194.825
184.497
174.228
164.045
153.962
143.982
134.097
124.293
114.551
104.846
194.784
184.383
174.06
163.848
153.761
143.795
133.94
124.175
114.477
104.821
194.715
184.192
173.784
163.53
153.439
143.5
133.693
123.99
114.364
104.783
194.602
183.886
173.357
163.052
152.968
143.077
133.344
123.732
114.206
104.729
194.411
183.398
172.707
162.357
152.307
142.499
132.877
123.392
113.999
104.66
194.056
182.59
171.72
161.367
151.409
141.74
132.278
122.961
113.74
104.574
193.284
181.191
170.223
159.989
150.229
140.779
131.539
122.439
113.43
104.471
191.178
178.674
167.998
158.147
148.745
139.617
130.667
121.832
113.072
104.353
188.986
174.5
162.951
152.88
143.699
135.112
126.939
119.054
111.36
103.775
192.202
178.599
166.778
156.201
146.481
137.364
128.674
120.285
112.095
104.019
193.426
180.917
169.359
158.665
148.662
139.188
130.109
121.316
112.715
104.226
194.009
182.284
171.077
160.438
150.313
140.617
131.258
122.154
113.224
104.397
194.336
183.131
172.228
161.696
151.535
141.707
132.154
122.816
113.63
104.533
194.536
183.678
173.006
162.582
152.426
142.522
132.836
123.327
113.945
104.64
194.665
184.039
173.535
163.202
153.064
143.117
133.343
123.711
114.184
104.721
194.75
184.278
173.892
163.629
153.511
143.541
133.707
123.989
114.358
104.78
194.804
184.433
174.124
163.911
153.81
143.827
133.956
124.181
114.479
104.821
194.836
184.524
174.263
164.08
153.992
144.003
134.11
124.3
114.554
104.847
194.849
184.563
174.324
164.156
154.074
144.084
134.182
124.357
114.59
104.859
194.847
184.556
174.314
164.146
154.065
144.078
134.179
124.355
114.589
104.859
194.827
184.5
174.231
164.048
153.965
143.985
134.1
124.296
114.553
104.847
194.786
184.386
174.064
163.852
153.764
143.798
133.943
124.177
114.479
104.822
194.718
184.195
173.788
163.534
153.442
143.504
133.696
123.993
114.366
104.784
194.604
183.89
173.361
163.056
152.971
143.08
133.347
123.735
114.208
104.731
194.413
183.402
172.711
162.361
152.311
142.502
132.88
123.394
114.001
104.661
194.059
182.594
171.725
161.371
151.413
141.743
132.281
122.964
113.743
104.575
193.287
181.195
170.227
159.993
150.232
140.783
131.542
122.442
113.432
104.472
191.181
178.678
168.002
158.151
148.749
139.621
130.67
121.835
113.074
104.354
183.94
174.342
164.962
155.871
147.003
138.292
129.689
121.161
112.679
104.224
177.543
169.802
161.647
153.384
145.114
136.866
128.645
120.446
112.262
104.087
172.357
165.694
158.46
150.92
143.219
135.43
127.591
119.724
111.841
103.948
168.192
162.181
155.601
148.64
141.431
134.059
126.58
119.03
111.435
103.815
164.854
159.266
153.149
146.634
139.829
132.815
125.654
118.391
111.06
103.691
162.213
156.911
151.124
144.945
138.459
131.74
124.848
117.831
110.731
103.583
160.179
155.076
149.524
143.592
137.35
130.861
124.184
117.369
110.458
103.493
158.696
153.729
148.338
142.58
136.513
130.194
123.678
117.015
110.248
103.424
157.726
152.845
147.556
141.908
135.955
129.748
123.339
116.777
110.107
103.377
157.247
152.407
147.167
141.574
135.676
129.524
123.169
116.658
110.037
103.358
183.937
174.338
164.958
155.868
146.999
138.288
129.686
121.158
112.677
104.222
177.54
169.799
161.644
153.38
145.11
136.863
128.642
120.443
112.259
104.085
172.354
165.691
158.457
150.917
143.215
135.426
127.588
119.721
111.838
103.947
168.189
162.178
155.598
148.637
141.428
134.056
126.576
119.026
111.432
103.813
164.852
159.263
153.146
146.631
139.826
132.812
125.651
118.387
111.057
103.689
162.21
156.908
151.121
144.942
138.456
131.737
124.844
117.827
110.728
103.581
160.176
155.074
149.521
143.589
137.346
130.858
124.18
117.364
110.454
103.49
158.693
153.726
148.336
142.577
136.509
130.19
123.674
117.01
110.243
103.42
157.723
152.842
147.553
141.905
135.951
129.744
123.334
116.771
110.101
103.372
157.244
152.404
147.164
141.571
135.672
129.52
123.164
116.652
110.03
103.352
183.937
174.338
164.958
155.868
146.999
138.288
129.686
121.158
112.677
104.222
177.54
169.799
161.644
153.38
145.11
136.863
128.642
120.443
112.259
104.085
172.354
165.691
158.457
150.917
143.215
135.426
127.588
119.721
111.838
103.947
168.189
162.178
155.598
148.637
141.428
134.056
126.576
119.026
111.432
103.813
164.852
159.263
153.146
146.631
139.826
132.812
125.651
118.387
111.057
103.689
162.21
156.908
151.121
144.942
138.456
131.737
124.844
117.827
110.728
103.581
160.176
155.074
149.521
143.589
137.346
130.858
124.18
117.364
110.454
103.49
158.693
153.726
148.335
142.577
136.509
130.19
123.674
117.01
110.243
103.42
157.723
152.842
147.553
141.905
135.951
129.744
123.334
116.771
110.101
103.372
157.244
152.404
147.165
141.571
135.672
129.52
123.164
116.652
110.03
103.352
183.94
174.342
164.962
155.871
147.003
138.292
129.689
121.161
112.679
104.224
177.543
169.802
161.647
153.384
145.114
136.866
128.645
120.446
112.262
104.087
172.357
165.694
158.46
150.92
143.219
135.43
127.591
119.724
111.841
103.948
168.192
162.181
155.601
148.64
141.431
134.059
126.58
119.03
111.435
103.815
164.854
159.266
153.149
146.634
139.829
132.815
125.654
118.391
111.06
103.691
162.213
156.911
151.124
144.945
138.459
131.74
124.848
117.831
110.731
103.583
160.179
155.076
149.524
143.592
137.349
130.861
124.184
117.369
110.458
103.493
158.696
153.729
148.338
142.58
136.513
130.194
123.678
117.015
110.249
103.424
157.726
152.844
147.556
141.908
135.955
129.748
123.339
116.777
110.107
103.377
157.247
152.406
147.167
141.574
135.676
129.524
123.169
116.658
110.037
103.358
192.702
195.492
196.67
197.307
197.71
197.985
198.177
198.309
198.392
198.432
198.432
198.393
198.31
198.179
197.987
197.713
197.31
196.673
195.495
192.703
184.085
188.095
190.559
192.162
193.263
194.043
194.598
194.982
195.224
195.341
195.342
195.226
194.985
194.603
194.049
193.27
192.169
190.565
188.101
184.089
178.015
182.259
185.321
187.534
189.152
190.342
191.206
191.811
192.195
192.383
192.384
192.199
191.816
191.213
190.35
189.162
187.544
185.331
182.269
178.023
173.387
177.626
180.953
183.524
185.494
186.988
188.098
188.884
189.389
189.636
189.637
189.393
188.892
188.108
187.001
185.508
183.539
180.969
177.642
173.402
169.756
173.933
177.372
180.144
182.343
184.053
185.346
186.273
186.873
187.169
187.171
186.879
186.284
185.36
184.071
182.363
180.167
177.396
173.958
169.781
166.908
171.015
174.494
177.377
179.719
181.576
182.999
184.032
184.704
185.037
185.039
184.712
184.045
183.018
181.599
179.746
177.408
174.527
171.051
166.944
164.723
168.768
172.255
175.197
177.626
179.579
181.093
182.199
182.924
183.284
183.287
182.934
182.216
181.116
179.608
177.661
175.237
172.298
168.815
164.772
163.13
167.126
170.608
173.581
176.061
178.074
179.647
180.804
181.564
181.943
181.947
181.577
180.824
179.675
178.11
176.104
173.629
170.662
167.185
163.192
162.088
166.05
169.525
172.512
175.02
177.069
178.676
179.863
180.646
181.037
181.042
180.66
179.887
178.708
177.109
175.069
172.568
169.588
166.119
162.16
161.572
165.517
168.988
171.98
174.501
176.565
178.189
179.391
180.184
180.581
180.586
180.199
179.415
178.224
176.609
174.553
172.04
169.056
165.592
161.651
192.704
195.494
196.672
197.309
197.711
197.986
198.178
198.31
198.392
198.432
198.432
198.392
198.31
198.178
197.986
197.711
197.309
196.672
195.493
192.701
184.088
188.098
190.561
192.164
193.265
194.045
194.6
194.982
195.224
195.341
195.342
195.225
194.984
194.602
194.047
193.268
192.167
190.563
188.098
184.086
178.018
182.262
185.323
187.536
189.154
190.343
191.207
191.812
192.196
192.383
192.384
192.198
191.815
191.212
190.349
189.16
187.542
185.329
182.266
178.021
173.39
177.629
180.956
183.526
185.496
186.99
188.099
188.885
189.389
189.636
189.637
189.393
188.891
188.107
187
185.507
183.537
180.967
177.639
173.399
169.759
173.936
177.375
180.147
182.345
184.055
185.347
186.274
186.874
187.169
187.17
186.879
186.283
185.359
184.069
182.361
180.165
177.394
173.956
169.778
166.911
171.018
174.497
177.38
179.721
181.577
183.001
184.033
184.705
185.037
185.039
184.712
184.044
183.017
181.597
179.744
177.406
174.525
171.048
166.942
164.726
168.771
172.257
175.199
177.628
179.58
181.094
182.2
182.924
183.284
183.287
182.934
182.215
181.115
179.607
177.659
175.235
172.296
168.813
164.769
163.133
167.129
170.611
173.583
176.063
178.076
179.648
180.804
181.565
181.943
181.947
181.576
180.823
179.674
178.108
176.102
173.627
170.66
167.182
163.189
162.09
166.053
169.528
172.514
175.022
177.07
178.677
179.864
180.647
181.037
181.041
180.66
179.886
178.707
177.108
175.068
172.566
169.586
166.116
162.158
161.574
165.52
168.99
171.982
174.503
176.566
178.19
179.391
180.184
180.581
180.585
180.199
179.415
178.223
176.607
174.552
172.039
169.054
165.59
161.648
192.704
195.494
196.672
197.309
197.711
197.986
198.178
198.31
198.392
198.432
198.432
198.392
198.31
198.178
197.986
197.711
197.309
196.672
195.493
192.701
184.088
188.098
190.561
192.164
193.265
194.045
194.6
194.982
195.224
195.341
195.342
195.225
194.984
194.602
194.047
193.268
192.167
190.563
188.098
184.086
178.018
182.262
185.323
187.536
189.154
190.343
191.207
191.811
192.196
192.383
192.384
192.198
191.815
191.212
190.349
189.16
187.542
185.329
182.266
178.02
173.39
177.629
180.956
183.526
185.496
186.99
188.099
188.885
189.389
189.636
189.637
189.393
188.891
188.107
187
185.507
183.537
180.967
177.639
173.399
169.759
173.936
177.375
180.147
182.345
184.055
185.347
186.274
186.874
187.169
187.17
186.879
186.283
185.359
184.069
182.361
180.165
177.394
173.956
169.778
166.911
171.018
174.497
177.38
179.721
181.577
183.001
184.033
184.705
185.037
185.039
184.712
184.044
183.017
181.597
179.744
177.406
174.525
171.048
166.942
164.726
168.771
172.257
175.199
177.628
179.58
181.094
182.2
182.924
183.284
183.287
182.934
182.215
181.115
179.607
177.659
175.235
172.296
168.813
164.769
163.133
167.129
170.611
173.583
176.063
178.076
179.648
180.804
181.565
181.943
181.947
181.576
180.823
179.674
178.108
176.102
173.627
170.66
167.182
163.189
162.09
166.053
169.528
172.514
175.022
177.07
178.678
179.864
180.647
181.037
181.041
180.66
179.886
178.707
177.108
175.068
172.566
169.586
166.116
162.158
161.574
165.52
168.99
171.982
174.503
176.566
178.19
179.391
180.185
180.581
180.585
180.199
179.415
178.223
176.608
174.552
172.039
169.054
165.59
161.648
192.702
195.492
196.67
197.307
197.71
197.985
198.177
198.309
198.392
198.432
198.432
198.393
198.31
198.179
197.987
197.712
197.31
196.673
195.495
192.703
184.085
188.095
190.559
192.162
193.263
194.043
194.598
194.982
195.224
195.341
195.342
195.226
194.985
194.603
194.049
193.269
192.169
190.565
188.101
184.089
178.015
182.259
185.32
187.534
189.152
190.342
191.206
191.811
192.195
192.383
192.384
192.199
191.816
191.213
190.35
189.162
187.544
185.331
182.269
178.023
173.387
177.626
180.953
183.524
185.494
186.989
188.098
188.884
189.389
189.636
189.637
189.393
188.892
188.108
187.001
185.508
183.539
180.969
177.642
173.402
169.756
173.933
177.372
180.144
182.343
184.053
185.346
186.273
186.873
187.169
187.171
186.879
186.284
185.36
184.07
182.363
180.167
177.396
173.958
169.781
166.908
171.015
174.494
177.377
179.719
181.576
182.999
184.032
184.704
185.037
185.039
184.712
184.045
183.018
181.599
179.746
177.408
174.527
171.051
166.944
164.723
168.768
172.254
175.197
177.626
179.579
181.092
182.199
182.924
183.284
183.287
182.934
182.216
181.116
179.608
177.661
175.237
172.298
168.815
164.771
163.13
167.126
170.608
173.581
176.061
178.074
179.647
180.803
181.564
181.943
181.947
181.576
180.824
179.675
178.11
176.103
173.629
170.662
167.185
163.192
162.087
166.05
169.525
172.512
175.02
177.069
178.676
179.863
180.646
181.037
181.042
180.66
179.887
178.708
177.109
175.069
172.568
169.588
166.119
162.16
161.572
165.517
168.988
171.98
174.501
176.565
178.189
179.391
180.184
180.581
180.586
180.199
179.416
178.224
176.609
174.554
172.041
169.056
165.592
161.651
104.224
112.681
121.165
129.696
138.3
147.011
155.879
164.968
174.345
183.94
104.086
112.263
120.449
128.65
136.873
145.12
153.389
161.651
169.803
177.541
103.948
111.841
119.726
127.594
135.433
143.221
150.921
158.459
165.691
172.351
103.813
111.433
119.028
126.578
134.057
141.427
148.634
155.592
162.17
168.178
103.689
111.056
118.385
125.647
132.805
139.816
146.618
153.13
159.244
164.831
103.579
110.724
117.82
124.833
131.721
138.435
144.917
151.092
156.876
162.177
103.488
110.447
117.351
124.16
130.83
137.312
143.549
149.478
155.028
160.129
103.417
110.233
116.989
123.643
130.15
136.461
142.523
148.277
153.666
158.632
103.369
110.088
116.742
123.291
129.69
135.889
141.837
147.481
152.769
157.651
103.34
110.014
116.617