/*--------------------------------*- C++ -*----------------------------------*\
| =========                 |                                                 |
| \\      /  F ield         | OpenFOAM: The Open Source CFD Toolbox           |
|  \\    /   O peration     | Version:  2.4.0                                 |
|   \\  /    A nd           | Web:      www.OpenFOAM.org                      |
|    \\/     M anipulation  |                                                 |
\*---------------------------------------------------------------------------*/
FoamFile
{
    version     2.0;
    format      ascii;
    class       surfaceScalarField;
    location    "5";
    object      phi;
}
// * * * * * * * * * * * * * * * * * * * * * * * * * * * * * * * * * * * * * //

dimensions      [0 3 -1 0 0 0 0];

internalField   nonuniform List<scalar> 
12720
(
1.5518e-07
-1.56201e-07
-8.72285e-11
-5.40137e-07
6.93605e-07
1.71305e-09
-2.06852e-06
1.5258e-06
2.58314e-09
-4.18276e-06
2.11092e-06
3.32177e-09
-6.64621e-06
2.45968e-06
3.76328e-09
-9.2638e-06
2.61365e-06
3.94645e-09
-1.1875e-05
2.6072e-06
3.95926e-09
-1.43405e-05
2.46176e-06
3.80463e-09
-1.6539e-05
2.195e-06
3.45611e-09
1.83574e-06
2.89005e-09
-1.83776e-05
-7.25614e-07
5.70886e-07
-1.47174e-09
-3.29772e-06
3.26532e-06
3.94869e-10
-7.50588e-06
5.73547e-06
-1.51295e-09
-1.29253e-05
7.53278e-06
-2.39546e-09
-1.91068e-05
8.64401e-06
-2.8379e-09
-2.56305e-05
9.14039e-06
-3.11592e-09
-3.21156e-05
9.09546e-06
-3.12505e-09
-3.8219e-05
8.56807e-06
-2.90501e-09
-4.36448e-05
7.62332e-06
-2.54763e-09
6.36978e-06
-2.19782e-09
-4.81766e-05
-1.69489e-06
2.26829e-06
-2.51668e-09
-6.13985e-06
7.70801e-06
2.26152e-09
-1.27389e-05
1.23345e-05
1.00997e-10
-2.08955e-05
1.56894e-05
-9.69406e-11
-3.00218e-05
1.77702e-05
1.16294e-10
-3.95583e-05
1.86768e-05
1.0926e-10
-4.89761e-05
1.85131e-05
1.21663e-10
-5.77806e-05
1.73724e-05
1.81481e-10
-6.55361e-05
1.53785e-05
2.50692e-10
1.27556e-05
1.54286e-10
-7.1922e-05
-2.49214e-06
4.76409e-06
-3.65829e-09
-8.52426e-06
1.37369e-05
3.18902e-09
-1.71094e-05
2.09197e-05
-2.20004e-11
-2.74617e-05
2.6042e-05
-2.90347e-10
-3.88786e-05
2.9187e-05
8.00011e-11
-5.07032e-05
3.05013e-05
1.23474e-10
-6.23004e-05
3.01102e-05
1.65385e-10
-7.30531e-05
2.81248e-05
2.7302e-10
-8.23932e-05
2.47181e-05
4.74944e-10
2.02449e-05
4.19067e-10
-8.98829e-05
-3.05664e-06
7.8252e-06
-4.4779e-09
-1.02502e-05
2.09268e-05
3.74969e-09
-2.02892e-05
3.09591e-05
-4.4143e-10
-3.22286e-05
3.79823e-05
-9.38595e-10
-4.52763e-05
4.22353e-05
-5.70049e-10
-5.87072e-05
4.39328e-05
-5.43484e-10
-7.18084e-05
4.32118e-05
-4.85139e-10
-8.3855e-05
4.01718e-05
-2.86636e-10
-9.41322e-05
3.4995e-05
2.97347e-10
2.81436e-05
5.8786e-10
-0.000102032
-3.36371e-06
1.11938e-05
-4.9022e-09
-1.12106e-05
2.87695e-05
4.146e-09
-2.20747e-05
4.18238e-05
-5.78176e-10
-3.49121e-05
5.0821e-05
-1.19416e-09
-4.8877e-05
5.6201e-05
-8.29924e-10
-6.32074e-05
5.8264e-05
-8.23107e-10
-7.71421e-05
5.71473e-05
-8.03914e-10
-8.9866e-05
5.28963e-05
-6.47167e-10
-0.000100495
4.56235e-05
5.14819e-10
3.5789e-05
1.64033e-09
-0.000108142
-3.40392e-06
1.46022e-05
-4.49937e-09
-1.13541e-05
3.67154e-05
4.2426e-09
-2.23505e-05
5.28208e-05
-6.20288e-10
-3.53211e-05
6.37928e-05
-1.30723e-09
-4.94062e-05
7.02871e-05
-9.96984e-10
-6.3842e-05
7.27009e-05
-1.03214e-09
-7.78593e-05
7.11657e-05
-1.14146e-09
-9.05926e-05
6.5631e-05
-1.3662e-09
-0.000100992
5.60221e-05
6.76741e-10
4.25227e-05
4.1708e-09
-0.00010773
-3.18352e-06
1.77903e-05
-4.53045e-09
-1.06867e-05
4.42145e-05
4.08578e-09
-2.11012e-05
6.32358e-05
-5.64509e-10
-3.33877e-05
7.60807e-05
-1.26985e-09
-4.67026e-05
8.3603e-05
-1.03838e-09
-6.03045e-05
8.63039e-05
-1.05407e-09
-7.34596e-05
8.43219e-05
-1.19218e-09
-8.53246e-05
7.74981e-05
-2.11017e-09
-9.47704e-05
6.54659e-05
2.00338e-09
4.75896e-05
1.45203e-08
-9.98518e-05
-2.73376e-06
2.05278e-05
-3.7597e-09
-9.29338e-06
5.07704e-05
3.70918e-09
-1.84566e-05
7.23994e-05
-3.91298e-10
-2.92516e-05
8.68768e-05
-1.06277e-09
-4.08489e-05
9.52013e-05
-9.73583e-10
-5.25132e-05
9.79692e-05
-1.05123e-09
-6.35449e-05
9.53551e-05
-1.4082e-09
-7.31765e-05
8.71346e-05
-4.92288e-09
-8.04201e-05
7.2711e-05
-1.46816e-09
4.98916e-05
3.25966e-08
-8.27547e-05
-2.11921e-06
-2.72542e-09
2.26497e-05
-7.36421e-06
3.20555e-09
5.60122e-05
-1.4751e-05
-7.45182e-11
7.97862e-05
-2.33793e-05
-6.07668e-10
9.55057e-05
-3.23894e-05
-6.42535e-10
0.000104212
-4.09489e-05
-9.36091e-10
0.00010653
-4.82336e-05
-1.98075e-09
0.000102642
-5.33217e-05
-1.22385e-08
9.2235e-05
-5.51008e-05
-2.86332e-08
7.45187e-05
9.84989e-09
-5.23986e-05
4.71796e-05
1.56873e-07
-1.56944e-07
-1.55078e-11
-5.40638e-07
6.99233e-07
-8.64479e-12
-2.06921e-06
1.53116e-06
-7.75077e-12
-4.18286e-06
2.11698e-06
-6.91632e-12
-6.64605e-06
2.46695e-06
-5.47567e-12
-9.26365e-06
2.62155e-06
-4.24553e-12
-1.18749e-05
2.61523e-06
-3.31081e-12
-1.43407e-05
2.46956e-06
-2.60057e-12
-1.65394e-05
2.20217e-06
-2.07694e-12
1.84175e-06
-1.6968e-12
-1.83782e-05
-7.30196e-07
5.71789e-07
-8.45403e-12
-3.30328e-06
3.27272e-06
-7.2895e-12
-7.51083e-06
5.73721e-06
-7.92758e-12
-1.29288e-05
7.53253e-06
-7.3324e-12
-1.91085e-05
8.64384e-06
-5.91452e-12
-2.56306e-05
9.14052e-06
-4.62397e-12
-3.21145e-05
9.09602e-06
-3.61483e-12
-3.8217e-05
8.56921e-06
-2.84983e-12
-4.36425e-05
7.62506e-06
-2.28335e-12
6.37139e-06
-1.86443e-12
-4.81743e-05
-1.70027e-06
2.26955e-06
-7.39062e-12
-6.14056e-06
7.71527e-06
-7.73185e-12
-1.27397e-05
1.23365e-05
-7.64481e-12
-2.08965e-05
1.56892e-05
-6.67805e-12
-3.00224e-05
1.77698e-05
-5.49846e-12
-3.95584e-05
1.86767e-05
-4.41954e-12
-4.89758e-05
1.85135e-05
-3.55279e-12
-5.77801e-05
1.73737e-05
-2.87106e-12
-6.55358e-05
1.5381e-05
-2.34089e-12
1.27578e-05
-1.93285e-12
-7.1922e-05
-2.49897e-06
4.76486e-06
-6.35357e-12
-8.52309e-06
1.37426e-05
-6.94241e-12
-1.71082e-05
2.09216e-05
-6.43026e-12
-2.74614e-05
2.60422e-05
-5.6361e-12
-3.88785e-05
2.9187e-05
-4.80508e-12
-5.07032e-05
3.05015e-05
-4.01042e-12
-6.23003e-05
3.01108e-05
-3.34034e-12
-7.3053e-05
2.81266e-05
-2.78082e-12
-8.23937e-05
2.47222e-05
-2.31672e-12
2.02489e-05
-1.94139e-12
-8.98843e-05
-3.06516e-06
7.82555e-06
-4.92215e-12
-1.02488e-05
2.093e-05
-5.48376e-12
-2.02876e-05
3.096e-05
-5.11793e-12
-3.22282e-05
3.79819e-05
-4.63392e-12
-4.52763e-05
4.22345e-05
-4.13765e-12
-5.87074e-05
4.3932e-05
-3.61356e-12
-7.18084e-05
4.32113e-05
-3.12815e-12
-8.38547e-05
4.01726e-05
-2.68321e-12
-9.41327e-05
3.50005e-05
-2.28062e-12
2.81509e-05
-1.93141e-12
-0.000102034
-3.37307e-06
1.11937e-05
-3.83285e-12
-1.1209e-05
2.877e-05
-4.34314e-12
-2.2073e-05
4.18234e-05
-4.11704e-12
-3.4912e-05
5.08198e-05
-3.87823e-12
-4.88775e-05
5.61992e-05
-3.64001e-12
-6.32083e-05
5.8262e-05
-3.32464e-12
-7.71428e-05
5.7145e-05
-2.9754e-12
-8.98656e-05
5.28948e-05
-2.61186e-12
-0.000100495
4.56307e-05
-2.25296e-12
3.58037e-05
-1.9231e-12
-0.000108146
-3.41319e-06
1.46024e-05
-3.37638e-12
-1.13525e-05
3.67136e-05
-3.60676e-12
-2.2349e-05
5.28193e-05
-3.40009e-12
-3.53216e-05
6.3791e-05
-3.32458e-12
-4.94078e-05
7.02845e-05
-3.26249e-12
-6.38444e-05
7.26976e-05
-3.08167e-12
-7.78617e-05
7.11611e-05
-2.81145e-12
-9.05928e-05
6.56246e-05
-2.49999e-12
-0.000100991
5.60295e-05
-2.18048e-12
4.25552e-05
-1.8651e-12
-0.000107738
-3.19228e-06
1.77902e-05
-2.65208e-12
-1.06852e-05
4.42106e-05
-2.92763e-12
-2.11001e-05
6.32335e-05
-2.85988e-12
-3.33889e-05
7.60785e-05
-2.90233e-12
-4.67054e-05
8.36e-05
-2.93666e-12
-6.03087e-05
8.62998e-05
-2.81784e-12
-7.34642e-05
8.43154e-05
-2.57673e-12
-8.53249e-05
7.74831e-05
-2.30243e-12
-9.47579e-05
6.54645e-05
-2.0173e-12
4.76726e-05
-1.64058e-12
-9.98608e-05
-2.74118e-06
2.05276e-05
-2.13269e-12
-9.29204e-06
5.07652e-05
-2.42342e-12
-1.84558e-05
7.23969e-05
-2.43606e-12
-2.92535e-05
8.68752e-05
-2.53419e-12
-4.08537e-05
9.51992e-05
-2.59622e-12
-5.25217e-05
9.79667e-05
-2.48618e-12
-6.35595e-05
9.53518e-05
-2.24939e-12
-7.31964e-05
8.71152e-05
-2.03322e-12
-8.03962e-05
7.26628e-05
-1.82099e-12
5.00096e-05
-1.33115e-12
-8.27006e-05
-2.12462e-06
-1.76725e-12
2.26495e-05
-7.3626e-06
-2.00997e-12
5.60064e-05
-1.47496e-05
-2.06021e-12
7.97838e-05
-2.33802e-05
-2.16528e-12
9.55052e-05
-3.23942e-05
-2.20977e-12
0.000104213
-4.09609e-05
-2.07888e-12
0.000106533
-4.82625e-05
-1.84089e-12
0.000102651
-5.34104e-05
-1.74861e-12
9.22509e-05
-5.52424e-05
-1.76022e-12
7.44662e-05
-1.32374e-12
-5.21695e-05
4.69466e-05
1.56947e-07
-1.5687e-07
-9.10367e-11
-5.40582e-07
6.99282e-07
-1.76147e-09
-2.06918e-06
1.53119e-06
-2.60441e-09
-4.18284e-06
2.11699e-06
-3.3354e-09
-6.64603e-06
2.46696e-06
-3.77264e-09
-9.26364e-06
2.62155e-06
-3.9532e-09
-1.18749e-05
2.61523e-06
-3.96434e-09
-1.43407e-05
2.46956e-06
-3.80855e-09
-1.65394e-05
2.20217e-06
-3.45922e-09
1.84175e-06
-2.8926e-09
-1.83782e-05
-7.30147e-07
5.71846e-07
1.42365e-09
-3.30322e-06
3.27277e-06
-4.2208e-10
-7.51078e-06
5.73725e-06
1.49409e-09
-1.29287e-05
7.53255e-06
2.38185e-09
-1.91085e-05
8.64386e-06
2.82804e-09
-2.56305e-05
9.14053e-06
3.10864e-09
-3.21145e-05
9.09602e-06
3.11953e-09
-3.8217e-05
8.56921e-06
2.9007e-09
-4.36425e-05
7.62507e-06
2.54418e-09
6.3714e-06
2.19499e-09
-4.81743e-05
-1.70024e-06
2.26959e-06
2.49577e-09
-6.14052e-06
7.71532e-06
-2.27998e-09
-1.27397e-05
1.23365e-05
-1.15924e-10
-2.08965e-05
1.56892e-05
8.55195e-11
-3.00223e-05
1.77699e-05
-1.25068e-10
-3.95584e-05
1.86767e-05
-1.16053e-10
-4.89758e-05
1.85135e-05
-1.27012e-10
-5.77801e-05
1.73737e-05
-1.85776e-10
-6.55358e-05
1.5381e-05
-2.54187e-10
1.27578e-05
-1.5717e-10
-7.1922e-05
-2.49895e-06
4.76489e-06
3.64532e-09
-8.52307e-06
1.37426e-05
-3.20207e-09
-1.71082e-05
2.09216e-05
1.07387e-11
-2.74614e-05
2.60422e-05
2.81224e-10
-3.88785e-05
2.91871e-05
-8.75027e-11
-5.07032e-05
3.05015e-05
-1.2965e-10
-6.23003e-05
3.01108e-05
-1.70493e-10
-7.3053e-05
2.81266e-05
-2.77258e-10
-8.23936e-05
2.47222e-05
-4.78451e-10
2.02489e-05
-4.2198e-10
-8.98843e-05
-3.06515e-06
7.82556e-06
4.46945e-09
-1.02487e-05
2.093e-05
-3.75877e-09
-2.02876e-05
3.096e-05
4.33128e-10
-3.22282e-05
3.79819e-05
9.31477e-10
-4.52763e-05
4.22345e-05
5.63779e-10
-5.87074e-05
4.3932e-05
5.37999e-10
-7.18084e-05
4.32113e-05
4.80409e-10
-8.38547e-05
4.01726e-05
2.82627e-10
-9.41327e-05
3.50005e-05
-3.00696e-10
2.81509e-05
-5.90671e-10
-0.000102034
-3.37307e-06
1.11937e-05
4.89643e-09
-1.1209e-05
2.877e-05
-4.15253e-09
-2.20729e-05
4.18234e-05
5.71902e-10
-3.4912e-05
5.08198e-05
1.18846e-09
-4.88775e-05
5.61992e-05
8.24557e-10
-6.32083e-05
5.8262e-05
8.1817e-10
-7.71428e-05
5.7145e-05
7.99553e-10
-8.98656e-05
5.28948e-05
6.43454e-10
-0.000100495
4.56307e-05
-5.17934e-10
3.58037e-05
-1.64301e-09
-0.000108146
-3.41319e-06
1.46024e-05
4.4932e-09
-1.13525e-05
3.67136e-05
-4.24753e-09
-2.2349e-05
5.28193e-05
6.15312e-10
-3.53215e-05
6.3791e-05
1.30246e-09
-4.94078e-05
7.02845e-05
9.92259e-10
-6.38444e-05
7.26976e-05
1.02768e-09
-7.78617e-05
7.11611e-05
1.13753e-09
-9.05928e-05
6.56246e-05
1.36289e-09
-0.000100991
5.60295e-05
-6.79545e-10
4.25552e-05
-4.17332e-09
-0.000107738
-3.19228e-06
1.77902e-05
4.52712e-09
-1.06852e-05
4.42106e-05
-4.08979e-09
-2.11001e-05
6.32335e-05
5.60368e-10
-3.33889e-05
7.60786e-05
1.26571e-09
-4.67054e-05
8.36e-05
1.03419e-09
-6.03087e-05
8.62998e-05
1.05014e-09
-7.34642e-05
8.43155e-05
1.18878e-09
-8.53249e-05
7.74832e-05
2.10735e-09
-9.47579e-05
6.54645e-05
-2.0058e-09
4.76726e-05
-1.45225e-08
-9.98608e-05
-2.74118e-06
2.05276e-05
3.75692e-09
-9.29203e-06
5.07652e-05
-3.71253e-09
-1.84558e-05
7.23969e-05
3.8777e-10
-2.92535e-05
8.68752e-05
1.05914e-09
-4.08537e-05
9.51992e-05
9.69929e-10
-5.25217e-05
9.79668e-05
1.04789e-09
-6.35595e-05
9.53518e-05
1.40541e-09
-7.31964e-05
8.71152e-05
4.9206e-09
-8.03962e-05
7.26628e-05
1.46612e-09
5.00096e-05
-3.25986e-08
-8.27006e-05
-2.12462e-06
2.72313e-09
2.26495e-05
-7.36259e-06
-3.20834e-09
5.60064e-05
-1.47496e-05
7.15265e-11
7.97838e-05
-2.33802e-05
6.04544e-10
9.55052e-05
-3.23942e-05
6.39461e-10
0.000104213
-4.09609e-05
9.33391e-10
0.000106533
-4.82625e-05
1.97857e-09
0.000102651
-5.34104e-05
1.22367e-08
9.22509e-05
-5.52424e-05
2.86315e-08
7.44662e-05
-9.85169e-09
-5.21695e-05
4.69466e-05
1.55645e-07
-1.55735e-07
-5.39918e-07
6.93802e-07
-2.06841e-06
1.52589e-06
-4.1827e-06
2.11095e-06
-6.64616e-06
2.45969e-06
-9.26377e-06
2.61365e-06
-1.18749e-05
2.6072e-06
-1.43405e-05
2.46176e-06
-1.6539e-05
2.195e-06
1.83574e-06
-1.83776e-05
-7.25419e-07
5.71108e-07
-3.29754e-06
3.2655e-06
-7.50574e-06
5.73558e-06
-1.29252e-05
7.53284e-06
-1.91068e-05
8.64404e-06
-2.56304e-05
9.1404e-06
-3.21156e-05
9.09547e-06
-3.8219e-05
8.56807e-06
-4.36447e-05
7.62332e-06
6.36978e-06
-4.81766e-05
-1.69481e-06
2.26841e-06
-6.13973e-06
7.70814e-06
-1.27388e-05
1.23346e-05
-2.08954e-05
1.56895e-05
-3.00217e-05
1.77702e-05
-3.95583e-05
1.86768e-05
-4.89761e-05
1.85132e-05
-5.77806e-05
1.73724e-05
-6.55361e-05
1.53785e-05
1.27556e-05
-7.1922e-05
-2.4921e-06
4.76416e-06
-8.52419e-06
1.3737e-05
-1.71094e-05
2.09197e-05
-2.74616e-05
2.6042e-05
-3.88785e-05
2.91871e-05
-5.07032e-05
3.05013e-05
-6.23004e-05
3.01102e-05
-7.30531e-05
2.81248e-05
-8.23931e-05
2.47181e-05
2.02449e-05
-8.98829e-05
-3.05662e-06
7.82524e-06
-1.02502e-05
2.09268e-05
-2.02892e-05
3.09592e-05
-3.22286e-05
3.79823e-05
-4.52762e-05
4.22353e-05
-5.87072e-05
4.39328e-05
-7.18083e-05
4.32118e-05
-8.3855e-05
4.01718e-05
-9.41322e-05
3.4995e-05
2.81436e-05
-0.000102032
-3.3637e-06
1.11938e-05
-1.12105e-05
2.87695e-05
-2.20746e-05
4.18238e-05
-3.49121e-05
5.0821e-05
-4.8877e-05
5.6201e-05
-6.32074e-05
5.82641e-05
-7.71421e-05
5.71473e-05
-8.98659e-05
5.28963e-05
-0.000100495
4.56235e-05
3.5789e-05
-0.000108142
-3.40392e-06
1.46023e-05
-1.13541e-05
3.67155e-05
-2.23505e-05
5.28208e-05
-3.53211e-05
6.37929e-05
-4.94062e-05
7.02871e-05
-6.3842e-05
7.27009e-05
-7.78593e-05
7.11657e-05
-9.05926e-05
6.5631e-05
-0.000100992
5.60221e-05
4.25227e-05
-0.00010773
-3.18352e-06
1.77903e-05
-1.06867e-05
4.42146e-05
-2.11011e-05
6.32358e-05
-3.33877e-05
7.60807e-05
-4.67026e-05
8.3603e-05
-6.03045e-05
8.63039e-05
-7.34596e-05
8.43219e-05
-8.53245e-05
7.74981e-05
-9.47704e-05
6.54659e-05
4.75896e-05
-9.98518e-05
-2.73376e-06
2.05278e-05
-9.29338e-06
5.07705e-05
-1.84566e-05
7.23994e-05
-2.92516e-05
8.68768e-05
-4.08489e-05
9.52013e-05
-5.25131e-05
9.79692e-05
-6.35449e-05
9.53551e-05
-7.31765e-05
8.71346e-05
-8.042e-05
7.2711e-05
4.98916e-05
-8.27547e-05
-2.11921e-06
2.26497e-05
-7.36421e-06
5.60122e-05
-1.4751e-05
7.97862e-05
-2.33793e-05
9.55058e-05
-3.23894e-05
0.000104212
-4.09489e-05
0.00010653
-4.82336e-05
0.000102642
-5.33217e-05
9.2235e-05
-5.51008e-05
7.45187e-05
-5.23986e-05
4.71796e-05
-1.98147e-05
1.4349e-06
2.17554e-09
-2.08714e-05
1.05524e-06
1.52383e-09
-2.16108e-05
7.38308e-07
1.01046e-09
-2.21099e-05
4.98539e-07
6.39403e-10
-2.24425e-05
3.32143e-07
3.93733e-10
-2.26697e-05
2.27017e-07
2.45758e-10
-2.28397e-05
1.69774e-07
1.68907e-10
-2.2989e-05
1.49162e-07
1.43029e-10
-2.31459e-05
1.56773e-07
1.54425e-10
-2.33323e-05
1.86192e-07
1.94319e-10
-2.35639e-05
2.31395e-07
2.56532e-10
-2.3849e-05
2.84746e-07
3.34602e-10
-2.41842e-05
3.34791e-07
4.18745e-10
-2.45489e-05
3.64136e-07
4.92705e-10
-2.48973e-05
3.47953e-07
5.29484e-10
-2.5152e-05
2.54209e-07
4.85445e-10
-2.52007e-05
4.83308e-08
3.05989e-10
-2.4898e-05
-3.02608e-07
-4.28367e-11
-2.4091e-05
-8.06397e-07
-6.56527e-10
-1.43743e-06
-1.58067e-09
-2.2652e-05
-5.17257e-05
4.98592e-06
-1.94424e-09
-5.4352e-05
3.68323e-06
-1.62382e-09
-5.621e-05
2.59758e-06
-1.28552e-09
-5.74844e-05
1.77393e-06
-9.83588e-10
-5.83493e-05
1.19774e-06
-7.37247e-10
-5.89496e-05
8.27837e-07
-5.56138e-10
-5.93982e-05
6.18864e-07
-4.39889e-10
-5.97806e-05
5.31947e-07
-3.81077e-10
-6.01603e-05
5.36834e-07
-3.69249e-10
-6.0583e-05
6.09264e-07
-3.92231e-10
-6.10771e-05
7.25964e-07
-4.35189e-10
-6.16504e-05
8.58527e-07
-4.78441e-10
-6.22821e-05
9.66915e-07
-4.95124e-10
-6.2911e-05
9.93551e-07
-4.49638e-10
-6.34226e-05
8.59788e-07
-2.98176e-10
-6.36364e-05
4.68e-07
5.13655e-12
-6.33026e-05
-2.85963e-07
4.90254e-10
-6.21195e-05
-1.48678e-06
1.14624e-09
-5.97731e-05
-3.15476e-06
1.93208e-09
-5.19512e-06
2.67132e-09
-5.60181e-05
-7.68207e-05
9.88487e-06
-2.39853e-10
-8.03644e-05
7.22731e-06
-4.17888e-10
-8.28192e-05
5.05283e-06
-4.58871e-10
-8.44737e-05
3.42887e-06
-4.36865e-10
-8.5581e-05
2.30549e-06
-3.73957e-10
-8.63405e-05
1.58755e-06
-2.99277e-10
-8.68999e-05
1.17857e-06
-2.31468e-10
-8.73666e-05
9.98833e-07
-1.77723e-10
-8.78171e-05
9.87411e-07
-1.38926e-10
-8.83035e-05
1.09585e-06
-1.12526e-10
-8.88558e-05
1.27834e-06
-9.41121e-11
-8.94775e-05
1.48025e-06
-7.803e-11
-9.01369e-05
1.62636e-06
-5.74934e-11
-9.07533e-05
1.60999e-06
-2.4079e-11
-9.11798e-05
1.28626e-06
3.34367e-11
-9.11867e-05
4.74797e-07
1.24491e-10
-9.04535e-05
-1.01937e-06
2.43924e-10
-8.85822e-05
-3.35846e-06
3.83873e-10
-8.51463e-05
-6.59126e-06
5.28118e-10
-1.05473e-05
4.49297e-10
-7.97945e-05
-9.53764e-05
1.53788e-05
-3.82057e-10
-9.91427e-05
1.09942e-05
-6.15603e-10
-0.000101614
7.52447e-06
-6.12244e-10
-0.000103197
5.01236e-06
-5.44875e-10
-0.000104209
3.3184e-06
-4.34298e-10
-0.000104876
2.25521e-06
-3.21936e-10
-0.000105351
1.65373e-06
-2.28565e-10
-0.000105736
1.38378e-06
-1.57745e-10
-0.000106099
1.35064e-06
-1.07273e-10
-0.000106485
1.48209e-06
-7.31205e-11
-0.000106919
1.71215e-06
-5.11447e-11
-0.000107403
1.96391e-06
-3.75908e-11
-0.000107908
2.13188e-06
-2.88765e-11
-0.000108364
2.06519e-06
-1.93352e-11
-0.000108632
1.55467e-06
5.21766e-12
-0.000108488
3.30716e-07
6.0468e-11
-0.000107594
-1.9132e-06
1.29543e-10
-0.000105493
-5.46005e-06
2.59892e-10
-0.000101639
-1.04459e-05
5.09575e-10
-1.66714e-05
4.50018e-10
-9.55151e-05
-0.000107343
2.06915e-05
-1.03739e-09
-0.000110598
1.42498e-05
-1.16369e-09
-0.000112486
9.41348e-06
-9.44369e-10
-0.000113551
6.07816e-06
-7.39066e-10
-0.000114151
3.91915e-06
-5.21033e-10
-0.000114501
2.60599e-06
-3.43041e-10
-0.000114725
1.87788e-06
-2.19494e-10
-0.000114893
1.55171e-06
-1.39624e-10
-0.000115046
1.50373e-06
-9.15295e-11
-0.00011521
1.64561e-06
-6.58621e-11
-0.000115398
1.90099e-06
-5.61841e-11
-0.000115617
2.18294e-06
-5.82796e-11
-0.000115857
2.37131e-06
-6.90386e-11
-0.000116081
2.28922e-06
-8.21809e-11
-0.000116207
1.68057e-06
-7.32205e-11
-0.000116069
1.93313e-07
-7.65497e-12
-0.000115375
-2.60756e-06
6.19944e-11
-0.000113645
-7.18988e-06
2.5597e-10
-0.000110195
-1.38969e-05
8.97905e-10
-2.26471e-05
1.28945e-09
-0.000104221
-0.000112411
2.49631e-05
-2.21141e-09
-0.00011436
1.62007e-05
-1.89049e-09
-0.000115081
1.0135e-05
-1.18739e-09
-0.000115246
6.24404e-06
-7.95624e-10
-0.000115198
3.87227e-06
-4.68576e-10
-0.000115088
2.49623e-06
-2.47625e-10
-0.00011497
1.75906e-06
-1.22921e-10
-0.000114854
1.43641e-06
-5.67238e-11
-0.000114741
1.39033e-06
-2.4395e-11
-0.000114626
1.53071e-06
-1.19855e-11
-0.00011451
1.78539e-06
-1.26362e-11
-0.000114402
2.07473e-06
-2.39821e-11
-0.000114317
2.28643e-06
-4.62604e-11
-0.000114275
2.24721e-06
-7.85737e-11
-0.000114283
1.68904e-06
-9.79142e-11
-0.000114299
2.08925e-07
-5.94183e-11
-0.000114153
-2.75344e-06
-3.25183e-11
-0.000113429
-7.91407e-06
1.40976e-10
-0.000111313
-1.60146e-05
1.54664e-09
-2.74277e-05
3.27779e-09
-0.000106536
-0.000109901
2.71405e-05
-5.87807e-09
-0.00010969
1.5993e-05
-3.88822e-09
-0.000108753
9.19968e-06
-1.80161e-09
-0.000107796
5.28807e-06
-9.39729e-10
-0.000107026
3.1028e-06
-3.99784e-10
-0.000106448
1.91896e-06
-1.24128e-10
-0.000106007
1.31727e-06
-1.56603e-11
-0.000105637
1.06663e-06
2.00029e-11
-0.000105287
1.04042e-06
2.44364e-11
-0.000104921
1.16481e-06
1.45891e-11
-0.000104522
1.3865e-06
-3.85428e-12
-0.000104097
1.64911e-06
-3.04129e-11
-0.000103681
1.87067e-06
-6.64793e-11
-0.000103349
1.91573e-06
-1.15337e-10
-0.000103215
1.55511e-06
-1.52324e-10
-0.000103408
4.02361e-07
-7.77004e-11
-0.000103992
-2.16961e-06
9.30607e-11
-0.00010478
-7.12664e-06
4.67534e-10
-0.000104971
-1.58278e-05
3.74226e-09
-2.9765e-05
9.00903e-09
-0.000102642
-9.84448e-05
2.57434e-05
-9.9813e-09
-9.52667e-05
1.28191e-05
-4.0642e-09
-9.24982e-05
6.43201e-06
-8.29514e-10
-9.05312e-05
3.32142e-06
-3.14957e-10
-8.92251e-05
1.79667e-06
4.02653e-11
-8.8358e-05
1.05167e-06
1.65235e-10
-8.77439e-05
7.0303e-07
1.56482e-10
-8.72487e-05
5.71236e-07
1.28816e-10
-8.67799e-05
5.71565e-07
1.06843e-10
-8.62767e-05
6.6151e-07
9.14886e-11
-8.5705e-05
8.14688e-07
7.89118e-11
-8.50609e-05
1.00501e-06
6.30091e-11
-8.43828e-05
1.19251e-06
3.43119e-11
-8.37712e-05
1.30419e-06
-3.34853e-11
-8.34163e-05
1.20033e-06
-1.32335e-10
-8.362e-05
6.06112e-07
-4.258e-11
-8.47599e-05
-1.02986e-06
1.25136e-10
-8.71518e-05
-4.73426e-06
-4.63702e-10
-9.04625e-05
-1.25204e-05
3.30635e-09
-2.80135e-05
1.4388e-08
-9.22285e-05
-7.51783e-05
1.81794e-05
-1.24668e-08
-6.88511e-05
6.48635e-06
5.52529e-09
-6.49545e-05
2.52926e-06
6.19304e-09
-6.27082e-05
1.07239e-06
2.64974e-09
-6.14128e-05
4.99973e-07
1.37302e-09
-6.06304e-05
2.68381e-07
8.34517e-10
-6.0105e-05
1.77116e-07
5.26015e-10
-5.96857e-05
1.51518e-07
3.9959e-10
-5.92784e-05
1.63892e-07
3.84622e-10
-5.88211e-05
2.03749e-07
4.33064e-10
-5.82735e-05
2.66564e-07
5.19654e-10
-5.76178e-05
3.48685e-07
6.22453e-10
-5.68694e-05
4.43432e-07
7.03172e-10
-5.61009e-05
5.35038e-07
6.63604e-10
-5.5486e-05
5.85024e-07
3.78317e-10
-5.53839e-05
5.04134e-07
-8.68713e-11
-5.63797e-05
-3.24371e-08
-1.66441e-09
-5.95184e-05
-1.58781e-06
-7.69874e-09
-6.58956e-05
-6.1328e-06
-1.04624e-08
-1.94204e-05
1.55348e-08
-7.45042e-05
-3.415e-05
-6.92233e-08
-2.76518e-05
-1.18101e-08
-2.51217e-05
-8.65199e-10
-2.40474e-05
-1.89755e-09
-2.35462e-05
-1.23408e-09
-2.32772e-05
-5.81491e-10
-2.30998e-05
-3.30298e-10
-2.2948e-05
-2.35058e-10
-2.27839e-05
-2.08879e-10
-2.25799e-05
-2.29874e-10
-2.23131e-05
-2.84296e-10
-2.19641e-05
-3.58675e-10
-2.15202e-05
-4.33793e-10
-2.09847e-05
-4.75779e-10
-2.03993e-05
-3.67948e-10
-1.98954e-05
2.06642e-10
-1.99286e-05
7.72492e-10
-2.15138e-05
-2.56428e-09
-2.76517e-05
5.08012e-09
8.76643e-08
-4.71597e-05
-1.98153e-05
1.43924e-06
-1.40222e-12
-2.08719e-05
1.05818e-06
-1.15613e-12
-2.16111e-05
7.40206e-07
-9.52361e-13
-2.21102e-05
4.99705e-07
-7.96102e-13
-2.24427e-05
3.32843e-07
-6.81741e-13
-2.26699e-05
2.27454e-07
-5.90357e-13
-2.28398e-05
1.7009e-07
-5.03033e-13
-2.29891e-05
1.49457e-07
-4.10951e-13
-2.3146e-05
1.57115e-07
-3.29273e-13
-2.33325e-05
1.86631e-07
-2.66988e-13
-2.35642e-05
2.31967e-07
-2.12779e-13
-2.38493e-05
2.85469e-07
-1.58441e-13
-2.41846e-05
3.35657e-07
-1.04426e-13
-2.45492e-05
3.651e-07
-5.54028e-14
-2.48976e-05
3.48924e-07
-1.72019e-14
-2.51521e-05
2.55046e-07
8.43522e-15
-2.52004e-05
4.85847e-08
3.45809e-14
-2.48976e-05
-3.02822e-07
7.50176e-14
-2.40906e-05
-8.07712e-07
1.22662e-13
-1.44046e-06
1.5387e-13
-2.26517e-05
-5.17232e-05
4.9862e-06
-1.53619e-12
-5.43496e-05
3.6829e-06
-1.26513e-12
-5.62078e-05
2.59715e-06
-1.04567e-12
-5.74826e-05
1.77354e-06
-8.79742e-13
-5.83479e-05
1.19744e-06
-7.55047e-13
-5.89487e-05
8.27644e-07
-6.49469e-13
-5.93978e-05
6.18744e-07
-5.50791e-13
-5.97806e-05
5.31863e-07
-4.4151e-13
-6.01606e-05
5.36749e-07
-3.33313e-13
-6.05835e-05
6.0914e-07
-2.47383e-13
-6.10777e-05
7.25762e-07
-1.79794e-13
-6.16509e-05
8.5821e-07
-1.20989e-13
-6.22822e-05
9.66457e-07
-6.98063e-14
-6.29105e-05
9.92961e-07
-2.94656e-14
-6.3421e-05
8.59148e-07
-2.39585e-15
-6.36335e-05
4.67484e-07
1.47493e-14
-6.32983e-05
-2.86114e-07
3.25414e-14
-6.21139e-05
-1.48601e-06
6.35173e-14
-5.9767e-05
-3.15277e-06
1.01797e-13
-5.19257e-06
1.25776e-13
-5.60122e-05
-7.68201e-05
9.88399e-06
-1.60852e-12
-8.0363e-05
7.22546e-06
-1.34069e-12
-8.28175e-05
5.05119e-06
-1.12181e-12
-8.44721e-05
3.42765e-06
-9.54524e-13
-8.55797e-05
2.30469e-06
-8.21307e-13
-8.63395e-05
1.5871e-06
-6.90994e-13
-8.68993e-05
1.17833e-06
-5.68039e-13
-8.73663e-05
9.98712e-07
-4.31134e-13
-8.7817e-05
9.87313e-07
-2.92132e-13
-8.83037e-05
1.0957e-06
-1.90084e-13
-8.88561e-05
1.27806e-06
-1.3108e-13
-8.94777e-05
1.47978e-06
-9.69053e-14
-9.0137e-05
1.62564e-06
-7.10741e-14
-9.0753e-05
1.609e-06
-4.74791e-14
-9.1179e-05
1.28512e-06
-2.92273e-14
-9.11851e-05
4.73761e-07
-1.90753e-14
-9.04511e-05
-1.01988e-06
-1.09058e-14
-8.85791e-05
-3.3576e-06
4.10391e-15
-8.51432e-05
-6.58816e-06
3.19701e-14
-1.05432e-05
6.48471e-14
-7.97921e-05
-9.53763e-05
1.53756e-05
-1.63571e-12
-9.91412e-05
1.09897e-05
-1.37869e-12
-0.000101612
7.52115e-06
-1.15945e-12
-0.000103195
5.01011e-06
-9.95859e-13
-0.000104208
3.31707e-06
-8.68642e-13
-0.000104875
2.25452e-06
-7.14431e-13
-0.000105351
1.65342e-06
-5.66386e-13
-0.000105736
1.38366e-06
-4.10256e-13
-0.000106099
1.35059e-06
-2.47268e-13
-0.000106485
1.48199e-06
-1.2676e-13
-0.000106919
1.71191e-06
-6.74438e-14
-0.000107403
1.96344e-06
-4.6161e-14
-0.000107909
2.13109e-06
-3.64795e-14
-0.000108364
2.06403e-06
-3.27416e-14
-0.000108632
1.55321e-06
-4.51357e-14
-0.000108487
3.29337e-07
-7.73842e-14
-0.000107593
-1.91422e-06
-1.21453e-13
-0.000105491
-5.45934e-06
-1.4417e-13
-0.000101637
-1.04414e-05
-1.31408e-13
-1.66652e-05
-8.95895e-14
-9.55145e-05
-0.000107342
2.06829e-05
-1.6394e-12
-0.000110595
1.4241e-05
-1.3895e-12
-0.000112483
9.40805e-06
-1.14729e-12
-0.000113548
6.07495e-06
-9.73457e-13
-0.000114149
3.91746e-06
-8.72512e-13
-0.0001145
2.60523e-06
-7.17605e-13
-0.000114725
1.87761e-06
-5.63814e-13
-0.000114893
1.55166e-06
-4.18271e-13
-0.000115046
1.50374e-06
-2.57154e-13
-0.00011521
1.64556e-06
-1.18475e-13
-0.000115399
1.90079e-06
-3.65476e-14
-0.000115618
2.18248e-06
-4.92154e-15
-0.000115857
2.37047e-06
-5.81298e-15
-0.000116081
2.28788e-06
-3.64886e-14
-0.000116207
1.67873e-06
-9.84006e-14
-0.000116069
1.91637e-07
-1.9333e-13
-0.000115374
-2.60939e-06
-2.72778e-13
-0.000113643
-7.18972e-06
-3.09706e-13
-0.000110193
-1.38902e-05
-2.85217e-13
-2.2636e-05
-2.12638e-13
-0.000104221
-0.000112409
2.49428e-05
-1.65861e-12
-0.000114355
1.61853e-05
-1.44887e-12
-0.000115076
1.01281e-05
-1.16584e-12
-0.000115243
6.24076e-06
-9.51283e-13
-0.000115197
3.87092e-06
-8.76754e-13
-0.000115087
2.49584e-06
-7.34461e-13
-0.000114969
1.75905e-06
-5.73925e-13
-0.000114854
1.43652e-06
-4.40905e-13
-0.000114741
1.39043e-06
-2.95018e-13
-0.000114626
1.53073e-06
-1.47604e-13
-0.00011451
1.78526e-06
-4.36373e-14
-0.000114402
2.07434e-06
-5.55803e-15
-0.000114317
2.28564e-06
-3.25847e-14
-0.000114275
2.24584e-06
-1.10731e-13
-0.000114284
1.68697e-06
-2.37237e-13
-0.000114299
2.06874e-07
-3.44921e-13
-0.000114152
-2.75648e-06
-4.02674e-13
-0.000113426
-7.91544e-06
-3.86005e-13
-0.00011131
-1.60045e-05
-2.93081e-13
-2.74046e-05
-1.59549e-13
-0.000106538
-0.000109894
2.70926e-05
-1.63918e-12
-0.00010968
1.59671e-05
-1.53238e-12
-0.000108746
9.19271e-06
-1.20876e-12
-0.000107792
5.28614e-06
-9.35157e-13
-0.000107024
3.10253e-06
-8.90253e-13
-0.000106448
1.91924e-06
-7.92863e-13
-0.000106006
1.3176e-06
-6.29464e-13
-0.000105637
1.06688e-06
-4.8006e-13
-0.000105287
1.04056e-06
-3.27923e-13
-0.000104921
1.16484e-06
-1.73428e-13
-0.000104522
1.38637e-06
-6.4722e-14
-0.000104097
1.64875e-06
-4.36787e-14
-0.000103681
1.86992e-06
-1.12441e-13
-0.00010335
1.91437e-06
-2.53671e-13
-0.000103216
1.55289e-06
-3.94409e-13
-0.000103408
3.99683e-07
-4.67226e-13
-0.000103991
-2.17375e-06
-4.43743e-13
-0.000104776
-7.12984e-06
-3.55089e-13
-0.000104967
-1.58104e-05
-1.57027e-13
-2.97101e-05
9.80828e-14
-0.000102652
-9.84304e-05
2.56522e-05
-1.34631e-12
-9.52564e-05
1.2789e-05
-1.33457e-12
-9.24949e-05
6.43041e-06
-1.01829e-12
-9.05312e-05
3.32211e-06
-6.83742e-13
-8.92259e-05
1.7973e-06
-7.03917e-13
-8.83587e-05
1.05222e-06
-7.33603e-13
-8.77443e-05
7.03381e-07
-6.41297e-13
-8.72488e-05
5.71428e-07
-4.9706e-13
-8.67797e-05
5.71658e-07
-3.3214e-13
-8.62763e-05
6.61529e-07
-1.73744e-13
-8.57045e-05
8.14627e-07
-7.88759e-14
-8.50605e-05
1.00483e-06
-9.06902e-14
-8.43827e-05
1.19213e-06
-1.98764e-13
-8.37718e-05
1.30342e-06
-3.68627e-13
-8.34179e-05
1.19885e-06
-4.70795e-13
-8.36221e-05
6.03891e-07
-4.65099e-13
-8.47637e-05
-1.03204e-06
-3.87294e-13
-8.71547e-05
-4.73933e-06
-2.33027e-13
-9.04604e-05
-1.25014e-05
-1.02759e-13
-2.79117e-05
1.7814e-13
-9.22444e-05
-7.51597e-05
1.80988e-05
-9.83157e-13
-6.88588e-05
6.49357e-06
-1.12574e-12
-6.49634e-05
2.54125e-06
-9.08028e-13
-6.27147e-05
1.07605e-06
-5.15701e-13
-6.14167e-05
5.00693e-07
-5.07055e-13
-6.06323e-05
2.68626e-07
-5.99226e-13
-6.01057e-05
1.77319e-07
-5.80178e-13
-5.96857e-05
1.51771e-07
-4.58629e-13
-5.92779e-05
1.64252e-07
-2.92102e-13
-5.88202e-05
2.04269e-07
-1.43316e-13
-5.82723e-05
2.6731e-07
-7.88459e-14
-5.76166e-05
3.49735e-07
-1.29834e-13
-5.68687e-05
4.44879e-07
-2.69123e-13
-5.61016e-05
5.37001e-07
-4.01772e-13
-5.54898e-05
5.87458e-07
-4.49104e-13
-5.53904e-05
5.04383e-07
-4.05685e-13
-5.63949e-05
-2.91745e-08
-3.1863e-13
-5.95451e-05
-1.59685e-06
-3.81976e-13
-6.59118e-05
-6.14518e-06
-4.09327e-13
-1.93563e-05
9.78214e-14
-7.44517e-05
-3.41399e-05
-1.02423e-12
-2.76582e-05
-1.02875e-12
-2.51178e-05
-9.65388e-13
-2.40436e-05
-6.25655e-13
-2.35442e-05
-5.11495e-13
-2.32761e-05
-5.25968e-13
-2.30991e-05
-4.97704e-13
-2.29476e-05
-3.89788e-13
-2.27835e-05
-2.44983e-13
-2.25795e-05
-1.31414e-13
-2.23125e-05
-1.08339e-13
-2.19631e-05
-1.82379e-13
-2.15187e-05
-3.14473e-13
-2.09821e-05
-3.99699e-13
-2.0395e-05
-3.97211e-13
-1.98904e-05
-3.04395e-13
-1.99188e-05
-3.16948e-13
-2.15183e-05
-5.71376e-13
-2.76584e-05
-1.78836e-13
4.40796e-13
-4.69269e-05
-1.98153e-05
1.43924e-06
-2.17768e-09
-2.08719e-05
1.05818e-06
-1.52565e-09
-2.16111e-05
7.40206e-07
-1.01198e-09
-2.21102e-05
4.99705e-07
-6.40678e-10
-2.24426e-05
3.32843e-07
-3.94832e-10
-2.26699e-05
2.27454e-07
-2.46722e-10
-2.28398e-05
1.7009e-07
-1.69733e-10
-2.29891e-05
1.49457e-07
-1.43698e-10
-2.3146e-05
1.57115e-07
-1.54941e-10
-2.33325e-05
1.86631e-07
-1.94734e-10
-2.35642e-05
2.31967e-07
-2.56902e-10
-2.38493e-05
2.85469e-07
-3.34949e-10
-2.41846e-05
3.35657e-07
-4.19046e-10
-2.45492e-05
3.651e-07
-4.92918e-10
-2.48976e-05
3.48924e-07
-5.29588e-10
-2.51521e-05
2.55046e-07
-4.8546e-10
-2.52004e-05
4.85847e-08
-3.05945e-10
-2.48976e-05
-3.02822e-07
4.29281e-11
-2.40906e-05
-8.07712e-07
6.56679e-10
-1.44046e-06
1.5809e-09
-2.26517e-05
-5.17232e-05
4.9862e-06
1.94188e-09
-5.43496e-05
3.6829e-06
1.62187e-09
-5.62078e-05
2.59715e-06
1.28393e-09
-5.74826e-05