/*--------------------------------*- C++ -*----------------------------------*\
| =========                 |                                                 |
| \\      /  F ield         | OpenFOAM: The Open Source CFD Toolbox           |
|  \\    /   O peration     | Version:  2.4.0                                 |
|   \\  /    A nd           | Web:      www.OpenFOAM.org                      |
|    \\/     M anipulation  |                                                 |
\*---------------------------------------------------------------------------*/
FoamFile
{
    version     2.0;
    format      ascii;
    class       volScalarField;
    location    "0.0024";
    object      T;
}
// * * * * * * * * * * * * * * * * * * * * * * * * * * * * * * * * * * * * * //

dimensions      [0 0 0 1 0 0 0];

internalField   nonuniform List<scalar> 
4800
(
100.187
100.56
100.934
101.309
101.683
102.055
102.42
102.774
103.11
103.421
100.56
101.681
102.805
103.931
105.058
106.177
107.278
108.346
109.36
110.301
100.934
102.805
104.682
106.566
108.452
110.332
112.187
113.989
115.703
117.292
101.309
103.931
106.565
109.215
111.877
114.538
117.175
119.747
122.201
124.475
101.683
105.057
108.452
111.876
115.331
118.803
122.264
125.661
128.918
131.937
102.055
106.176
110.331
114.537
118.802
123.12
127.46
131.76
135.917
139.781
102.42
107.277
112.185
117.173
122.262
127.459
132.742
138.052
143.256
148.135
102.773
108.344
113.986
119.744
125.658
131.757
138.05
144.498
150.97
157.164
103.109
109.358
115.699
122.196
128.913
135.912
143.253
150.968
159.008
167.068
103.42
110.297
117.287
124.468
131.93
139.774
148.129
157.159
167.066
177.95
100.187
100.56
100.934
101.309
101.683
102.055
102.42
102.774
103.11
103.421
100.56
101.681
102.805
103.931
105.058
106.177
107.278
108.346
109.36
110.301
100.934
102.805
104.682
106.566
108.452
110.332
112.187
113.989
115.703
117.292
101.309
103.931
106.565
109.215
111.877
114.538
117.175
119.747
122.201
124.475
101.683
105.057
108.452
111.876
115.331
118.803
122.264
125.661
128.918
131.937
102.055
106.176
110.331
114.537
118.803
123.12
127.46
131.76
135.917
139.781
102.42
107.277
112.185
117.173
122.262
127.459
132.743
138.052
143.256
148.135
102.773
108.344
113.986
119.744
125.658
131.758
138.05
144.498
150.97
157.164
103.109
109.358
115.7
122.197
128.913
135.913
143.253
150.968
159.008
167.069
103.42
110.297
117.287
124.469
131.93
139.774
148.129
157.16
167.067
177.951
100.187
100.56
100.934
101.309
101.683
102.055
102.42
102.774
103.11
103.421
100.56
101.681
102.805
103.931
105.058
106.177
107.278
108.346
109.36
110.301
100.934
102.805
104.682
106.566
108.452
110.332
112.187
113.989
115.703
117.292
101.309
103.931
106.565
109.215
111.877
114.538
117.175
119.747
122.201
124.475
101.683
105.057
108.452
111.876
115.331
118.803
122.264
125.661
128.918
131.937
102.055
106.176
110.331
114.537
118.803
123.12
127.46
131.76
135.917
139.781
102.42
107.277
112.185
117.173
122.262
127.459
132.743
138.052
143.256
148.135
102.773
108.344
113.986
119.744
125.658
131.758
138.05
144.498
150.97
157.164
103.109
109.358
115.7
122.197
128.913
135.913
143.253
150.968
159.008
167.069
103.42
110.297
117.287
124.469
131.93
139.774
148.129
157.16
167.067
177.951
100.187
100.56
100.934
101.309
101.683
102.055
102.42
102.774
103.11
103.421
100.56
101.681
102.805
103.931
105.058
106.177
107.278
108.346
109.36
110.301
100.934
102.805
104.682
106.566
108.452
110.332
112.187
113.989
115.703
117.292
101.309
103.931
106.565
109.215
111.877
114.538
117.175
119.747
122.201
124.475
101.683
105.057
108.452
111.876
115.331
118.803
122.264
125.661
128.918
131.937
102.055
106.176
110.331
114.537
118.802
123.12
127.46
131.76
135.917
139.781
102.42
107.277
112.185
117.173
122.262
127.459
132.742
138.052
143.256
148.135
102.773
108.344
113.986
119.744
125.658
131.757
138.05
144.498
150.97
157.164
103.109
109.358
115.699
122.196
128.913
135.912
143.252
150.968
159.008
167.068
103.42
110.297
117.287
124.468
131.93
139.774
148.129
157.159
167.066
177.95
103.702
103.947
104.156
104.327
104.464
104.57
104.649
104.704
104.74
104.757
104.757
104.74
104.704
104.649
104.57
104.464
104.327
104.156
103.947
103.702
111.147
111.886
112.51
113.021
113.428
113.742
113.975
114.138
114.242
114.292
114.292
114.242
114.138
113.974
113.741
113.427
113.021
112.509
111.885
111.147
118.718
119.956
120.994
121.837
122.501
123.01
123.385
123.647
123.812
123.892
123.892
123.812
123.646
123.384
123.009
122.5
121.835
120.992
119.954
118.717
126.507
128.253
129.699
130.856
131.756
132.435
132.931
133.275
133.491
133.595
133.594
133.49
133.274
132.93
132.434
131.754
130.854
129.697
128.251
126.505
134.618
136.886
138.726
140.166
141.262
142.075
142.66
143.061
143.31
143.43
143.429
143.309
143.059
142.658
142.073
141.26
140.164
138.723
136.884
134.616
143.182
145.989
148.19
149.856
151.087
151.977
152.605
153.029
153.291
153.416
153.416
153.29
153.028
152.603
151.975
151.085
149.854
148.188
145.987
143.18
152.384
155.739
158.229
160.02
161.288
162.175
162.787
163.193
163.441
163.559
163.558
163.441
163.192
162.785
162.174
161.285
160.017
158.227
155.736
152.382
162.522
166.392
169.003
170.74
171.9
172.681
173.204
173.545
173.751
173.847
173.847
173.75
173.544
173.202
172.679
171.899
170.738
169.001
166.39
162.521
174.186
178.335
180.681
182.064
182.919
183.468
183.826
184.055
184.192
184.256
184.256
184.192
184.055
183.825
183.468
182.919
182.063
180.68
178.334
174.186
188.846
192.103
193.342
193.932
194.262
194.463
194.591
194.672
194.721
194.743
194.743
194.72
194.672
194.591
194.463
194.262
193.932
193.342
192.103
188.845
103.702
103.947
104.156
104.327
104.464
104.57
104.649
104.704
104.739
104.756
104.756
104.739
104.704
104.648
104.569
104.463
104.326
104.155
103.947
103.701
111.147
111.886
112.51
113.021
113.428
113.741
113.974
114.138
114.241
114.292
114.291
114.241
114.137
113.973
113.74
113.426
113.02
112.508
111.884
111.145
118.718
119.956
120.993
121.836
122.501
123.009
123.384
123.646
123.812
123.891
123.891
123.811
123.645
123.383
123.008
122.499
121.834
120.991
119.953
118.716
126.507
128.253
129.698
130.856
131.756
132.435
132.931
133.275
133.49
133.594
133.594
133.489
133.273
132.929
132.433
131.753
130.853
129.695
128.25
126.504
134.617
136.886
138.725
140.166
141.262
142.075
142.659
143.06
143.309
143.429
143.428
143.308
143.058
142.657
142.072
141.259
140.162
138.722
136.883
134.614
143.182
145.989
148.19
149.856
151.087
151.977
152.604
153.029
153.29
153.415
153.415
153.289
153.027
152.602
151.974
151.083
149.853
148.186
145.985
143.178
152.384
155.739
158.229
160.019
161.287
162.175
162.786
163.192
163.44
163.558
163.557
163.439
163.191
162.784
162.172
161.284
160.016
158.225
155.735
152.381
162.522
166.391
169.003
170.739
171.9
172.68
173.203
173.544
173.75
173.846
173.846
173.749
173.543
173.201
172.678
171.897
170.737
169
166.388
162.519
174.186
178.335
180.681
182.063
182.919
183.468
183.825
184.054
184.191
184.255
184.255
184.191
184.053
183.824
183.466
182.917
182.061
180.679
178.333
174.184
188.846
192.103
193.342
193.932
194.262
194.463
194.591
194.672
194.72
194.742
194.742
194.72
194.672
194.59
194.462
194.261
193.931
193.341
192.102
188.844
103.702
103.947
104.156
104.327
104.464
104.57
104.649
104.704
104.739
104.756
104.756
104.739
104.704
104.648
104.569
104.463
104.326
104.155
103.947
103.701
111.147
111.886
112.51
113.021
113.428
113.741
113.974
114.138
114.241
114.292
114.291
114.241
114.137
113.973
113.74
113.426
113.02
112.508
111.884
111.145
118.718
119.956
120.993
121.836
122.501
123.009
123.384
123.646
123.812
123.891
123.891
123.811
123.645
123.383
123.008
122.499
121.834
120.991
119.953
118.716
126.507
128.253
129.698
130.856
131.756
132.435
132.931
133.275
133.49
133.594
133.594
133.489
133.273
132.929
132.433
131.753
130.853
129.695
128.25
126.504
134.617
136.886
138.725
140.166
141.262
142.075
142.659
143.06
143.309
143.429
143.428
143.308
143.058
142.657
142.072
141.259
140.162
138.722
136.883
134.614
143.182
145.989
148.19
149.856
151.087
151.977
152.604
153.029
153.29
153.415
153.415
153.289
153.027
152.602
151.974
151.083
149.853
148.186
145.985
143.178
152.384
155.739
158.229
160.019
161.287
162.175
162.786
163.192
163.44
163.558
163.557
163.439
163.191
162.784
162.172
161.284
160.016
158.225
155.735
152.381
162.522
166.391
169.003
170.739
171.9
172.68
173.203
173.544
173.75
173.846
173.846
173.749
173.543
173.201
172.678
171.897
170.737
169
166.388
162.519
174.186
178.335
180.681
182.063
182.919
183.468
183.825
184.054
184.191
184.255
184.255
184.191
184.053
183.824
183.466
182.917
182.061
180.679
178.333
174.184
188.846
192.103
193.342
193.932
194.262
194.463
194.591
194.672
194.72
194.742
194.742
194.72
194.672
194.59
194.462
194.261
193.931
193.341
192.102
188.844
103.702
103.947
104.156
104.327
104.464
104.57
104.649
104.704
104.74
104.757
104.757
104.74
104.704
104.649
104.57
104.464
104.327
104.156
103.947
103.702
111.147
111.886
112.51
113.021
113.428
113.742
113.975
114.138
114.242
114.292
114.292
114.242
114.138
113.974
113.741
113.427
113.021
112.509
111.885
111.147
118.718
119.956
120.994
121.837
122.501
123.01
123.385
123.647
123.812
123.892
123.892
123.812
123.646
123.384
123.009
122.5
121.835
120.992
119.954
118.717
126.507
128.253
129.699
130.856
131.756
132.435
132.931
133.275
133.491
133.595
133.594
133.49
133.274
132.93
132.434
131.754
130.854
129.697
128.251
126.505
134.618
136.886
138.726
140.166
141.262
142.075
142.66
143.061
143.31
143.43
143.429
143.309
143.059
142.658
142.073
141.26
140.164
138.723
136.884
134.616
143.182
145.989
148.19
149.856
151.087
151.977
152.605
153.029
153.291
153.416
153.416
153.29
153.028
152.603
151.975
151.085
149.854
148.188
145.987
143.18
152.384
155.739
158.229
160.02
161.288
162.175
162.787
163.193
163.441
163.559
163.558
163.441
163.192
162.785
162.174
161.285
160.017
158.227
155.736
152.382
162.522
166.392
169.003
170.74
171.9
172.681
173.204
173.545
173.751
173.847
173.847
173.75
173.544
173.202
172.679
171.899
170.738
169.001
166.39
162.521
174.186
178.335
180.681
182.064
182.919
183.468
183.826
184.055
184.192
184.256
184.256
184.192
184.055
183.825
183.468
182.919
182.063
180.68
178.334
174.186
188.846
192.103
193.342
193.932
194.262
194.463
194.591
194.672
194.721
194.743
194.743
194.72
194.672
194.591
194.463
194.262
193.932
193.342
192.103
188.845
103.421
103.11
102.774
102.421
102.055
101.684
101.309
100.935
100.56
100.187
110.3
109.36
108.346
107.278
106.177
105.058
103.932
102.806
101.682
100.56
117.291
115.703
113.988
112.187
110.333
108.453
106.566
104.682
102.806
100.935
124.474
122.201
119.747
117.175
114.539
111.877
109.216
106.566
103.932
101.309
131.936
128.917
125.661
122.264
118.804
115.332
111.877
108.453
105.058
101.684
139.78
135.916
131.76
127.46
123.121
118.804
114.539
110.332
106.177
102.055
148.134
143.256
138.052
132.743
127.46
122.264
117.175
112.186
107.278
102.42
157.163
150.97
144.499
138.052
131.759
125.66
119.746
113.988
108.345
102.774
167.069
159.009
150.97
143.255
135.915
128.916
122.199
115.701
109.359
103.11
177.951
167.068
157.162
148.132
139.777
131.933
124.471
117.289
110.299
103.421
103.421
103.109
102.773
102.42
102.055
101.683
101.309
100.934
100.56
100.186
110.299
109.359
108.344
107.277
106.176
105.057
103.931
102.804
101.681
100.56
117.29
115.701
113.987
112.185
110.331
108.451
106.565
104.681
102.804
100.934
124.472
122.199
119.745
117.173
114.537
111.876
109.214
106.565
103.931
101.309
131.934
128.916
125.659
122.263
118.802
115.33
111.876
108.451
105.057
101.683
139.778
135.915
131.758
127.458
123.119
118.802
114.537
110.331
106.176
102.054
148.132
143.254
138.05
132.742
127.458
122.262
117.173
112.185
107.277
102.42
157.161
150.968
144.497
138.05
131.758
125.658
119.744
113.986
108.344
102.773
167.067
159.007
150.968
143.253
135.913
128.914
122.197
115.7
109.358
103.109
177.95
167.066
157.16
148.13
139.775
131.931
124.469
117.287
110.297
103.42
103.421
103.109
102.773
102.42
102.055
101.683
101.309
100.934
100.56
100.186
110.299
109.359
108.344
107.277
106.176
105.057
103.931
102.804
101.681
100.56
117.29
115.701
113.987
112.185
110.331
108.451
106.565
104.681
102.804
100.934
124.472
122.199
119.745
117.173
114.537
111.876
109.214
106.565
103.931
101.309
131.934
128.916
125.659
122.263
118.802
115.33
111.876
108.451
105.057
101.683
139.778
135.915
131.758
127.458
123.119
118.802
114.537
110.331
106.176
102.054
148.132
143.254
138.05
132.742
127.458
122.262
117.173
112.185
107.277
102.42
157.161
150.968
144.497
138.05
131.758
125.658
119.744
113.986
108.344
102.773
167.067
159.007
150.968
143.253
135.913
128.914
122.197
115.7
109.358
103.109
177.95
167.066
157.16
148.13
139.775
131.931
124.469
117.287
110.297
103.42
103.421
103.11
102.774
102.421
102.055
101.684
101.309
100.935
100.56
100.187
110.3
109.36
108.346
107.278
106.177
105.058
103.932
102.806
101.682
100.56
117.291
115.703
113.988
112.187
110.333
108.453
106.566
104.682
102.806
100.935
124.474
122.201
119.747
117.175
114.539
111.877
109.216
106.566
103.932
101.309
131.936
128.917
125.661
122.264
118.804
115.332
111.877
108.453
105.058
101.684
139.78
135.916
131.76
127.46
123.121
118.804
114.539
110.332
106.177
102.055
148.134
143.256
138.052
132.743
127.46
122.264
117.175
112.186
107.278
102.42
157.163
150.97
144.499
138.052
131.759
125.66
119.746
113.988
108.345
102.774
167.069
159.009
150.97
143.255
135.915
128.916
122.199
115.701
109.359
103.11
177.951
167.068
157.162
148.132
139.777
131.933
124.471
117.289
110.299
103.421
188.846
174.185
162.519
152.379
143.176
134.612
126.501
118.714
111.145
103.701
192.102
178.332
166.386
155.731
145.981
136.878
128.245
119.95
111.882
103.946
193.341
180.676
168.995
158.219
148.179
138.714
129.688
120.985
112.505
104.154
193.93
182.057
170.729
160.006
149.841
140.151
130.842
121.826
113.014
104.325
194.259
182.911
171.887
161.27
151.067
141.242
131.738
122.487
113.419
104.461
194.46
183.457
172.663
162.152
151.952
142.05
132.412
122.992
113.73
104.566
194.587
183.812
173.181
162.758
152.573
142.628
132.902
123.362
113.96
104.644
194.667
184.037
173.517
163.158
152.99
143.021
133.239
123.619
114.12
104.698
194.714
184.171
173.717
163.398
153.243
143.262
133.447
123.778
114.22
104.732
194.735
184.231
173.807
163.508
153.359
143.373
133.543
123.851
114.266
104.748
194.733
184.227
173.802
163.5
153.351
143.364
133.535
123.845
114.262
104.747
194.71
184.16
173.701
163.377
153.219
143.237
133.425
123.76
114.208
104.728
194.662
184.024
173.495
163.128
152.955
142.985
133.206
123.591
114.103
104.692
194.583
183.8
173.161
162.729
152.538
142.589
132.866
123.331
113.94
104.637
194.461
183.458
172.659
162.141
151.931
142.023
132.384
122.967
113.713
104.56
194.272
182.941
171.923
161.302
151.088
141.251
131.737
122.482
113.414
104.459
193.967
182.15
170.848
160.125
149.943
140.229
130.897
121.86
113.033
104.331
193.429
180.889
169.265
158.491
148.422
138.913
129.838
121.088
112.564
104.174
192.307
178.776
166.919
156.259
146.452
137.268
128.545
120.16
112.006
103.987
189.365
175.071
163.494
153.309
143.994
135.288
127.025
119.085
111.365
103.774
188.844
174.182
162.517
152.377
143.174
134.609
126.499
118.712
111.143
103.7
192.101
178.329
166.384
155.729
145.978
136.876
128.243
119.948
111.88
103.945
193.339
180.674
168.993
158.216
148.176
138.712
129.686
120.983
112.503
104.153
193.929
182.055
170.727
160.003
149.839
140.148
130.84
121.824
113.013
104.324
194.257
182.908
171.884
161.267
151.064
141.24
131.736
122.485
113.417
104.46
194.458
183.454
172.66
162.15
151.949
142.047
132.41
122.989
113.728
104.565
194.585
183.809
173.178
162.755
152.57
142.625
132.9
123.36
113.958
104.643
194.665
184.034
173.514
163.155
152.987
143.018
133.237
123.616
114.118
104.697
194.711
184.167
173.714
163.395
153.24
143.259
133.445
123.776
114.218
104.731
194.733
184.227
173.804
163.504
153.356
143.37
133.541
123.849
114.264
104.747
194.731
184.224
173.798
163.497
153.348
143.361
133.533
123.842
114.26
104.745
194.708
184.157
173.697
163.374
153.216
143.234
133.422
123.757
114.206
104.727
194.66
184.02
173.491
163.125
152.952
142.982
133.203
123.589
114.1
104.691
194.581
183.796
173.157
162.726
152.534
142.586
132.863
123.329
113.938
104.636
194.458
183.454
172.655
162.137
151.928
142.02
132.381
122.964
113.711
104.559
194.269
182.938
171.919
161.298
151.084
141.248
131.734
122.479
113.411
104.457
193.965
182.146
170.844
160.121
149.94
140.226
130.894
121.857
113.03
104.329
193.426
180.885
169.261
158.487
148.418
138.909
129.835
121.085
112.562
104.172
192.305
178.772
166.915
156.256
146.448
137.264
128.542
120.157
112.004
103.986
189.362
175.068
163.49
153.305
143.991
135.285
127.022
119.082
111.363
103.773
188.844
174.182
162.517
152.377
143.174
134.609
126.499
118.712
111.143
103.7
192.101
178.329
166.384
155.729
145.978
136.876
128.243
119.948
111.88
103.945
193.339
180.674
168.993
158.216
148.176
138.712
129.686
120.983
112.503
104.153
193.929
182.055
170.727
160.003
149.839
140.148
130.84
121.824
113.013
104.324
194.257
182.908
171.884
161.267
151.064
141.24
131.736
122.485
113.417
104.46
194.458
183.454
172.66
162.15
151.949
142.047
132.41
122.989
113.728
104.565
194.585
183.809
173.178
162.755
152.57
142.625
132.9
123.36
113.958
104.643
194.665
184.034
173.514
163.155
152.987
143.018
133.237
123.616
114.118
104.697
194.711
184.167
173.714
163.395
153.24
143.259
133.445
123.776
114.218
104.731
194.733
184.227
173.804
163.504
153.356
143.37
133.541
123.849
114.264
104.747
194.731
184.224
173.798
163.497
153.348
143.361
133.533
123.842
114.26
104.745
194.708
184.157
173.697
163.374
153.216
143.234
133.422
123.757
114.206
104.727
194.66
184.02
173.491
163.125
152.952
142.982
133.203
123.589
114.1
104.691
194.581
183.796
173.157
162.726
152.534
142.586
132.863
123.329
113.938
104.636
194.458
183.454
172.655
162.137
151.928
142.02
132.381
122.964
113.711
104.559
194.269
182.938
171.919
161.298
151.084
141.248
131.734
122.479
113.411
104.457
193.965
182.146
170.844
160.121
149.94
140.226
130.894
121.857
113.03
104.329
193.426
180.885
169.261
158.487
148.418
138.909
129.835
121.085
112.562
104.172
192.305
178.772
166.915
156.256
146.448
137.264
128.542
120.157
112.004
103.986
189.362
175.068
163.49
153.305
143.991
135.285
127.022
119.082
111.363
103.773
188.846
174.185
162.519
152.379
143.176
134.612
126.501
118.714
111.145
103.701
192.102
178.332
166.386
155.731
145.981
136.878
128.245
119.95
111.882
103.946
193.341
180.676
168.995
158.219
148.179
138.714
129.688
120.985
112.505
104.154
193.93
182.057
170.729
160.006
149.841
140.151
130.842
121.826
113.014
104.325
194.259
182.911
171.887
161.27
151.067
141.242
131.738
122.487
113.419
104.461
194.46
183.457
172.663
162.152
151.952
142.05
132.412
122.992
113.73
104.566
194.587
183.812
173.181
162.758
152.573
142.628
132.902
123.362
113.96
104.644
194.667
184.037
173.517
163.158
152.99
143.021
133.239
123.619
114.12
104.698
194.714
184.171
173.717
163.398
153.243
143.262
133.447
123.778
114.22
104.732
194.735
184.231
173.807
163.508
153.359
143.373
133.543
123.851
114.266
104.748
194.733
184.227
173.802
163.5
153.351
143.364
133.535
123.845
114.262
104.747
194.71
184.16
173.701
163.377
153.219
143.237
133.425
123.76
114.208
104.728
194.662
184.024
173.495
163.128
152.955
142.985
133.206
123.591
114.103
104.692
194.583
183.8
173.161
162.729
152.538
142.589
132.866
123.331
113.94
104.637
194.461
183.458
172.659
162.141
151.931
142.023
132.384
122.967
113.713
104.56
194.272
182.941
171.923
161.302
151.088
141.251
131.737
122.482
113.414
104.459
193.967
182.15
170.848
160.125
149.943
140.229
130.897
121.86
113.033
104.331
193.429
180.889
169.265
158.491
148.422
138.913
129.838
121.088
112.564
104.174
192.307
178.776
166.919
156.259
146.452
137.268
128.545
120.16
112.006
103.987
189.365
175.071
163.494
153.309
143.994
135.288
127.025
119.085
111.365
103.774
179.503
168.774
158.832
149.656
141.096
133.018
125.312
117.886
110.655
103.539
170.062
161.876
153.613
145.601
137.921
130.559
123.473
116.607
109.901
103.29
161.893
155.32
148.41
141.479
134.671
128.041
121.593
115.302
109.132
103.036
154.945
149.44
143.564
137.548
131.533
125.593
119.758
114.027
108.38
102.787
149.098
144.345
139.254
133.983
128.649
123.326
118.051
112.837
107.678
102.555
144.274
140.073
135.577
130.898
126.126
121.326
116.537
111.778
107.052
102.348
140.432
136.638
132.589
128.365
124.036
119.659
115.27
110.889
106.525
102.174
137.556
134.053
130.324
126.431
122.432
118.374
114.289
110.2
106.115
102.038
135.64
132.325
128.803
125.128
121.347
117.501
113.622
109.73
105.835
101.946
134.682
131.459
128.04
124.472
120.799
117.06
113.284
109.492
105.694
101.903
179.5
168.77
158.828
149.653
141.093
133.015
125.309
117.883
110.653
103.538
170.059
161.873
153.609
145.598
137.917
130.556
123.47
116.604
109.898
103.288
161.89
155.317
148.407
141.476
134.668
128.038
121.589
115.299
109.129
103.034
154.943
149.437
143.561
137.545
131.53
125.59
119.755
114.024
108.377
102.786
149.096
144.343
139.251
133.98
128.646
123.322
118.047
112.833
107.675
102.553
144.271
140.07
135.574
130.895
126.123
121.322
116.533
111.774
107.048
102.346
140.43
136.636
132.586
128.362
124.033
119.656
115.266
110.885
106.521
102.171
137.554
134.051
130.321
126.429
122.429
118.37
114.285
110.195
106.11
102.035
135.638
132.322
128.801
125.125
121.343
117.497
113.617
109.725
105.829
101.941
134.679
131.457
128.038
124.469
120.796
117.056
113.28
109.487
105.687
101.897
179.5
168.77
158.828
149.653
141.093
133.015
125.309
117.883
110.653
103.538
170.059
161.873
153.609
145.598
137.917
130.556
123.47
116.604
109.898
103.288
161.89
155.317
148.407
141.476
134.668
128.038
121.589
115.299
109.129
103.034
154.943
149.437
143.561
137.545
131.53
125.59
119.755
114.024
108.377
102.786
149.096
144.342
139.251
133.98
128.646
123.322
118.047
112.833
107.675
102.553
144.271
140.07
135.574
130.895
126.123
121.322
116.533
111.774
107.048
102.346
140.43
136.636
132.587
128.362
124.033
119.656
115.266
110.885
106.521
102.171
137.554
134.051
130.321
126.429
122.429
118.37
114.285
110.195
106.11
102.035
135.637
132.322
128.801
125.125
121.343
117.497
113.617
109.725
105.829
101.941
134.679
131.457
128.038
124.469
120.796
117.056
113.28
109.487
105.687
101.897
179.503
168.774
158.832
149.656
141.096
133.018
125.312
117.886
110.655
103.539
170.062
161.876
153.613
145.601
137.921
130.559
123.473
116.607
109.901
103.29
161.893
155.32
148.41
141.479
134.671
128.041
121.593
115.302
109.132
103.036
154.945
149.44
143.564
137.548
131.533
125.593
119.758
114.027
108.38
102.787
149.098
144.345
139.254
133.983
128.649
123.326
118.051
112.837
107.678
102.555
144.274
140.073
135.577
130.898
126.126
121.326
116.537
111.778
107.052
102.348
140.432
136.639
132.589
128.365
124.036
119.659
115.27
110.889
106.525
102.174
137.556
134.053
130.324
126.431
122.432
118.373
114.289
110.199
106.115
102.038
135.64
132.325
128.803
125.128
121.346
117.501
113.622
109.73
105.835
101.946
134.681
131.459
128.04
124.472
120.799
117.06
113.284
109.492
105.694
101.903
189.962
193.163
194.434
195.075
195.456
195.703
195.869
195.979
196.047
196.08
196.08
196.047
195.98
195.869
195.703
195.456
195.075
194.433
193.162
189.959
177.227
181.495
184.003
185.556
186.572
187.261
187.735
188.053
188.249
188.344
188.344
188.25
188.053
187.735
187.261
186.572
185.555
184
181.49
177.218
167.596
171.796
174.735
176.782
178.223
179.246
179.968
180.46
180.768
180.916
180.916
180.768
180.46
179.968
179.246
178.222
176.78
174.731
171.789
167.586
159.787
163.689
166.691
168.95
170.633
171.875
172.776
173.401
173.797
173.988
173.988
173.797
173.402
172.776
171.875
170.632
168.948
166.688
163.683
159.778
153.341
156.924
159.84
162.15
163.946
165.315
166.331
167.049
167.507
167.731
167.731
167.508
167.05
166.332
165.316
163.947
162.15
159.839
156.921
153.335
148.067
151.366
154.146
156.427
158.256
159.687
160.77
161.546
162.047
162.293
162.293
162.048
161.548
160.773
159.691
158.26
156.431
154.149
151.368
148.067
143.885
146.949
149.591
151.811
153.632
155.084
156.2
157.01
157.537
157.796
157.797
157.539
157.014
156.206
155.091
153.64
151.82
149.599
146.957
143.892
140.76
143.644
146.169
148.326
150.122
151.575
152.704
153.53
154.072
154.34
154.341
154.075
153.536
152.712
151.585
150.134
148.339
146.183
143.659
140.774
138.678
141.442
143.884
145.991
147.763
149.208
150.341
151.174
151.723
151.995
151.997
151.727
151.182
150.351
149.221
147.778
146.008
143.903
141.462
138.699
137.638
140.341
142.739
144.819
146.577
148.017
149.149
149.986
150.537
150.811
150.813
150.542
149.994
149.161
148.031
146.594
144.839
142.761
140.364
137.662
189.965
193.165
194.435
195.076
195.457
195.704
195.87
195.98
196.048
196.08
196.08
196.047
195.979
195.869
195.703
195.455
195.074
194.432
193.16
189.957
177.23
181.497
184.006
185.558
186.574
187.263
187.736
188.053
188.25
188.344
188.343
188.249
188.052
187.734
187.26
186.57
185.553
183.998
181.487
177.216
167.599
171.798
174.737
176.784
178.225
179.248
179.969
180.461
180.768
180.916
180.916
180.767
180.459
179.966
179.244
178.221
176.778
174.728
171.787
167.583
159.79
163.692
166.694
168.952
170.635
171.877
172.777
173.402
173.797
173.988
173.988
173.796
173.401
172.775
171.874
170.631
168.947
166.686
163.681
159.776
153.343
156.927
159.843
162.152
163.947
165.316
166.332
167.049
167.508
167.731
167.731
167.507
167.049
166.331
165.315
163.945
162.149
159.837
156.919
153.333
148.07
151.369
154.149
156.429
158.258
159.688
160.771
161.547
162.047
162.293
162.293
162.048
161.548
160.772
159.689
158.259
156.429
154.147
151.366
148.065
143.887
146.952
149.593
151.813
153.634
155.085
156.201
157.01
157.537
157.796
157.797
157.539
157.013
156.205
155.089
153.638
151.818
149.598
146.955
143.89
140.762
143.647
146.171
148.328
150.124
151.576
152.705
153.531
154.072
154.34
154.341
154.075
153.536
152.711
151.583
150.133
148.338
146.182
143.657
140.772
138.681
141.444
143.886
145.992
147.764
149.209
150.341
151.175
151.723
151.995
151.996
151.727
151.181
150.35
149.22
147.776
146.006
143.901
141.46
138.697
137.64
140.343
142.741
144.821
146.578
148.018
149.15
149.986
150.537
150.811
150.813
150.541
149.993
149.16
148.03
146.593
144.838
142.76
140.363
137.66
189.965
193.165
194.435
195.076
195.457
195.704
195.87
195.98
196.048
196.08
196.08
196.047
195.979
195.869
195.703
195.455
195.074
194.432
193.16
189.957
177.23
181.497
184.006
185.558
186.574
187.263
187.736
188.053
188.25
188.344
188.343
188.249
188.052
187.734
187.26
186.57
185.553
183.998
181.487
177.216
167.599
171.798
174.737
176.784
178.225
179.248
179.969
180.461
180.768
180.916
180.916
180.767
180.459
179.966
179.244
178.221
176.778
174.728
171.787
167.583
159.79
163.692
166.694
168.952
170.635
171.877
172.777
173.402
173.797
173.988
173.988
173.796
173.401
172.775
171.874
170.631
168.947
166.686
163.681
159.776
153.343
156.927
159.843
162.152
163.947
165.316
166.332
167.049
167.508
167.731
167.731
167.508
167.049
166.331
165.315
163.945
162.149
159.837
156.919
153.333
148.07
151.369
154.149
156.429
158.258
159.688
160.771
161.547
162.047
162.293
162.293
162.048
161.548
160.772
159.689
158.259
156.429
154.147
151.366
148.065
143.887
146.952
149.593
151.813
153.634
155.085
156.201
157.01
157.537
157.796
157.797
157.539
157.013
156.205
155.089
153.638
151.818
149.597
146.955
143.89
140.762
143.647
146.171
148.328
150.124
151.576
152.705
153.531
154.072
154.34
154.341
154.075
153.536
152.711
151.583
150.133
148.338
146.181
143.657
140.772
138.681
141.444
143.886
145.992
147.764
149.209
150.341
151.175
151.723
151.995
151.996
151.727
151.181
150.35
149.22
147.776
146.006
143.901
141.46
138.697
137.64
140.343
142.741
144.821
146.578
148.018
149.15
149.986
150.537
150.811
150.812
150.541
149.993
149.16
148.03
146.593
144.838
142.76
140.363
137.66
189.962
193.163
194.434
195.075
195.456
195.703
195.869
195.979
196.047
196.08
196.08
196.047
195.98
195.869
195.703
195.456
195.075
194.433
193.162
189.959
177.227
181.495
184.003
185.556
186.572
187.261
187.735
188.053
188.249
188.344
188.344
188.25
188.053
187.735
187.261
186.572
185.555
184
181.49
177.219
167.596
171.796
174.735
176.782
178.223
179.246
179.967
180.46
180.768
180.916
180.916
180.768
180.46
179.967
179.246
178.222
176.78
174.731
171.789
167.586
159.787
163.689
166.691
168.95
170.633
171.875
172.776
173.401
173.797
173.988
173.988
173.797
173.402
172.776
171.875
170.632
168.948
166.688
163.683
159.778
153.341
156.925
159.84
162.15
163.946
165.315
166.331
167.049
167.507
167.731
167.731
167.508
167.05
166.332
165.316
163.947
162.151
159.839
156.921
153.335
148.067
151.366
154.146
156.427
158.256
159.687
160.77
161.546
162.047
162.293
162.293
162.049
161.548
160.773
159.691
158.26
156.431
154.149
151.368
148.067
143.885
146.949
149.591
151.811
153.632
155.084
156.2
157.01
157.537
157.796
157.797
157.539
157.014
156.205
155.091
153.64
151.82
149.599
146.957
143.892
140.76
143.644
146.169
148.326
150.122
151.574
152.704
153.53
154.072
154.34
154.341
154.075
153.536
152.712
151.584
150.134
148.339
146.183
143.659
140.774
138.678
141.442
143.884
145.991
147.762
149.208
150.34
151.174
151.723
151.995
151.997
151.727
151.182
150.351
149.221
147.778
146.008
143.903
141.462
138.699
137.638
140.341
142.739
144.819
146.577
148.017
149.149
149.986
150.537
150.811
150.813
150.542
149.994
149.161
148.031
146.594
144.839
142.761
140.364
137.662
103.541
110.662
117.899
125.331
133.04
141.12
149.68
158.853
168.79
179.513
103.292
109.908
116.621
123.493
130.582
137.946
145.626
153.635
161.895
170.075
103.038
109.139
115.316
121.612
128.064
134.696
141.503
148.433
155.339
161.908
102.789
108.387
114.039
119.776
125.614
131.555
137.569
143.584
149.456
154.958
102.556
107.683
112.847
118.065
123.342
128.667
134
139.268
144.357
149.107
102.349
107.055
111.785
116.547
121.337
126.136
130.907
135.584
140.078
144.276
102.173
106.526
110.893
115.274
119.663
124.039
128.366
132.588
136.635
140.427
102.036
106.114
110.198
114.286
118.369
122.426
126.423
130.314
134.041
137.543
101.943
105.833
109.723
113.612
117.488
121.332
125.111
128.785
132.305
135.619
101.892
105.69
109.482
113.27
117.043
120.78
124.451
128.017
131.435
134.657