/*--------------------------------*- C++ -*----------------------------------*\
| =========                 |                                                 |
| \\      /  F ield         | OpenFOAM: The Open Source CFD Toolbox           |
|  \\    /   O peration     | Version:  2.4.0                                 |
|   \\  /    A nd           | Web:      www.OpenFOAM.org                      |
|    \\/     M anipulation  |                                                 |
\*---------------------------------------------------------------------------*/
FoamFile
{
    version     2.0;
    format      ascii;
    class       volScalarField;
    location    "0.795";
    object      T;
}
// * * * * * * * * * * * * * * * * * * * * * * * * * * * * * * * * * * * * * //

dimensions      [0 0 0 1 0 0 0];

internalField   nonuniform List<scalar> 
1600
(
101.411
104.232
107.051
109.865
112.673
115.473
118.264
121.043
123.809
126.559
129.294
132.01
134.707
137.384
140.038
142.669
145.275
147.857
150.413
152.942
155.445
157.921
160.371
162.795
165.192
167.565
169.914
172.239
174.543
176.826
179.091
181.339
183.571
185.789
187.996
190.192
192.38
194.562
196.739
198.913
101.412
104.235
107.055
109.871
112.681
115.483
118.276
121.056
123.824
126.576
129.312
132.03
134.729
137.406
140.061
142.693
145.3
147.883
150.439
152.969
155.472
157.948
160.397
162.82
165.217
167.589
169.936
172.261
174.563
176.845
179.108
181.354
183.585
185.801
188.006
190.201
192.387
194.567
196.742
198.914
101.414
104.24
107.064
109.884
112.697
115.503
118.298
121.082
123.853
126.609
129.348
132.069
134.77
137.449
140.107
142.74
145.349
147.933
150.49
153.02
155.524
158
160.449
162.871
165.267
167.637
169.982
172.305
174.604
176.884
179.144
181.386
183.613
185.826
188.027
190.218
192.4
194.576
196.748
198.916
101.416
104.248
107.078
109.902
112.721
115.532
118.332
121.121
123.897
126.657
129.401
132.125
134.83
137.513
140.174
142.81
145.422
148.007
150.566
153.097
155.601
158.077
160.525
162.946
165.34
167.708
170.051
172.37
174.666
176.941
179.196
181.434
183.656
185.864
188.059
190.244
192.421
194.591
196.756
198.919
101.42
104.259
107.095
109.927
112.753
115.57
118.377
121.173
123.955
126.721
129.47
132.2
134.91
137.598
140.262
142.902
145.517
148.105
150.665
153.198
155.702
158.178
160.626
163.045
165.437
167.802
170.142
172.456
174.748
177.017
179.267
181.498
183.713
185.913
188.102
190.279
192.448
194.611
196.768
198.923
101.424
104.272
107.117
109.958
112.792
115.618
118.433
121.237
124.026
126.8
129.556
132.292
135.008
137.702
140.371
143.016
145.634
148.225
150.788
153.322
155.828
158.304
160.75
163.168
165.558
167.919
170.254
172.564
174.849
177.112
179.355
181.578
183.784
185.976
188.155
190.323
192.482
194.635
196.783
198.928
101.43
104.287
107.143
109.994
112.838
115.674
118.5
121.312
124.111
126.893
129.657
132.402
135.125
137.825
140.5
143.15
145.773
148.368
150.933
153.47
155.976
158.452
160.898
163.314
165.701
168.059
170.389
172.693
174.971
177.226
179.46
181.674
183.87
186.051
188.219
190.376
192.524
194.665
196.801
198.934
101.436
104.306
107.173
110.036
112.893
115.74
118.577
121.4
124.209
127.002
129.775
132.529
135.26
137.967
140.65
143.305
145.933
148.532
151.101
153.64
156.148
158.624
161.069
163.483
165.867
168.22
170.545
172.842
175.112
177.359
179.582
181.785
183.97
186.139
188.294
190.438
192.572
194.699
196.821
198.941
101.443
104.326
107.208
110.085
112.954
115.815
118.664
121.5
124.321
127.125
129.909
132.672
135.413
138.128
140.818
143.481
146.114
148.718
151.291
153.832
156.341
158.818
161.262
163.674
166.054
168.403
170.722
173.011
175.273
177.51
179.722
181.913
184.085
186.24
188.38
190.509
192.627
194.739
196.845
198.949
101.45
104.35
107.247
110.139
113.023
115.899
118.762
121.612
124.446
127.262
130.058
132.833
135.583
138.308
141.006
143.676
146.316
148.925
151.501
154.046
156.556
159.033
161.477
163.886
166.263
168.606
170.919
173.2
175.453
177.679
179.879
182.057
184.214
186.353
188.477
190.589
192.69
194.784
196.872
198.958
101.459
104.376
107.29
110.199
113.101
115.992
118.872
121.737
124.585
127.415
130.224
133.01
135.772
138.507
141.214
143.891
146.538
149.152
151.733
154.28
156.792
159.27
161.712
164.119
166.492
168.83
171.135
173.409
175.652
177.866
180.053
182.216
184.357
186.479
188.585
190.678
192.76
194.834
196.903
198.968
101.469
104.405
107.338
110.266
113.186
116.095
118.992
121.874
124.738
127.583
130.406
133.205
135.979
138.724
141.441
144.127
146.78
149.4
151.985
154.535
157.049
159.527
161.968
164.372
166.741
169.073
171.371
173.636
175.868
178.07
180.243
182.391
184.515
186.619
188.705
190.777
192.837
194.89
196.936
198.979
101.479
104.436
107.391
110.339
113.279
116.208
119.124
122.024
124.905
127.766
130.604
133.418
136.204
138.961
141.688
144.382
147.043
149.669
152.258
154.811
157.327
159.804
162.244
164.645
167.009
169.336
171.626
173.881
176.102
178.291
180.45
182.581
184.687
186.771
188.836
190.885
192.922
194.951
196.973
198.991
101.491
104.471
107.449
110.42
113.382
116.332
119.268
122.188
125.088
127.966
130.821
133.649
136.449
139.218
141.955
144.659
147.327
149.958
152.553
155.108
157.625
160.102
162.54
164.938
167.297
169.617
171.9
174.145
176.354
178.53
180.673
182.787
184.874
186.936
188.978
191.004
193.015
195.017
197.013
199.005
101.504
104.509
107.512
110.507
113.494
116.467
119.426
122.367
125.287
128.184
131.056
133.9
136.714
139.496
142.244
144.957
147.633
150.271
152.869
155.428
157.946
160.422
162.858
165.252
167.606
169.919
172.192
174.427
176.624
178.786
180.913
183.008
185.075
187.115
189.133
191.132
193.116
195.09
197.057
199.019
101.518
104.551
107.581
110.603
113.616
116.615
119.598
122.561
125.503
128.42
131.311
134.172
137.001
139.796
142.556
145.279
147.963
150.607
153.21
155.772
158.29
160.767
163.2
165.59
167.937
170.243
172.506
174.73
176.913
179.059
181.169
183.246
185.291
187.308
189.3
191.271
193.226
195.169
197.105
199.035
101.533
104.597
107.656
110.708
113.749
116.776
119.785
122.773
125.738
128.677
131.588
134.467
137.312
140.122
142.894
145.627
148.32
150.971
153.578
156.142
158.662
161.137
163.568
165.953
168.294
170.59
172.844
175.054
177.224
179.353
181.445
183.5
185.523
187.514
189.479
191.421
193.344
195.254
197.156
199.052
101.55
104.646
107.739
110.823
113.895
116.951
119.989
123.004
125.995
128.957
131.889
134.787
137.65
140.475
143.26
146.005
148.706
151.364
153.976
156.543
159.064
161.538
163.965
166.345
168.678
170.966
173.207
175.404
177.558
179.669
181.741
183.774
185.772
187.737
189.673
191.583
193.473
195.347
197.212
199.071
101.568
104.701
107.83
110.949
114.055
117.144
120.212
123.257
126.275
129.262
132.217
135.136
138.017
140.859
143.658
146.414
149.125
151.79
154.408
156.978
159.499
161.972
164.395
166.77
169.095
171.372
173.601
175.783
177.919
180.011
182.06
184.069
186.04
187.976
189.881
191.758
193.612
195.448
197.273
199.091
101.588
104.761
107.929
111.087
114.23
117.354
120.457
123.533
126.58
129.595
132.575
135.516
138.417
141.276
144.091
146.859
149.58
152.253
154.877
157.45
159.972
162.443
164.863
167.231
169.548
171.813
174.029
176.194
178.312
180.382
182.407
184.389
186.331
188.235
190.106
191.947
193.762
195.557
197.34
199.113
101.61
104.828
108.039
111.238
114.422
117.585
120.725
123.836
126.915
129.96
132.966
135.932
138.854
141.732
144.562
147.344
150.077
152.758
155.387
157.964
160.487
162.957
165.372
167.734
170.041
172.294
174.494
176.642
178.739
180.785
182.784
184.737
186.646
188.516
190.35
192.152
193.925
195.675
197.412
199.136
101.634
104.901
108.159
111.405
114.634
117.84
121.02
124.168
127.283
130.359
133.395
136.386
139.332
142.23
145.078
147.874
150.618
153.309
155.945
158.525
161.049
163.517
165.928
168.282
170.578
172.818
175.002
177.131
179.205
181.226
183.196
185.116
186.991
188.823
190.616
192.374
194.102
195.805
197.49
199.162
101.661
104.981
108.293
111.59
114.868
118.121
121.344
124.534
127.687
130.798
133.865
136.885
139.856
142.775
145.642
148.454
151.21
153.91
156.553
159.137
161.663
164.128
166.534
168.88
171.165
173.391
175.557
177.665
179.714
181.708
183.646
185.532
187.368
189.159
190.907
192.618
194.296
195.946
197.577
199.191
101.691
105.071
108.44
111.794
115.126
118.431
121.703
124.938
128.132
131.281
134.382
137.432
140.43
143.372
146.259
149.088
151.858
154.568
157.218
159.806
162.332
164.796
167.197
169.534
171.807
174.017
176.165
178.249
180.273
182.236
184.14
185.988
187.783
189.527
191.226
192.885
194.508
196.1
197.672
199.222
101.725
105.17
108.604
112.021
115.413
118.774
122.1
125.384
128.623
131.813
134.951
138.034
141.06
144.028
146.935
149.782
152.566
155.287
157.944
160.537
163.064
165.525
167.92
170.248
172.509
174.702
176.829
178.89
180.885
182.815
184.683
186.49
188.239
189.933
191.578
193.179
194.741
196.271
197.776
199.257
101.762
105.281
108.787
112.273
115.731
119.155
122.539
125.877
129.165
132.399
135.577
138.695
141.752
144.746
147.676
150.541
153.341
156.073
158.738
161.335
163.863
166.322
168.711
171.029
173.276
175.452
177.557
179.591
181.556
183.451
185.279
187.042
188.741
190.382
191.968
193.505
195
196.459
197.892
199.295
101.803
105.404
108.991
112.554
116.086
119.579
123.027
126.423
129.765
133.047
136.267
139.423
142.512
145.535
148.488
151.373
154.188
156.932
159.605
162.207
164.735
167.191
169.573
171.881
174.114
176.271
178.353
180.36
182.293
184.151
185.936
187.65
189.296
190.877
192.398
193.866
195.286
196.667
198.02
199.338
101.849
105.543
109.219
112.869
116.482
120.051
123.569
127.029
130.428
133.762
137.027
140.223
143.347
146.399
149.377
152.282
155.113
157.87
160.551
163.157
165.687
168.139
170.514
172.811
175.029
177.167
179.225
181.203
183.101
184.919
186.659
188.321
189.91
191.426
192.877
194.267
195.605
196.9
198.162
199.385
101.902
105.699
109.476
113.221
116.925
120.578
124.172
127.702
131.163
134.551
137.865
141.103
144.263
147.346
150.35
153.276
156.124
158.892
161.582
164.192
166.722
169.172
171.54
173.825
176.027
178.145
180.178
182.126
183.988
185.764
187.456
189.063
190.589
192.036
193.409
194.715
195.962
197.16
198.321
199.439
101.961
105.875
109.765
113.618
117.422
121.167
124.845
128.449
131.976
135.423
138.788
142.07
145.268
148.382
151.413
154.36
157.225
160.006
162.704
165.319
167.849
170.295
172.656
174.929
177.115
179.213
181.22
183.136
184.961
186.693
188.334
189.883
191.342
192.714
194.003
195.216
196.362
197.453
198.5
199.498
102.028
106.074
110.093
114.066
117.982
121.827
125.596
129.281
132.878
136.387
139.804
143.131
146.368
149.515
152.572
155.541
158.423
161.216
163.923
166.542
169.073
171.515
173.868
176.13
178.299
180.376
182.357
184.241
186.027
187.715
189.302
190.79
192.178
193.469
194.667
195.779
196.813
197.784
198.702
199.566
102.105
106.303
110.467
114.576
118.614
122.57
126.436
130.206
133.878
137.45
140.922
144.296
147.572
150.751
153.835
156.826
159.724
162.53
165.244
167.867
170.399
172.837
175.182
177.432
179.586
181.641
183.596
185.448
187.196
188.837
190.37
191.794
193.108
194.313
195.413
196.414
197.324
198.159
198.932
199.644
102.194
106.567
110.896
115.158
119.332
123.408
127.378
131.238
134.986
138.624
142.151
145.571
148.886
152.097
155.208
158.22
161.134
163.952
166.674
169.301
171.832
174.267
176.605
178.844
180.981
183.016
184.945
186.766
188.475
190.07
191.548
192.907
194.144
195.259
196.254
197.134
197.907
198.589
199.195
199.734
102.299
106.875
111.395
115.828
120.152
124.357
128.437
132.389
136.215
139.918
143.5
146.965
150.318
153.561
156.697
159.728
162.658
165.488
168.217
170.848
173.379
175.811
178.141
180.369
182.492
184.507
186.411
188.201
189.874
191.424
192.848
194.141
195.3
196.323
197.207
197.957
198.578
199.087
199.501
199.84
102.424
107.242
111.983
116.607
121.095
125.435
129.628
133.673
137.576
141.343
144.978
148.487
151.875
155.147
158.307
161.358
164.302
167.142
169.878
172.512
175.044
177.472
179.796
182.014
184.123
186.12
188.001
189.764
191.401
192.909
194.281
195.511
196.593
197.521
198.291
198.902
199.358
199.673
199.865
199.969
102.578
107.688
112.686
117.523
122.185
126.665
130.97
135.107
139.083
142.909
146.593
150.143
153.564
156.862
160.044
163.112
166.069
168.919
171.662
174.299
176.831
179.257
181.575
183.784
185.881
187.862
189.723
191.46
193.067
194.536
195.861
197.033
198.042
198.878
199.533
200
200.276
200.375
200.305
200.125
102.776
108.251
113.546
118.615
123.455
128.073
132.485
136.705
140.749
144.629
148.356
151.94
155.39
158.712
161.912
164.995
167.964
170.822
173.571
176.211
178.744
181.168
183.482
185.684
187.771
189.739
191.584
193.301
194.881
196.318
197.602
198.723
199.667
200.42
200.966
201.29
201.377
201.233
200.848
200.32
103.049
108.994
114.624
119.931
124.942
129.687
134.193
138.485
142.585
146.51
150.273
153.886
157.36
160.701
163.917
167.013
169.991
172.857
175.611
178.255
180.789
183.212
185.523
187.721
189.801
191.76
193.592
195.292
196.853
198.265
199.517
200.597
201.489
202.173
202.626
202.822
202.725
202.32
201.554
200.581
103.509
110.034
115.999
121.527
126.687
131.534
136.115
140.463
144.606
148.564
152.354
155.99
159.482
162.838
166.066
169.171
172.158
175.03
177.788
180.435
182.971
185.394
187.705
189.9
191.976
193.929
195.754
197.444
198.992
200.387
201.618
202.67
203.526
204.162
204.549
204.65
204.404
203.757
202.567
201.021
104.356
111.618
117.859
123.535
128.786
133.692
138.312
142.69
146.855
150.831
154.635
158.283
161.784
165.148
168.383
171.494
174.485
177.361
180.122
182.771
185.308
187.732
190.042
192.235
194.309
196.259
198.08
199.765
201.306
202.692
203.911
204.949
205.784
206.394
206.743
206.791
206.462
205.679
204.197
202.07
)
;

boundaryField
{
    carasuperior
    {
        type            fixedGradient;
        gradient        uniform 100;
    }
    lateralizquierda
    {
        type            fixedValue;
        value           uniform 100;
    }
    lateralderecha
    {
        type            fixedValue;
        value           uniform 200;
    }
    carainferior
    {
        type            zeroGradient;
    }
    frontAndBack
    {
        type            empty;
    }
}


// ************************************************************************* //
