/*--------------------------------*- C++ -*----------------------------------*\
| =========                 |                                                 |
| \\      /  F ield         | OpenFOAM: The Open Source CFD Toolbox           |
|  \\    /   O peration     | Version:  2.4.0                                 |
|   \\  /    A nd           | Web:      www.OpenFOAM.org                      |
|    \\/     M anipulation  |                                                 |
\*---------------------------------------------------------------------------*/
FoamFile
{
    version     2.0;
    format      ascii;
    class       volScalarField;
    location    "3.6";
    object      p;
}
// * * * * * * * * * * * * * * * * * * * * * * * * * * * * * * * * * * * * * //

dimensions      [0 2 -2 0 0 0 0];

internalField   nonuniform List<scalar> 
4800
(
-3.57008e-06
-0.00160585
-0.00328728
-0.00453216
-0.00501657
-0.00458935
-0.00320347
-0.000862704
0.00238809
0.00645309
0.00158879
-4.31007e-05
-0.00123733
-0.00194766
-0.00205061
-0.00143616
-5.67906e-05
0.00210394
0.00503633
0.00869374
0.00330728
0.00110045
-0.000101418
-0.000656124
-0.000632865
2.68173e-05
0.00135445
0.00337716
0.00611688
0.00957036
0.00447044
0.00160784
0.000231776
-0.000338173
-0.000330222
0.000270055
0.00148276
0.00335355
0.00594876
0.00932522
0.00452556
0.00114262
-0.000418416
-0.00107772
-0.0011792
-0.000734535
0.000282708
0.00195709
0.00442732
0.00785772
0.00310572
-0.000587517
-0.00230058
-0.00309996
-0.00339868
-0.00321488
-0.00249327
-0.00108325
0.00126801
0.0049372
3.33029e-05
-0.00373047
-0.00554036
-0.00651583
-0.00709583
-0.00728971
-0.00699288
-0.00596259
-0.00378558
0.000346313
-0.00469711
-0.00828993
-0.0101323
-0.0113085
-0.0122482
-0.0129469
-0.0132408
-0.0127836
-0.0109859
-0.00619277
-0.0109186
-0.0141285
-0.0159379
-0.0173227
-0.0186785
-0.0199958
-0.021058
-0.0214197
-0.020395
-0.0147692
-0.0183171
-0.0209862
-0.0226988
-0.0242702
-0.0260532
-0.0280681
-0.0301135
-0.0317486
-0.0327326
-0.0283396
-7.89989e-06
-0.00162834
-0.00331935
-0.00457283
-0.00506242
-0.00463733
-0.00325155
-0.000908874
0.00234617
0.00641804
0.00160494
-4.85675e-05
-0.00122047
-0.00192043
-0.00201817
-0.00140046
-2.09395e-05
0.00213729
0.00506558
0.00871898
0.00333705
0.00107388
-0.000102966
-0.000655253
-0.000634359
2.54635e-05
0.00135299
0.00337504
0.00611398
0.00956858
0.00451429
0.00157079
0.000231715
-0.000335054
-0.000331292
0.000268532
0.00148078
0.00335035
0.00594327
0.00932038
0.00457933
0.00109916
-0.000413654
-0.00106715
-0.0011728
-0.000728405
0.000288195
0.00196032
0.00442386
0.00785093
0.00316397
-0.00063568
-0.0022943
-0.00308648
-0.00338931
-0.00320554
-0.00248413
-0.00107589
0.00126205
0.00491833
9.00736e-05
-0.0037801
-0.00553365
-0.00650107
-0.00708455
-0.00727798
-0.00697986
-0.00594697
-0.0037934
0.000298396
-0.00464328
-0.00833732
-0.0101261
-0.0112942
-0.0122364
-0.0129348
-0.0132271
-0.0127594
-0.011009
-0.00635958
-0.0108733
-0.0141713
-0.0159336
-0.0173106
-0.0186675
-0.0199838
-0.0210419
-0.0213632
-0.0203782
-0.0151436
-0.0182842
-0.0210231
-0.0226981
-0.0242634
-0.0260459
-0.0280574
-0.0300907
-0.0316079
-0.0324035
-0.0284524
-9.10188e-06
-0.00162902
-0.00331975
-0.00457306
-0.00506254
-0.00463739
-0.00325156
-0.000908874
0.00234617
0.00641805
0.00160427
-4.90433e-05
-0.00122078
-0.00192061
-0.00201827
-0.0014005
-2.09522e-05
0.00213729
0.00506559
0.00871899
0.00333665
0.00107357
-0.000103178
-0.000655384
-0.000634429
2.54342e-05
0.00135299
0.00337504
0.00611399
0.00956859
0.00451406
0.0015706
0.00023158
-0.000335134
-0.000331333
0.000268516
0.00148078
0.00335036
0.00594328
0.00932039
0.0045792
0.00109906
-0.000413727
-0.00106719
-0.00117282
-0.00072841
0.000288201
0.00196033
0.00442387
0.00785095
0.00316391
-0.00063573
-0.00229433
-0.00308649
-0.00338932
-0.00320554
-0.00248412
-0.00107587
0.00126207
0.00491835
9.00476e-05
-0.00378012
-0.00553366
-0.00650107
-0.00708454
-0.00727797
-0.00697985
-0.00594696
-0.00379338
0.000298411
-0.00464329
-0.00833732
-0.0101261
-0.0112942
-0.0122364
-0.0129348
-0.0132271
-0.0127594
-0.011009
-0.00635956
-0.0108733
-0.0141713
-0.0159335
-0.0173106
-0.0186674
-0.0199838
-0.0210418
-0.0213632
-0.0203782
-0.0151436
-0.0182842
-0.0210231
-0.022698
-0.0242633
-0.0260459
-0.0280574
-0.0300907
-0.0316079
-0.0324035
-0.0284524
-8.22622e-06
-0.00160789
-0.00328834
-0.00453273
-0.00501686
-0.00458949
-0.00320351
-0.000862702
0.00238811
0.00645311
0.00158676
-4.43963e-05
-0.00123813
-0.00194811
-0.00205084
-0.00143626
-5.6818e-05
0.00210395
0.00503636
0.00869377
0.00330623
0.00109965
-0.000101949
-0.000656433
-0.000633027
2.67527e-05
0.00135444
0.00337718
0.00611691
0.0095704
0.00446986
0.00160738
0.000231449
-0.000338362
-0.000330316
0.000270023
0.00148276
0.00335357
0.00594879
0.00932525
0.00452526
0.00114238
-0.000418592
-0.00107781
-0.00117924
-0.000734541
0.000282725
0.00195712
0.00442736
0.00785775
0.00310557
-0.00058763
-0.00230066
-0.00309999
-0.00339869
-0.00321486
-0.00249324
-0.00108321
0.00126805
0.00493723
3.32465e-05
-0.00373051
-0.00554038
-0.00651582
-0.00709581
-0.00728968
-0.00699285
-0.00596255
-0.00378554
0.000346347
-0.00469712
-0.00828993
-0.0101323
-0.0113085
-0.0122482
-0.0129468
-0.0132407
-0.0127835
-0.0109859
-0.00619273
-0.0109185
-0.0141284
-0.0159378
-0.0173226
-0.0186785
-0.0199958
-0.021058
-0.0214197
-0.020395
-0.0147691
-0.0183171
-0.0209861
-0.0226988
-0.0242702
-0.0260532
-0.0280681
-0.0301135
-0.0317486
-0.0327326
-0.0283396
0.0111794
0.0163797
0.0218847
0.0275669
0.0333412
0.0391583
0.0449945
0.0508442
0.0567154
0.0626283
0.0686153
0.0747222
0.0810083
0.0875447
0.0944077
0.101666
0.109358
0.117467
0.125873
0.134339
0.0129795
0.0177557
0.0228925
0.0282823
0.0338425
0.0395152
0.0452642
0.051071
0.0569321
0.0628567
0.0688663
0.0749932
0.0812799
0.0877758
0.0945309
0.101586
0.108959
0.116615
0.124459
0.132295
0.0136725
0.0182848
0.0232842
0.0285676
0.034051
0.0396723
0.0453897
0.0511788
0.0570297
0.0629449
0.0689377
0.0750313
0.0812573
0.0876532
0.0942587
0.101109
0.108225
0.115593
0.123148
0.130745
0.0134427
0.0180995
0.0231497
0.0284818
0.0340063
0.0396595
0.0453997
0.0512016
0.0570534
0.0629535
0.0689087
0.0749339
0.0810509
0.0872881
0.0936805
0.100268
0.10709
0.114177
0.121524
0.129061
0.0122469
0.0171972
0.0225065
0.0280498
0.0337336
0.0394999
0.0453154
0.0511617
0.0570297
0.0629164
0.0688236
0.0747571
0.0807277
0.0867532
0.0928628
0.0991033
0.105542
0.112268
0.119375
0.126932
0.0100352
0.0156316
0.0214459
0.0273658
0.0333126
0.0392543
0.0451814
0.0510918
0.0569852
0.0628604
0.0687144
0.0745433
0.0803445
0.0861209
0.0918898
0.0976983
0.103641
0.109875
0.116628
0.124245
0.00693894
0.0136703
0.0202392
0.0266547
0.0329094
0.0390368
0.0450733
0.051043
0.0569582
0.0628203
0.0686215
0.0743467
0.0799765
0.0854927
0.09089
0.0961992
0.101531
0.107097
0.113293
0.120973
0.00337339
0.0118404
0.0193176
0.0262254
0.0327255
0.0389713
0.0450657
0.0510616
0.0569814
0.0628264
0.0685819
0.0742195
0.0797
0.0849784
0.090014
0.0948015
0.0994455
0.104172
0.109503
0.117101
0.00138585
0.0118238
0.0196215
0.0265587
0.032998
0.0391734
0.0452184
0.0511857
0.0570893
0.0629207
0.0686533
0.0742429
0.0796276
0.0847273
0.0894472
0.09371
0.0975661
0.101034
0.104466
0.110778
0.00593491
0.0171503
0.0227936
0.0283251
0.0339881
0.0397465
0.0455813
0.0514555
0.0573325
0.0631753
0.0689381
0.0745572
0.0799421
0.084962
0.0894302
0.0930847
0.0955711
0.0965957
0.0953553
0.0969124
0.011153
0.0163612
0.0218725
0.0275591
0.0333364
0.0391553
0.0449924
0.0508424
0.0567135
0.0626259
0.0686122
0.0747181
0.0810033
0.0875388
0.0944013
0.10166
0.109354
0.117467
0.125881
0.134358
0.0130018
0.0177743
0.0229073
0.0282936
0.0338509
0.0395216
0.0452692
0.0510754
0.0569363
0.0628612
0.0688712
0.0749986
0.0812856
0.0877809
0.0945343
0.101586
0.108953
0.116602
0.124436
0.132264
0.0136752
0.0182896
0.0232895
0.0285726
0.0340553
0.0396757
0.0453924
0.0511809
0.0570313
0.0629461
0.0689387
0.0750322
0.0812579
0.0876535
0.0942583
0.101108
0.108222
0.115588
0.123142
0.130739
0.0134471
0.0181065
0.0231567
0.028488
0.0340112
0.0396632
0.0454023
0.0512034
0.0570547
0.0629543
0.0689093
0.0749343
0.0810512
0.0872883
0.0936804
0.100267
0.107089
0.114174
0.121519
0.129055
0.0122588
0.0172105
0.0225173
0.0280583
0.0337395
0.0395038
0.045318
0.0511633
0.0570307
0.0629172
0.0688242
0.0747578
0.0807285
0.0867542
0.0928636
0.0991033
0.105541
0.112265
0.119364
0.126917
0.0100606
0.0156533
0.0214596
0.027375
0.033318
0.0392571
0.0451828
0.0510925
0.0569855
0.0628605
0.0687145
0.0745436
0.0803451
0.0861218
0.0918909
0.097699
0.103642
0.109873
0.11661
0.124207
0.0070065
0.0137149
0.0202599
0.0266654
0.032914
0.0390382
0.0450734
0.0510427
0.0569579
0.0628201
0.0686215
0.0743471
0.0799772
0.0854941
0.0908918
0.0962001
0.101529
0.107092
0.113251
0.120869
0.00348815
0.0118871
0.0193271
0.0262291
0.0327251
0.0389694
0.0450639
0.0510601
0.0569801
0.0628254
0.068581
0.0742188
0.0796996
0.0849788
0.0900155
0.094802
0.0994441
0.104178
0.109465
0.116935
0.00152919
0.0117603
0.0195503
0.0265283
0.0329823
0.0391638
0.0452124
0.0511811
0.0570849
0.0629157
0.0686473
0.0742358
0.0796196
0.0847197
0.0894429
0.0937111
0.0975853
0.101122
0.104586
0.110599
0.00677479
0.0172934
0.022804
0.028348
0.034003
0.0397536
0.0455853
0.0514583
0.057335
0.0631781
0.0689415
0.0745616
0.0799473
0.0849677
0.0894346
0.0930821
0.0955617
0.0966268
0.0952937
0.0958495
0.011153
0.0163612
0.0218725
0.0275591
0.0333364
0.0391553
0.0449924
0.0508424
0.0567135
0.0626259
0.0686122
0.0747181
0.0810033
0.0875388
0.0944013
0.10166
0.109354
0.117467
0.125881
0.134358
0.0130018
0.0177743
0.0229073
0.0282936
0.0338509
0.0395216
0.0452692
0.0510754
0.0569363
0.0628612
0.0688712
0.0749986
0.0812856
0.0877809
0.0945343
0.101586
0.108953
0.116602
0.124436
0.132264
0.0136752
0.0182896
0.0232895
0.0285727
0.0340553
0.0396757
0.0453924
0.0511809
0.0570313
0.0629461
0.0689387
0.0750322
0.0812579
0.0876535
0.0942583
0.101108
0.108222
0.115588
0.123142
0.130739
0.0134471
0.0181066
0.0231567
0.028488
0.0340113
0.0396632
0.0454023
0.0512034
0.0570547
0.0629543
0.0689093
0.0749343
0.0810512
0.0872883
0.0936804
0.100267
0.107089
0.114174
0.121519
0.129055
0.0122588
0.0172105
0.0225173
0.0280583
0.0337395
0.0395038
0.045318
0.0511633
0.0570307
0.0629172
0.0688242
0.0747578
0.0807285
0.0867542
0.0928636
0.0991033
0.105541
0.112265
0.119364
0.126917
0.0100606
0.0156534
0.0214596
0.027375
0.033318
0.0392571
0.0451828
0.0510925
0.0569855
0.0628605
0.0687145
0.0745436
0.0803451
0.0861218
0.0918909
0.097699
0.103642
0.109873
0.11661
0.124207
0.00700652
0.0137149
0.0202599
0.0266655
0.032914
0.0390382
0.0450734
0.0510427
0.0569579
0.0628201
0.0686216
0.0743471
0.0799772
0.0854941
0.0908918
0.0962001
0.101529
0.107092
0.113251
0.120869
0.00348816
0.0118871
0.0193271
0.0262291
0.0327251
0.0389694
0.0450639
0.0510601
0.0569801
0.0628254
0.068581
0.0742188
0.0796996
0.0849788
0.0900155
0.094802
0.0994441
0.104178
0.109465
0.116935
0.0015292
0.0117603
0.0195503
0.0265283
0.0329823
0.0391638
0.0452124
0.0511811
0.0570849
0.0629157
0.0686473
0.0742358
0.0796196
0.0847197
0.0894429
0.0937111
0.0975853
0.101122
0.104586
0.110599
0.00677481
0.0172934
0.022804
0.028348
0.0340031
0.0397536
0.0455853
0.0514583
0.057335
0.0631781
0.0689415
0.0745616
0.0799473
0.0849677
0.0894346
0.0930821
0.0955617
0.0966268
0.0952937
0.0958495
0.0111794
0.0163797
0.0218848
0.0275669
0.0333412
0.0391583
0.0449945
0.0508442
0.0567154
0.0626283
0.0686153
0.0747222
0.0810083
0.0875447
0.0944077
0.101666
0.109358
0.117467
0.125873
0.134339
0.0129795
0.0177557
0.0228925
0.0282823
0.0338425
0.0395152
0.0452642
0.051071
0.0569321
0.0628567
0.0688663
0.0749932
0.0812799
0.0877758
0.0945309
0.101586
0.108959
0.116615
0.124459
0.132295
0.0136725
0.0182848
0.0232842
0.0285676
0.034051
0.0396723
0.0453897
0.0511788
0.0570297
0.0629449
0.0689377
0.0750313
0.0812573
0.0876532
0.0942587
0.101109
0.108225
0.115593
0.123148
0.130745
0.0134427
0.0180995
0.0231497
0.0284818
0.0340063
0.0396595
0.0453997
0.0512016
0.0570534
0.0629535
0.0689087
0.0749339
0.0810509
0.0872881
0.0936805
0.100268
0.10709
0.114177
0.121524
0.129061
0.012247
0.0171972
0.0225065
0.0280499
0.0337336
0.0394999
0.0453154
0.0511617
0.0570297
0.0629164
0.0688236
0.0747571
0.0807277
0.0867532
0.0928628
0.0991033
0.105542
0.112268
0.119375
0.126932
0.0100352
0.0156317
0.021446
0.0273658
0.0333126
0.0392543
0.0451814
0.0510918
0.0569852
0.0628604
0.0687144
0.0745433
0.0803445
0.0861209
0.0918898
0.0976983
0.103641
0.109875
0.116628
0.124245
0.00693897
0.0136703
0.0202392
0.0266547
0.0329094
0.0390368
0.0450733
0.051043
0.0569582
0.0628203
0.0686215
0.0743467
0.0799765
0.0854927
0.09089
0.0961992
0.101531
0.107097
0.113293
0.120973
0.00337342
0.0118404
0.0193176
0.0262255
0.0327255
0.0389714
0.0450657
0.0510616
0.0569814
0.0628264
0.0685819
0.0742195
0.0797
0.0849784
0.090014
0.0948015
0.0994455
0.104172
0.109503
0.117101
0.00138586
0.0118238
0.0196215
0.0265587
0.032998
0.0391734
0.0452184
0.0511857
0.0570893
0.0629207
0.0686533
0.0742429
0.0796276
0.0847273
0.0894472
0.09371
0.0975661
0.101034
0.104466
0.110778
0.00593495
0.0171504
0.0227936
0.0283251
0.0339881
0.0397465
0.0455813
0.0514555
0.0573325
0.0631753
0.0689381
0.0745572
0.0799421
0.084962
0.0894302
0.0930847
0.0955711
0.0965956
0.0953553
0.0969124
0.142495
0.149895
0.156119
0.160852
0.163929
0.165353
0.1653
0.164137
0.162417
0.16082
0.139828
0.146687
0.152527
0.15709
0.160236
0.161969
0.162436
0.161929
0.160784
0.159219
0.138115
0.144877
0.150685
0.15528
0.158523
0.160407
0.16106
0.160727
0.15959
0.157538
0.136544
0.143492
0.149508
0.154304
0.157723
0.159748
0.16049
0.160173
0.158881
0.156293
0.13476
0.142135
0.148567
0.153723
0.157424
0.159647
0.1605
0.160199
0.15878
0.15581
0.132745
0.140816
0.147866
0.153527
0.157607
0.160093
0.161102
0.160861
0.159398
0.156241
0.130698
0.139751
0.147569
0.153821
0.158328
0.161111
0.162318
0.162194
0.160784
0.157632
0.129061
0.139385
0.148022
0.154848
0.159737
0.162788
0.164194
0.164224
0.162953
0.159983
0.128076
0.140403
0.149812
0.15702
0.162087
0.165261
0.166796
0.166974
0.165899
0.163248
0.132463
0.146016
0.154593
0.161144
0.165754
0.168695
0.170181
0.170442
0.169575
0.167335
0.142528
0.149941
0.156174
0.160911
0.163988
0.165407
0.165344
0.164167
0.162434
0.160819
0.139791
0.146644
0.15248
0.15704
0.160188
0.161925
0.162399
0.161903
0.16078
0.159198
0.138116
0.144882
0.150691
0.155287
0.158529
0.160412
0.16106
0.160726
0.159608
0.157506
0.136551
0.143504
0.149522
0.154318
0.157737
0.159759
0.160494
0.160174
0.158908
0.156253
0.134768
0.142146
0.148579
0.153734
0.157433
0.159654
0.160499
0.160197
0.158813
0.155765
0.132755
0.140828
0.147878
0.153539
0.157616
0.160099
0.161101
0.16086
0.159434
0.156193
0.130721
0.139767
0.147583
0.153834
0.158337
0.161117
0.162316
0.162193
0.16082
0.157584
0.129202
0.139442
0.148046
0.154864
0.159744
0.162791
0.16419
0.164222
0.162987
0.159936
0.128404
0.14042
0.149789
0.157013
0.162081
0.165257
0.16679
0.166971
0.165928
0.163206
0.13235
0.145642
0.154427
0.161097
0.165735
0.168688
0.170177
0.17044
0.1696
0.1673
0.142528
0.149941
0.156174
0.160911
0.163988
0.165407
0.165344
0.164167
0.162434
0.160819
0.139791
0.146644
0.15248
0.15704
0.160188
0.161925
0.162399
0.161903
0.16078
0.159198
0.138116
0.144882
0.150691
0.155287
0.158529
0.160412
0.16106
0.160726
0.159608
0.157506
0.136551
0.143504
0.149522
0.154318
0.157737
0.159759
0.160494
0.160174
0.158908
0.156253
0.134768
0.142146
0.148579
0.153734
0.157433
0.159654
0.160499
0.160197
0.158813
0.155765
0.132755
0.140828
0.147878
0.153539
0.157616
0.160099
0.161101
0.16086
0.159434
0.156193
0.130721
0.139767
0.147583
0.153834
0.158337
0.161117
0.162316
0.162193
0.16082
0.157584
0.129202
0.139442
0.148046
0.154864
0.159744
0.162791
0.16419
0.164222
0.162987
0.159936
0.128404
0.14042
0.149789
0.157013
0.162081
0.165257
0.16679
0.166971
0.165928
0.163206
0.13235
0.145642
0.154427
0.161097
0.165735
0.168688
0.170177
0.17044
0.1696
0.1673
0.142495
0.149895
0.156119
0.160852
0.163929
0.165353
0.1653
0.164137
0.162417
0.16082
0.139828
0.146687
0.152527
0.15709
0.160236
0.161969
0.162436
0.161929
0.160784
0.159219
0.138115
0.144877
0.150685
0.15528
0.158523
0.160407
0.16106
0.160727
0.15959
0.157538
0.136544
0.143492
0.149508
0.154304
0.157723
0.159748
0.16049
0.160173
0.158881
0.156293
0.13476
0.142135
0.148567
0.153723
0.157424
0.159647
0.1605
0.160199
0.15878
0.15581
0.132745
0.140816
0.147866
0.153527
0.157607
0.160093
0.161102
0.160861
0.159398
0.156241
0.130698
0.139751
0.147569
0.153821
0.158328
0.161111
0.162318
0.162194
0.160784
0.157632
0.129061
0.139385
0.148022
0.154848
0.159737
0.162788
0.164194
0.164224
0.162953
0.159983
0.128076
0.140404
0.149812
0.15702
0.162087
0.165261
0.166796
0.166974
0.165899
0.163248
0.132463
0.146016
0.154593
0.161144
0.165754
0.168695
0.170181
0.170442
0.169575
0.167335
0.166689
0.162139
0.164138
0.167724
0.170848
0.173089
0.174311
0.174563
0.173886
0.172093
0.177844
0.172536
0.172577
0.174439
0.17644
0.178045
0.178983
0.179199
0.178694
0.177337
0.183422
0.180288
0.180023
0.18099
0.182248
0.18336
0.18405
0.184225
0.183869
0.182898
0.188881
0.18718
0.186901
0.187389
0.188163
0.188909
0.189398
0.189535
0.1893
0.188647
0.194467
0.193579
0.19338
0.193632
0.194106
0.194596
0.194933
0.195038
0.194897
0.194495
0.200155
0.199733
0.199623
0.199762
0.20005
0.200361
0.200584
0.200662
0.20059
0.20038
0.205947
0.205793
0.205751
0.205826
0.205987
0.206167
0.206299
0.206348
0.206324
0.206259
0.21183
0.211852
0.211844
0.211865
0.211922
0.211989
0.212034
0.212045
0.212046
0.212095
0.217833
0.217962
0.217959
0.217914
0.217863
0.217809
0.217755
0.217709
0.217712
0.217843
0.223992
0.224183
0.224149
0.224006
0.223817
0.223614
0.22343
0.223298
0.223272
0.223454
0.230374
0.230576
0.230461
0.230171
0.229792
0.229389
0.229029
0.228767
0.228673
0.228862
0.237072
0.237206
0.236943
0.236434
0.235794
0.235122
0.234522
0.234073
0.233859
0.233993
0.244202
0.244145
0.243634
0.242816
0.241825
0.240801
0.239884
0.239181
0.238775
0.23876
0.251908
0.251451
0.250558
0.249321
0.247879
0.246414
0.245102
0.244068
0.243382
0.24308
0.260369
0.259135
0.257691
0.255916
0.25393
0.251951
0.250176
0.24874
0.24767
0.246883
0.269697
0.267166
0.264917
0.262493
0.259909
0.257395
0.255136
0.253245
0.251671
0.250153
0.279949
0.275211
0.271892
0.268786
0.265657
0.2627
0.260031
0.257696
0.255507
0.252937
0.290803
0.28251
0.277913
0.274273
0.270856
0.267756
0.264929
0.262279
0.259406
0.255407
0.302245
0.288077
0.281808
0.278011
0.274895
0.272298
0.269872
0.267261
0.263743
0.257911
0.313247
0.288335
0.28038
0.277828
0.276516
0.27576
0.274816
0.272982
0.269088
0.261052
0.167529
0.162283
0.164252
0.167792
0.170873
0.173101
0.174316
0.174566
0.173908
0.172067
0.177987
0.172473
0.172623
0.174484
0.176461
0.178058
0.17899
0.179203
0.178712
0.177319
0.183432
0.180218
0.180033
0.181011
0.182262
0.183371
0.184057
0.18423
0.183883
0.182886
0.188903
0.18715
0.186905
0.1874
0.188172
0.188917
0.189404
0.18954
0.18931
0.18864
0.194481
0.193565
0.19338
0.193637
0.194112
0.194602
0.194938
0.195042
0.194904
0.194491
0.200161
0.199726
0.199622
0.199764
0.200053
0.200365
0.200588
0.200665
0.200594
0.200379
0.205949
0.205791
0.20575
0.205826
0.205989
0.206169
0.206301
0.206349
0.206325
0.206259
0.21183
0.211853
0.211843
0.211864
0.211923
0.21199
0.212035
0.212046
0.212045
0.212096
0.217831
0.217965
0.217959
0.217914
0.217863
0.21781
0.217756
0.21771
0.217709
0.217846
0.223989
0.224187
0.224149
0.224005
0.223817
0.223614
0.223431
0.223298
0.223268
0.223457
0.230369
0.230581
0.230461
0.23017
0.229791
0.229389
0.229029
0.228767
0.228669
0.228867
0.237066
0.237211
0.236942
0.236432
0.235793
0.235122
0.234522
0.234074
0.233855
0.233998
0.244196
0.244147
0.243632
0.242814
0.241824
0.2408
0.239884
0.239182
0.238773
0.238765
0.251904
0.251446
0.250555
0.249318
0.247877
0.246413
0.245102
0.24407
0.243384
0.243084
0.260369
0.259117
0.257685
0.255912
0.253926
0.251949
0.250176
0.248743
0.247679
0.246884
0.26971
0.267128
0.264909
0.26249
0.259905
0.257393
0.255136
0.25325
0.251693
0.250148
0.280001
0.275142
0.271886
0.268785
0.265652
0.262698
0.260031
0.257704
0.255546
0.252923
0.290869
0.282336
0.277889
0.274271
0.270848
0.267755
0.264931
0.262292
0.25947
0.255379
0.302361
0.287753
0.281813
0.278053
0.27491
0.272311
0.269881
0.267282
0.263842
0.257862
0.314577
0.288443
0.280675
0.278012
0.276584
0.275793
0.274832
0.273012
0.26923
0.260976
0.167529
0.162283
0.164252
0.167792
0.170873
0.173101
0.174316
0.174566
0.173908
0.172067
0.177987
0.172473
0.172623
0.174484
0.176461
0.178058
0.17899
0.179203
0.178712
0.177319
0.183432
0.180218
0.180033
0.181011
0.182262
0.183371
0.184057
0.18423
0.183883
0.182886
0.188903
0.18715
0.186905
0.1874
0.188172
0.188917
0.189404
0.18954
0.18931
0.18864
0.194481
0.193565
0.19338
0.193637
0.194112
0.194602
0.194938
0.195042
0.194904
0.194491
0.200161
0.199726
0.199622
0.199764
0.200053
0.200365
0.200588
0.200665
0.200594
0.200379
0.205949
0.205791
0.20575
0.205826
0.205989
0.206169
0.206301
0.206349
0.206325
0.206259
0.21183
0.211853
0.211843
0.211864
0.211923
0.21199
0.212035
0.212046
0.212045
0.212096
0.217831
0.217965
0.217959
0.217914
0.217863
0.21781
0.217756
0.21771
0.217709
0.217846
0.223989
0.224187
0.224149
0.224005
0.223817
0.223614
0.223431
0.223298
0.223268
0.223457
0.230369
0.230581
0.230461
0.23017
0.229791
0.229389
0.229029
0.228767
0.228669
0.228867
0.237066
0.237211
0.236942
0.236432
0.235793
0.235122
0.234522
0.234074
0.233855
0.233998
0.244196
0.244147
0.243632
0.242814
0.241824
0.2408
0.239884
0.239182
0.238773
0.238765
0.251904
0.251446
0.250555
0.249318
0.247877
0.246413
0.245102
0.24407
0.243384
0.243084
0.260369
0.259117
0.257685
0.255912
0.253926
0.251949
0.250176
0.248743
0.247679
0.246884
0.26971
0.267128
0.264909
0.26249
0.259905
0.257393
0.255136
0.25325
0.251693
0.250148
0.280001
0.275142
0.271886
0.268785
0.265652
0.262698
0.260031
0.257704
0.255546
0.252923
0.290869
0.282336
0.277889
0.274271
0.270848
0.267755
0.264931
0.262292
0.25947
0.255379
0.302361
0.287753
0.281813
0.278053
0.27491
0.272311
0.269881
0.267282
0.263842
0.257862
0.314578
0.288443
0.280675
0.278012
0.276584
0.275793
0.274832
0.273012
0.26923
0.260976
0.166689
0.162139
0.164138
0.167724
0.170848
0.173089
0.174311
0.174563
0.173886
0.172093
0.177844
0.172536
0.172577
0.174439
0.17644
0.178045
0.178983
0.179199
0.178694
0.177337
0.183422
0.180288
0.180023
0.18099
0.182248
0.18336
0.18405
0.184225
0.183869
0.182898
0.188881
0.18718
0.186901
0.187389
0.188163
0.188909
0.189398
0.189535
0.1893
0.188647
0.194467
0.193579
0.19338
0.193632
0.194106
0.194596
0.194933
0.195038
0.194897
0.194495
0.200155
0.199733
0.199623
0.199762
0.20005
0.200361
0.200584
0.200662
0.20059
0.20038
0.205947
0.205793
0.205751
0.205826
0.205987
0.206167
0.206299
0.206348
0.206324
0.206259
0.21183
0.211852
0.211844
0.211865
0.211922
0.211989
0.212034
0.212045
0.212046
0.212095
0.217833
0.217962
0.217959
0.217914
0.217863
0.217809
0.217755
0.217709
0.217712
0.217843
0.223992
0.224183
0.224149
0.224006
0.223817
0.223614
0.22343
0.223298
0.223272
0.223454
0.230374
0.230576
0.230461
0.230171
0.229792
0.229389
0.229029
0.228767
0.228673
0.228862
0.237072
0.237206
0.236943
0.236434
0.235794
0.235122
0.234522
0.234073
0.233859
0.233993
0.244202
0.244145
0.243634
0.242816
0.241825
0.240801
0.239884
0.239181
0.238775
0.23876
0.251908
0.251451
0.250558
0.249321
0.247879
0.246414
0.245102
0.244068
0.243382
0.24308
0.260369
0.259135
0.257691
0.255916
0.25393
0.251951
0.250176
0.24874
0.24767
0.246883
0.269697
0.267166
0.264917
0.262493
0.259909
0.257395
0.255136
0.253245
0.251671
0.250153
0.279949
0.275211
0.271892
0.268786
0.265657
0.2627
0.260031
0.257696
0.255507
0.252937
0.290803
0.28251
0.277913
0.274273
0.270856
0.267756
0.264929
0.262279
0.259406
0.255407
0.302245
0.288077
0.281808
0.278011
0.274895
0.272298
0.269872
0.267261
0.263743
0.257911
0.313247
0.288335
0.28038
0.277828
0.276516
0.27576
0.274816
0.272982
0.269088
0.261052
0.252784
0.261396
0.26663
0.270731
0.274293
0.27754
0.279754
0.279934
0.276292
0.265819
0.22366
0.239472
0.250699
0.26025
0.269335
0.277989
0.285069
0.288905
0.286625
0.273784
0.206184
0.221511
0.234873
0.248376
0.262843
0.277819
0.291471
0.301053
0.301921
0.287403
0.192676
0.206514
0.220712
0.237143
0.256587
0.278417
0.300271
0.318141
0.324874
0.31062
0.182848
0.195506
0.210184
0.228951
0.252957
0.281922
0.313519
0.342743
0.359464
0.349899
0.176953
0.1893
0.204811
0.225903
0.254357
0.290755
0.333694
0.378152
0.411276
0.415346
0.174802
0.187895
0.204999
0.228903
0.262151
0.306614
0.362859
0.427577
0.486811
0.52128
0.175511
0.190084
0.209348
0.236485
0.27495
0.328384
0.400451
0.491231
0.591017
0.694873
0.17745
0.193144
0.213847
0.243031
0.285116
0.345997
0.433984
0.557305
0.726142
1.00599
0.178806
0.194007
0.213522
0.240727
0.280313
0.339631
0.432674
0.586965
0.873326
1.49044
0.253124
0.260932
0.266503
0.270721
0.274291
0.277548
0.279758
0.279967
0.276488
0.265707
0.224079
0.239398
0.250634
0.260216
0.269313
0.277983
0.285061
0.288942
0.286888
0.273631
0.206439
0.221529
0.234841
0.248335
0.262803
0.277792
0.29144
0.301087
0.302261
0.287208
0.192765
0.206499
0.22066
0.237074
0.256513
0.27835
0.300196
0.318156
0.325285
0.310382
0.182875
0.195472
0.210114
0.228854
0.252843
0.2818
0.31338
0.342719
0.359897
0.349644
0.17696
0.189262
0.204731
0.225783
0.254199
0.290555
0.333452
0.378034
0.411631
0.415298
0.174817
0.187873
0.204931
0.22878
0.261954
0.306302
0.362427
0.427242
0.486788
0.52177
0.175554
0.190118
0.20937
0.236486
0.274898
0.328183
0.400073
0.490884
0.589719
0.694554
0.177518
0.193257
0.214031
0.243322
0.285547
0.346557
0.434726
0.557907
0.72291
1.0037
0.178856
0.194045
0.213541
0.24073
0.280325
0.339706
0.433031
0.587399
0.869637
1.4997
0.253124
0.260932
0.266503
0.270721
0.274291
0.277548
0.279758
0.279967
0.276488
0.265707
0.224079
0.239398
0.250634
0.260216
0.269313
0.277983
0.285061
0.288942
0.286888
0.273631
0.206439
0.221529
0.234841
0.248335
0.262803
0.277792
0.29144
0.301087
0.302261
0.287208
0.192765
0.206499
0.22066
0.237074
0.256513
0.27835
0.300196
0.318156
0.325285
0.310382
0.182875
0.195472
0.210114
0.228854
0.252843
0.2818
0.31338
0.342719
0.359897
0.349644
0.17696
0.189262
0.204731
0.225783
0.254199
0.290555
0.333452
0.378034
0.411631
0.415298
0.174817
0.187873
0.204931
0.22878
0.261954
0.306302
0.362427
0.427242
0.486788
0.52177
0.175554
0.190118
0.20937
0.236486
0.274898
0.328183
0.400073
0.490884
0.589719
0.694554
0.177518
0.193257
0.214031
0.243322
0.285547
0.346557
0.434726
0.557907
0.72291
1.0037
0.178856
0.194045
0.213541
0.24073
0.280325
0.339706
0.433031
0.587399
0.869637
1.4997
0.252784
0.261396
0.26663
0.270731
0.274293
0.27754
0.279754
0.279934
0.276292
0.265819
0.22366
0.239472
0.250699
0.26025
0.269335
0.277989
0.285069
0.288905
0.286625
0.273784
0.206184
0.221511
0.234873
0.248376
0.262843
0.277819
0.291471
0.301053
0.301921
0.287403
0.192676
0.206514
0.220712
0.237143
0.256587
0.278417
0.300271
0.318141
0.324874
0.31062
0.182848
0.195506
0.210185
0.228951
0.252957
0.281922
0.313519
0.342743
0.359464
0.349899
0.176953
0.1893
0.204811
0.225903
0.254357
0.290755
0.333694
0.378152
0.411276
0.415346
0.174802
0.187895
0.204999
0.228903
0.262151
0.306614
0.362859
0.427577
0.486811
0.52128
0.175511
0.190084
0.209348
0.236485
0.27495
0.328384
0.400451
0.491231
0.591017
0.694873
0.17745
0.193144
0.213847
0.243031
0.285116
0.345997
0.433984
0.557305
0.726142
1.00599
0.178806
0.194007
0.213522
0.240727
0.280313
0.339631
0.432674
0.586965
0.873326
1.49044
-0.153723
-0.133059
-0.11502
-0.0983818
-0.0817668
-0.064968
-0.0479772
-0.0308296
-0.0135858
0.00368297
0.0209003
0.0379942
0.0548984
0.071564
0.0880177
0.104447
0.121336
0.139723
0.162909
0.200668
-0.139771
-0.126288
-0.111768
-0.0965176
-0.0805877
-0.064188
-0.0474536
-0.0304816
-0.0133562
0.00384788
0.0210653
0.0382376
0.0553252
0.0723312
0.0893276
0.106521
0.124308
0.143311
0.16504
0.192946
-0.136565
-0.124571
-0.110871
-0.0960133
-0.0803182
-0.0640497
-0.047381
-0.0304341
-0.0133028
0.00393794
0.0212274
0.0385166
0.0557721
0.0729874
0.0902011
0.10753
0.125187
0.143466
0.162921
0.184458
-0.137757
-0.125455
-0.111577
-0.0965859
-0.0807872
-0.0644218
-0.047659
-0.030619
-0.0133899
0.00396185
0.021383
0.0388285
0.0562579
0.0736357
0.0909349
0.108143
0.125262
0.142293
0.159291
0.176361
-0.140456
-0.127477
-0.113109
-0.0977375
-0.0816461
-0.0650508
-0.0481034
-0.0309086
-0.0135396
0.00395028
0.0215171
0.0391174
0.0566985
0.0741899
0.0914937
0.108479
0.124974
0.140773
0.155705
0.169731
-0.142887
-0.129291
-0.114456
-0.0987216
-0.0823541
-0.0655486
-0.0484388
-0.0311133
-0.0136314
0.00396417
0.0216355
0.0393368
0.0570012
0.0745256
0.0917555
0.108484
0.124428
0.139302
0.152896
0.16527
-0.143392
-0.129556
-0.114585
-0.098772
-0.0823582
-0.0655242
-0.0483944
-0.0310513
-0.0135504
0.00406693
0.0217605
0.0394774
0.0571369
0.0746134
0.0917224
0.108216
0.123797
0.138182
0.151232
0.163163
-0.141092
-0.127613
-0.113025
-0.0975614
-0.0814408
-0.0648393
-0.0478868
-0.0306757
-0.013272
0.00427162
0.0219037
0.039559
0.0571444
0.0745232
0.0915041
0.107843
0.12327
0.137566
0.150694
0.163015
-0.135999
-0.123654
-0.110041
-0.095368
-0.07986
-0.063717
-0.0470997
-0.0301304
-0.0129018
0.00451238
0.0220453
0.0396162
0.0571229
0.0744274
0.0913452
0.107652
0.123116
0.137573
0.151059
0.164001
-0.127745
-0.117695
-0.10584
-0.0924682
-0.0778954
-0.062408
-0.0462414
-0.0295779
-0.0125547
0.00472242
0.0221633
0.0396858
0.057187
0.0745314
0.0915445
0.108014
0.123713
0.138465
0.15226
0.165419
-0.154105
-0.132941
-0.115005
-0.0984041
-0.0817795
-0.0649756
-0.0479825
-0.030833
-0.0135876
0.0036826
0.0209009
0.037995
0.0548983
0.071561
0.0880079
0.104427
0.121313
0.139674
0.162579
0.200068
-0.139713
-0.126118
-0.11169
-0.0964807
-0.0805613
-0.0641695
-0.047441
-0.030473
-0.0133506
0.00385128
0.0210677
0.0382404
0.0553304
0.072342
0.0893469
0.106553
0.124367
0.143382
0.16494
0.192688
-0.136625
-0.124545
-0.110847
-0.095995
-0.0803034
-0.0640391
-0.0473736
-0.0304289
-0.0132992
0.00394033
0.0212289
0.0385175
0.0557728