/*--------------------------------*- C++ -*----------------------------------*\
| =========                 |                                                 |
| \\      /  F ield         | OpenFOAM: The Open Source CFD Toolbox           |
|  \\    /   O peration     | Version:  2.4.0                                 |
|   \\  /    A nd           | Web:      www.OpenFOAM.org                      |
|    \\/     M anipulation  |                                                 |
\*---------------------------------------------------------------------------*/
FoamFile
{
    version     2.0;
    format      ascii;
    class       surfaceScalarField;
    location    "3.6";
    object      phi;
}
// * * * * * * * * * * * * * * * * * * * * * * * * * * * * * * * * * * * * * //

dimensions      [0 3 -1 0 0 0 0];

internalField   nonuniform List<scalar> 
12720
(
1.54685e-07
-1.54192e-07
3.76252e-10
-5.41116e-07
6.93953e-07
1.85092e-09
-2.06816e-06
1.5244e-06
2.63863e-09
-4.17957e-06
2.10807e-06
3.34738e-09
-6.63917e-06
2.45583e-06
3.77322e-09
-9.25232e-06
2.6092e-06
3.94837e-09
-1.18588e-05
2.60248e-06
3.95668e-09
-1.43196e-05
2.45707e-06
3.79951e-09
-1.65137e-05
2.19058e-06
3.44992e-09
1.83181e-06
2.88402e-09
-1.83483e-05
-7.25318e-07
5.72459e-07
-1.32886e-09
-3.29456e-06
3.26272e-06
4.74909e-10
-7.49631e-06
5.72762e-06
-1.46484e-09
-1.29064e-05
7.52048e-06
-2.36571e-09
-1.90763e-05
8.62856e-06
-2.81805e-09
-2.55871e-05
9.1231e-06
-3.10158e-09
-3.2059e-05
9.07751e-06
-3.11448e-09
-3.81495e-05
8.5505e-06
-2.89687e-09
-4.35635e-05
7.60706e-06
-2.54128e-09
6.35552e-06
-2.19274e-09
-4.8085e-05
-1.69248e-06
2.26739e-06
-2.44969e-09
-6.12966e-06
7.69759e-06
2.30781e-09
-1.2716e-05
1.23138e-05
1.34444e-10
-2.08559e-05
1.56604e-05
-7.56029e-11
-2.99628e-05
1.77354e-05
1.29746e-10
-3.94787e-05
1.86388e-05
1.17605e-10
-4.88757e-05
1.84744e-05
1.26714e-10
-5.76605e-05
1.73351e-05
1.8437e-10
-6.53983e-05
1.53446e-05
2.5213e-10
1.27264e-05
1.55042e-10
-7.17693e-05
-2.48716e-06
4.75816e-06
-3.60898e-09
-8.50624e-06
1.37134e-05
3.21851e-09
-1.70721e-05
2.08797e-05
5.32756e-12
-2.74005e-05
2.59891e-05
-2.70961e-10
-3.87909e-05
2.91257e-05
9.29866e-11
-5.0588e-05
3.04358e-05
1.32291e-10
-6.21582e-05
3.00445e-05
1.71609e-10
-7.2886e-05
2.80627e-05
2.772e-10
-8.22045e-05
2.46626e-05
4.77208e-10
2.01982e-05
4.20293e-10
-8.96767e-05
-3.0493e-06
7.81189e-06
-4.42468e-09
-1.02251e-05
2.08855e-05
3.7759e-09
-2.0239e-05
3.0894e-05
-4.13629e-10
-3.21485e-05
3.78995e-05
-9.18082e-10
-4.51637e-05
4.21415e-05
-5.55791e-10
-5.85618e-05
4.38344e-05
-5.32543e-10
-7.16316e-05
4.31148e-05
-4.76682e-10
-8.36502e-05
4.00815e-05
-2.80385e-10
-9.3904e-05
3.4916e-05
3.00685e-10
2.8079e-05
5.89217e-10
-0.000101785
-3.35461e-06
1.11713e-05
-4.79371e-09
-1.11803e-05
2.8707e-05
4.18409e-09
-2.20151e-05
4.17293e-05
-5.45537e-10
-3.48184e-05
5.0704e-05
-1.17078e-09
-4.8747e-05
5.60709e-05
-8.14029e-10
-6.30414e-05
5.81296e-05
-8.10977e-10
-7.69426e-05
5.70167e-05
-7.94277e-10
-8.96374e-05
5.27769e-05
-6.39655e-10
-0.000100243
4.55214e-05
5.17768e-10
3.57084e-05
1.63898e-09
-0.000107874
-3.39383e-06
1.45705e-05
-5.39943e-09
-1.13214e-05
3.66303e-05
4.3114e-09
-2.22867e-05
5.26952e-05
-5.83054e-10
-3.52213e-05
6.36399e-05
-1.28182e-09
-4.92689e-05
7.01194e-05
-9.80158e-10
-6.36681e-05
7.25299e-05
-1.01966e-09
-7.76522e-05
7.1002e-05
-1.1312e-09
-9.03579e-05
6.54839e-05
-1.35699e-09
-0.000100737
5.58994e-05
6.79112e-10
4.24301e-05
4.16269e-09
-0.000107462
-3.17393e-06
1.77489e-05
-4.42987e-09
-1.06548e-05
4.41071e-05
4.11626e-09
-2.10388e-05
6.30797e-05
-5.3634e-10
-3.32904e-05
7.58928e-05
-1.24858e-09
-4.65693e-05
8.33993e-05
-1.02378e-09
-6.01371e-05
8.60987e-05
-1.04323e-09
-7.32622e-05
8.41283e-05
-1.18316e-09
-8.51035e-05
7.73274e-05
-2.09949e-09
-9.45335e-05
6.53273e-05
2.0043e-09
4.7491e-05
1.44917e-08
-9.96088e-05
-2.72552e-06
2.04781e-05
-3.72083e-09
-9.26533e-06
5.06431e-05
3.72004e-09
-1.84012e-05
7.22159e-05
-3.73081e-10
-2.91651e-05
8.66578e-05
-1.04764e-09
-4.07309e-05
9.49661e-05
-9.62895e-10
-5.23665e-05
9.77352e-05
-1.04412e-09
-6.33748e-05
9.5138e-05
-1.40361e-09
-7.29901e-05
8.69476e-05
-4.91137e-09
-8.02255e-05
7.25642e-05
-1.46225e-09
4.97949e-05
3.25319e-08
-8.25619e-05
-2.11298e-06
-2.70379e-09
2.25938e-05
-7.34223e-06
3.20868e-09
5.58692e-05
-1.47069e-05
-6.36847e-11
7.95806e-05
-2.33102e-05
-5.97966e-10
9.52617e-05
-3.22958e-05
-6.35951e-10
0.000103952
-4.08348e-05
-9.33282e-10
0.000106275
-4.81057e-05
-1.9821e-09
0.000102411
-5.31891e-05
-1.22239e-08
9.20432e-05
-5.49738e-05
-2.85884e-08
7.43776e-05
9.80225e-09
-5.22858e-05
4.7097e-05
1.5581e-07
-1.55517e-07
8.76244e-11
-5.41822e-07
6.99421e-07
5.96134e-11
-2.06893e-06
1.52971e-06
3.5092e-11
-4.17971e-06
2.11411e-06
1.91635e-11
-6.63903e-06
2.46308e-06
1.00757e-11
-9.25216e-06
2.61708e-06
4.65411e-12
-1.18587e-05
2.6105e-06
1.42425e-12
-1.43197e-05
2.46484e-06
-1.63655e-13
-1.6514e-05
2.19773e-06
-7.46699e-13
1.8378e-06
-9.80261e-13
-1.83489e-05
-7.30077e-07
5.73169e-07
5.93079e-11
-3.30022e-06
3.27e-06
4.47567e-11
-7.50131e-06
5.7293e-06
2.81949e-11
-1.29098e-05
7.5202e-06
1.63439e-11
-1.90779e-05
8.62837e-06
8.76729e-12
-2.55871e-05
9.12321e-06
3.72241e-12
-3.20578e-05
9.07805e-06
8.67569e-13
-3.81475e-05
8.55162e-06
-4.56307e-13
-4.35611e-05
7.60878e-06
-1.03585e-12
6.35711e-06
-1.26232e-12
-4.80826e-05
-1.69791e-06
2.26859e-06
3.53144e-11
-6.13042e-06
7.70479e-06
2.86122e-11
-1.27168e-05
1.23158e-05
1.93009e-11
-2.08569e-05
1.56602e-05
1.15344e-11
-2.99634e-05
1.7735e-05
5.92545e-12
-3.94787e-05
1.86386e-05
2.29891e-12
-4.88753e-05
1.84748e-05
2.74241e-13
-5.76598e-05
1.73364e-05
-6.91071e-13
-6.53978e-05
1.5347e-05
-1.11445e-12
1.27286e-05
-1.24272e-12
-7.17691e-05
-2.49401e-06
4.75897e-06
1.97591e-11
-8.50511e-06
1.37191e-05
1.70317e-11
-1.70709e-05
2.08815e-05
1.20143e-11
-2.74002e-05
2.59893e-05
6.93505e-12
-3.87907e-05
2.91256e-05
3.35794e-12
-5.05878e-05
3.04358e-05
1.12391e-12
-6.21579e-05
3.0045e-05
-2.09005e-13
-7.28857e-05
2.80644e-05
-8.60339e-13
-8.22047e-05
2.46666e-05
-1.12097e-12
2.02021e-05
-1.16976e-12
-8.96779e-05
-3.05786e-06
7.81239e-06
1.08984e-11
-1.02237e-05
2.08887e-05
9.02476e-12
-2.02374e-05
3.08948e-05
6.27887e-12
-3.2148e-05
3.7899e-05
3.26645e-12
-4.51636e-05
4.21406e-05
1.29291e-12
-5.85618e-05
4.38335e-05
9.56559e-14
-7.16314e-05
4.31142e-05
-7.23301e-13
-8.36496e-05
4.00823e-05
-1.10165e-12
-9.39042e-05
3.49214e-05
-1.23777e-12
2.80862e-05
-1.24603e-12
-0.000101788
-3.36415e-06
1.11717e-05
5.30956e-12
-1.11788e-05
2.87076e-05
4.19323e-12
-2.20134e-05
4.17289e-05
2.63868e-12
-3.48183e-05
5.07027e-05
9.4511e-13
-4.87474e-05
5.6069e-05
5.62286e-14
-6.30422e-05
5.81275e-05
-6.57853e-13
-7.69431e-05
5.70143e-05
-1.11057e-12
-8.96368e-05
5.27753e-05
-1.30292e-12
-0.000100243
4.55285e-05
-1.34284e-12
3.5723e-05
-1.31176e-12
-0.000107878
-3.40374e-06
1.45701e-05
1.93581e-12
-1.13201e-05
3.66282e-05
1.46288e-12
-2.22853e-05
5.26935e-05
5.38393e-13
-3.52217e-05
6.36379e-05
-2.89767e-13
-4.92703e-05
7.01166e-05
-7.74121e-13
-6.36703e-05
7.25264e-05
-1.13516e-12
-7.76544e-05
7.09973e-05
-1.33364e-12
-9.03578e-05
6.54774e-05
-1.37986e-12
-0.000100735
5.59067e-05
-1.35594e-12
4.24625e-05
-1.36187e-12
-0.000107471
-3.18288e-06
1.77485e-05
4.48068e-13
-1.06535e-05
4.41029e-05
-6.09302e-14
-2.10377e-05
6.30771e-05
-4.14751e-13
-3.32915e-05
7.58904e-05
-9.60137e-13
-4.6572e-05
8.3396e-05
-1.22153e-12
-6.0141e-05
8.60944e-05
-1.34977e-12
-7.32666e-05
8.41216e-05
-1.41169e-12
-8.51036e-05
7.73123e-05
-1.32702e-12
-9.45208e-05
6.53258e-05
-1.26515e-12
4.75737e-05
-1.40147e-12
-9.96175e-05
-2.73297e-06
2.04778e-05
-4.15654e-13
-9.26402e-06
5.06377e-05
-5.15487e-13
-1.84004e-05
7.22132e-05
-8.70734e-13
-2.91669e-05
8.66559e-05
-1.25926e-12
-4.07356e-05
9.49637e-05
-1.34092e-12
-5.23748e-05
9.77326e-05
-1.39909e-12
-6.33891e-05
9.51345e-05
-1.35293e-12
-7.30097e-05
8.6928e-05
-1.05353e-12
-8.02014e-05
7.25161e-05
-8.7806e-13
4.99125e-05
-1.2185e-12
-8.25077e-05
-2.11838e-06
-6.89057e-13
2.25935e-05
-7.34062e-06
-8.39865e-13
5.58632e-05
-1.47055e-05
-1.11255e-12
7.9578e-05
-2.3311e-05
-1.26063e-12
9.52609e-05
-3.23005e-05
-1.30666e-12
0.000103953
-4.08466e-05
-1.35434e-12
0.000106278
-4.81344e-05
-1.18882e-12
0.00010242
-5.32775e-05
-6.42573e-13
9.20589e-05
-5.5115e-05
-3.32097e-13
7.43249e-05
-1.02938e-12
-5.2057e-05
4.68643e-05
1.55742e-07
-1.55586e-07
-6.84539e-11
-5.41861e-07
6.994e-07
-1.73874e-09
-2.06895e-06
1.52971e-06
-2.58473e-09
-4.17971e-06
2.11411e-06
-3.31886e-09
-6.63903e-06
2.46308e-06
-3.75894e-09
-9.25216e-06
2.61708e-06
-3.94191e-09
-1.18587e-05
2.6105e-06
-3.95457e-09
-1.43197e-05
2.46484e-06
-3.7996e-09
-1.6514e-05
2.19773e-06
-3.45095e-09
1.8378e-06
-2.88529e-09
-1.83489e-05
-7.30097e-07
5.7313e-07
1.44062e-09
-3.30024e-06
3.26999e-06
-4.03697e-10
-7.50131e-06
5.7293e-06
1.50745e-09
-1.29098e-05
7.5202e-06
2.38924e-09
-1.90779e-05
8.62838e-06
2.83003e-09
-2.55871e-05
9.12321e-06
3.10679e-09
-3.20578e-05
9.07805e-06
3.11576e-09
-3.81475e-05
8.55162e-06
2.89627e-09
-4.35611e-05
7.60878e-06
2.53987e-09
6.35711e-06
2.19109e-09
-4.80826e-05
-1.69791e-06
2.26857e-06
2.50325e-09
-6.13042e-06
7.70479e-06
-2.26546e-09
-1.27168e-05
1.23158e-05
-1.06829e-10
-2.08568e-05
1.56602e-05
9.11626e-11
-2.99633e-05
1.7735e-05
-1.2175e-10
-3.94787e-05
1.86387e-05
-1.14543e-10
-4.88752e-05
1.84748e-05
-1.26483e-10
-5.76598e-05
1.73364e-05
-1.85532e-10
-6.53978e-05
1.53471e-05
-2.53835e-10
1.27286e-05
-1.56861e-10
-7.17691e-05
-2.49401e-06
4.75896e-06
3.63766e-09
-8.5051e-06
1.37191e-05
-3.19484e-09
-1.70709e-05
2.08815e-05
1.13731e-11
-2.74002e-05
2.59893e-05
2.80411e-10
-3.87907e-05
2.91256e-05
-8.83603e-11
-5.05878e-05
3.04358e-05
-1.30877e-10
-6.21579e-05
3.0045e-05
-1.71918e-10
-7.28857e-05
2.80644e-05
-2.78412e-10
-8.22047e-05
2.46666e-05
-4.78829e-10
2.02021e-05
-4.21995e-10
-8.96779e-05
-3.05786e-06
7.81239e-06
4.43904e-09
-1.02237e-05
2.08887e-05
-3.76364e-09
-2.02374e-05
3.08948e-05
4.22587e-10
-3.2148e-05
3.7899e-05
9.22579e-10
-4.51636e-05
4.21406e-05
5.57554e-10
-5.85618e-05
4.38335e-05
5.32666e-10
-7.16314e-05
4.31142e-05
4.75656e-10
-8.36496e-05
4.00823e-05
2.78784e-10
-9.39041e-05
3.49214e-05
-3.0249e-10
2.80862e-05
-5.90935e-10
-0.000101788
-3.36415e-06
1.11717e-05
4.80074e-09
-1.11788e-05
2.87076e-05
-4.17856e-09
-2.20134e-05
4.17289e-05
5.49535e-10
-3.48183e-05
5.07027e-05
1.1722e-09
-4.87474e-05
5.6069e-05
8.13921e-10
-6.30422e-05
5.81275e-05
8.09961e-10
-7.69431e-05
5.70143e-05
7.92613e-10
-8.96368e-05
5.27753e-05
6.37736e-10
-0.000100243
4.55285e-05
-5.19686e-10
3.5723e-05
-1.64067e-09
-0.000107878
-3.40374e-06
1.45701e-05
5.40032e-09
-1.13201e-05
3.66282e-05
-4.30976e-09
-2.22853e-05
5.26935e-05
5.84168e-10
-3.52217e-05
6.36379e-05
1.28134e-09
-4.92703e-05
7.01166e-05
9.78946e-10
-6.36703e-05
7.25264e-05
1.01796e-09
-7.76544e-05
7.09973e-05
1.12925e-09
-9.03578e-05
6.54774e-05
1.35498e-09
-0.000100735
5.59067e-05
-6.81036e-10
4.24625e-05
-4.16436e-09
-0.000107471
-3.18288e-06
1.77485e-05
4.43007e-09
-1.06535e-05
4.41029e-05
-4.11627e-09
-2.10377e-05
6.30772e-05
5.35952e-10
-3.32915e-05
7.58905e-05
1.2472e-09
-4.6572e-05
8.3396e-05
1.02193e-09
-6.0141e-05
8.60944e-05
1.04126e-09
-7.32666e-05
8.41216e-05
1.18117e-09
-8.51036e-05
7.73123e-05
2.09756e-09
-9.45208e-05
6.53258e-05
-2.00614e-09
4.75737e-05
-1.44932e-08
-9.96175e-05
-2.73297e-06
2.04778e-05
3.72019e-09
-9.26402e-06
5.06377e-05
-3.72086e-09
-1.84004e-05
7.22132e-05
3.7197e-10
-2.91669e-05
8.66559e-05
1.04575e-09
-4.07356e-05
9.49638e-05
9.6086e-10
-5.23748e-05
9.77326e-05
1.04214e-09
-6.33891e-05
9.51345e-05
1.40174e-09
-7.30097e-05
8.6928e-05
4.90974e-09
-8.02014e-05
7.25161e-05
1.46078e-09
4.99125e-05
-3.25327e-08
-8.25077e-05
-2.11838e-06
2.70267e-09
2.25935e-05
-7.34062e-06
-3.20992e-09
5.58632e-05
-1.47055e-05
6.21065e-11
7.9578e-05
-2.3311e-05
5.96034e-10
9.52609e-05
-3.23005e-05
6.3402e-10
0.000103953
-4.08466e-05
9.31368e-10
0.000106278
-4.81344e-05
1.9804e-09
0.00010242
-5.32775e-05
1.22227e-08
9.20589e-05
-5.5115e-05
2.85868e-08
7.43249e-05
-9.80381e-09
-5.2057e-05
4.68643e-05
1.54404e-07
-1.54473e-07
-5.41227e-07
6.9389e-07
-2.0682e-06
1.52439e-06
-4.17959e-06
2.10807e-06
-6.63917e-06
2.45583e-06
-9.25231e-06
2.6092e-06
-1.18587e-05
2.60248e-06
-1.43196e-05
2.45707e-06
-1.65136e-05
2.19058e-06
1.83181e-06
-1.83483e-05
-7.25382e-07
5.72349e-07
-3.29459e-06
3.2627e-06
-7.49631e-06
5.72762e-06
-1.29063e-05
7.52049e-06
-1.90762e-05
8.62856e-06
-2.5587e-05
9.1231e-06
-3.2059e-05
9.07751e-06
-3.81495e-05
8.55051e-06
-4.35634e-05
7.60706e-06
6.35552e-06
-4.8085e-05
-1.69249e-06
2.26735e-06
-6.12965e-06
7.69759e-06
-1.2716e-05
1.23138e-05
-2.08558e-05
1.56604e-05
-2.99628e-05
1.77354e-05
-3.94787e-05
1.86388e-05
-4.88757e-05
1.84744e-05
-5.76605e-05
1.73351e-05
-6.53983e-05
1.53446e-05
1.27264e-05
-7.17693e-05
-2.48716e-06
4.75815e-06
-8.50623e-06
1.37135e-05
-1.70721e-05
2.08797e-05
-2.74005e-05
2.59891e-05
-3.87909e-05
2.91257e-05
-5.05879e-05
3.04358e-05
-6.21582e-05
3.00445e-05
-7.2886e-05
2.80627e-05
-8.22044e-05
2.46626e-05
2.01982e-05
-8.96767e-05
-3.0493e-06
7.81189e-06
-1.02251e-05
2.08855e-05
-2.0239e-05
3.0894e-05
-3.21485e-05
3.78995e-05
-4.51637e-05
4.21415e-05
-5.85618e-05
4.38344e-05
-7.16316e-05
4.31148e-05
-8.36502e-05
4.00815e-05
-9.39039e-05
3.4916e-05
2.8079e-05
-0.000101785
-3.35461e-06
1.11713e-05
-1.11803e-05
2.8707e-05
-2.20151e-05
4.17294e-05
-3.48184e-05
5.0704e-05
-4.8747e-05
5.60709e-05
-6.30414e-05
5.81297e-05
-7.69426e-05
5.70167e-05
-8.96374e-05
5.27769e-05
-0.000100243
4.55214e-05
3.57084e-05
-0.000107874
-3.39383e-06
1.45705e-05
-1.13214e-05
3.66303e-05
-2.22867e-05
5.26952e-05
-3.52213e-05
6.36399e-05
-4.92689e-05
7.01194e-05
-6.36681e-05
7.25299e-05
-7.76522e-05
7.1002e-05
-9.03579e-05
6.54839e-05
-0.000100737
5.58994e-05
4.24302e-05
-0.000107462
-3.17393e-06
1.77489e-05
-1.06548e-05
4.41071e-05
-2.10388e-05
6.30797e-05
-3.32904e-05
7.58928e-05
-4.65693e-05
8.33993e-05
-6.01371e-05
8.60987e-05
-7.32622e-05
8.41283e-05
-8.51035e-05
7.73274e-05
-9.45335e-05
6.53274e-05
4.7491e-05
-9.96088e-05
-2.72552e-06
2.04781e-05
-9.26532e-06
5.06432e-05
-1.84012e-05
7.22159e-05
-2.91651e-05
8.66578e-05
-4.07309e-05
9.49661e-05
-5.23665e-05
9.77353e-05
-6.33747e-05
9.5138e-05
-7.299e-05
8.69476e-05
-8.02254e-05
7.25642e-05
4.97949e-05
-8.25619e-05
-2.11298e-06
2.25938e-05
-7.34223e-06
5.58692e-05
-1.47069e-05
7.95806e-05
-2.33102e-05
9.52617e-05
-3.22958e-05
0.000103952
-4.08348e-05
0.000106275
-4.81057e-05
0.000102411
-5.31891e-05
9.20432e-05
-5.49738e-05
7.43776e-05
-5.22858e-05
4.7097e-05
-1.97821e-05
1.43158e-06
2.17033e-09
-2.08362e-05
1.05255e-06
1.51967e-09
-2.15733e-05
7.36178e-07
1.00733e-09
-2.20709e-05
4.96869e-07
6.37121e-10
-2.24021e-05
3.30812e-07
3.92111e-10
-2.26282e-05
2.259e-07
2.44616e-10
-2.27971e-05
1.68751e-07
1.67988e-10
-2.29454e-05
1.48117e-07
1.41939e-10
-2.31011e-05
1.55597e-07
1.53055e-10
-2.32861e-05
1.84793e-07
1.92604e-10
-2.35161e-05
2.29703e-07
2.54435e-10
-2.37991e-05
2.82729e-07
3.3216e-10
-2.4132e-05
3.32472e-07
4.159e-10
-2.44941e-05
3.61614e-07
4.89474e-10
-2.48401e-05
3.45429e-07
5.26016e-10
-2.50926e-05
2.52005e-07
4.82077e-10
-2.51397e-05
4.68715e-08
3.03206e-10
-2.48369e-05
-3.02783e-07
-4.40495e-11
-2.40315e-05
-8.04768e-07
-6.5547e-10
-1.4336e-06
-1.57639e-09
-2.25963e-05
-5.16255e-05
4.97402e-06
-1.9399e-09
-5.4245e-05
3.67367e-06
-1.62004e-09
-5.60976e-05
2.59007e-06
-1.28222e-09
-5.73678e-05
1.76805e-06
-9.80672e-10
-5.82293e-05
1.19304e-06
-7.346e-10
-5.88267e-05
8.23891e-07
-5.53644e-10
-5.92728e-05
6.15259e-07
-4.37406e-10
-5.96526e-05
5.28306e-07
-3.78631e-10
-6.00295e-05
5.32825e-07
-3.66681e-10
-6.04489e-05
6.04616e-07
-3.89371e-10
-6.09393e-05
7.20497e-07
-4.31971e-10
-6.15083e-05
8.52193e-07
-4.74808e-10
-6.21351e-05
9.59857e-07
-4.91212e-10
-6.27592e-05
9.86162e-07
-4.45727e-10
-6.32663e-05
8.52775e-07
-2.94682e-10
-6.34767e-05
4.62416e-07
7.62874e-12
-6.31416e-05
-2.88739e-07
4.91169e-10
-6.19604e-05
-1.48516e-06
1.14456e-09
-5.96199e-05
-3.14721e-06
1.92743e-09
-5.18056e-06
2.66391e-09
-5.58756e-05
-7.6656e-05
9.86097e-06
-2.38873e-10
-8.01904e-05
7.20845e-06
-4.16693e-10
-8.26381e-05
5.03823e-06
-4.57544e-10
-8.42872e-05
3.41758e-06
-4.35535e-10
-8.53903e-05
2.29655e-06
-3.72687e-10
-8.61462e-05
1.58009e-06
-2.98118e-10
-8.67025e-05
1.1718e-06
-2.30391e-10
-8.71661e-05
9.92057e-07
-1.76763e-10
-8.76132e-05
9.80036e-07
-1.38136e-10
-8.80958e-05
1.08741e-06
-1.1182e-10
-8.86438e-05
1.26855e-06
-9.34773e-11
-8.92606e-05
1.4691e-06
-7.74697e-11
-8.99149e-05
1.61415e-06
-5.69415e-11
-9.05262e-05
1.59751e-06
-2.3436e-11
-9.09483e-05
1.27485e-06
3.41721e-11
-9.09524e-05
4.66416e-07
1.25198e-10
-9.02192e-05
-1.02218e-06
2.44457e-10
-8.8352e-05
-3.3528e-06
3.84147e-10
-8.49254e-05
-6.57433e-06
5.2808e-10
-1.05171e-05
4.49528e-10
-7.95893e-05
-9.51569e-05
1.53416e-05
-3.80064e-10
-9.89134e-05
1.09656e-05
-6.13332e-10
-0.000101377
7.5029e-06
-6.0998e-10
-0.000102955
4.99601e-06
-5.42883e-10
-0.000103964
3.30567e-06
-4.32582e-10
-0.000104628
2.24473e-06
-3.20531e-10
-0.000105101
1.64431e-06
-2.27457e-10
-0.000105483
1.37443e-06
-1.56789e-10
-0.000105843
1.34056e-06
-1.06498e-10
-0.000106226
1.47063e-06
-7.25912e-11
-0.000106657
1.69896e-06
-5.0834e-11
-0.000107137
1.94899e-06
-3.7337e-11
-0.000107638
2.1157e-06
-2.8509e-11
-0.00010809
2.04888e-06
-1.87618e-11
-0.000108355
1.54013e-06
6.04684e-12
-0.000108209
3.20738e-07
6.15679e-11
-0.000107317
-1.91492e-06
1.30529e-10
-0.00010522
-5.44922e-06
2.60684e-10
-0.000101377
-1.04182e-05
5.09738e-10
-1.66236e-05
4.50205e-10
-9.5271e-05
-0.000107085
2.0642e-05
-1.03399e-09
-0.000110331
1.42133e-05
-1.15998e-09
-0.000112214
9.38687e-06
-9.40867e-10
-0.000113276
6.05858e-06
-7.36318e-10
-0.000113874
3.90427e-06
-5.18988e-10
-0.000114223
2.59396e-06
-3.41471e-10
-0.000114446
1.86724e-06
-2.18294e-10
-0.000114613
1.54126e-06
-1.38698e-10
-0.000114764
1.49251e-06
-9.08519e-11
-0.000114927
1.63291e-06
-6.53988e-11
-0.000115114
1.88638e-06
-5.58264e-11
-0.000115331
2.16643e-06
-5.78891e-11
-0.000115569
2.35341e-06
-6.8498e-11
-0.000115791
2.27122e-06
-8.14312e-11
-0.000115916
1.66468e-06
-7.20823e-11
-0.000115778
1.8285e-07
-5.80565e-12
-0.000115085
-2.60796e-06
6.33437e-11
-0.00011336
-7.17465e-06
2.56867e-10
-0.000109919
-1.38599e-05
8.96995e-10
-2.25831e-05
1.28688e-09
-0.000103961
-0.000112135
2.49047e-05
-2.20691e-09
-0.00011408
1.61602e-05
-1.88554e-09
-0.000114799
1.01069e-05
-1.1829e-09
-0.000114964
6.2242e-06
-7.92487e-10
-0.000114917
3.85769e-06
-4.66665e-10
-0.000114807
2.48475e-06
-2.46421e-10
-0.000114689
1.74908e-06
-1.22118e-10
-0.000114574
1.42671e-06
-5.61786e-11
-0.000114462
1.37996e-06
-2.40265e-11
-0.000114348
1.51895e-06
-1.17788e-11
-0.000114233
1.77181e-06
-1.25136e-11
-0.000114126
2.05927e-06
-2.38517e-11
-0.000114042
2.26954e-06
-4.60393e-11
-0.000114001
2.23005e-06
-7.81854e-11
-0.00011401
1.67375e-06
-9.72689e-11
-0.000114026
1.98831e-07
-5.85005e-11
-0.00011388
-2.75332e-06
-3.16374e-11
-0.000113158
-7.89714e-06
1.41651e-10
-0.000111047
-1.59727e-05
1.54343e-09
-2.73525e-05
3.26866e-09
-0.00010628
-0.000109631
2.70792e-05
-5.86973e-09
-0.000109421
1.59542e-05
-3.88033e-09
-0.000108487
9.17472e-06
-1.79542e-09
-0.000107534
5.27146e-06
-9.36124e-10
-0.000106767
3.09112e-06
-3.9809e-10
-0.000106192
1.91006e-06
-1.23295e-10
-0.000105752
1.3097e-06
-1.51266e-11
-0.000105385
1.05935e-06
2.03933e-11
-0.000105038
1.03264e-06
2.47394e-11
-0.000104675
1.15593e-06
1.4828e-11
-0.000104279
1.37613e-06
-3.64754e-12
-0.000103857
1.63714e-06
-3.01861e-11
-0.000103445
1.85735e-06
-6.61343e-11
-0.000103116
1.90189e-06
-1.14803e-10
-0.000102985
1.54235e-06
-1.51902e-10
-0.000103179
3.93448e-07
-7.82225e-11
-0.000103763
-2.17015e-06
9.26632e-11
-0.000104548
-7.11197e-06
4.6654e-10
-0.000104737
-1.5788e-05
3.73266e-09
-2.96871e-05
8.98359e-09
-0.000102411
-9.82074e-05
2.56878e-05
-9.96928e-09
-9.50381e-05
1.2789e-05
-4.05757e-09
-9.22775e-05
6.41488e-06
-8.26074e-10
-9.03167e-05
3.31096e-06
-3.13592e-10
-8.90153e-05
1.78973e-06
4.03834e-11
-8.8152e-05
1.0466e-06
1.65031e-10
-8.75413e-05
6.98817e-07
1.56317e-10
-8.70493e-05
5.67218e-07
1.28735e-10
-8.6584e-05
5.67248e-07
1.0676e-10
-8.60847e-05
6.56515e-07
9.13166e-11
-8.55174e-05
8.08745e-07
7.86247e-11
-8.48783e-05
9.97982e-07
6.26902e-11
-8.42054e-05
1.18446e-06
3.4109e-11
-8.3599e-05
1.29549e-06
-3.35019e-11
-8.32483e-05
1.19182e-06
-1.32454e-10
-8.34543e-05
5.99433e-07
-4.35829e-11
-8.45929e-05
-1.03162e-06
1.23826e-10
-8.6979e-05
-4.72546e-06
-4.63348e-10
-9.02795e-05
-1.24908e-05
3.29861e-09
-2.79445e-05
1.43511e-08
-9.20364e-05
-7.50036e-05
1.8142e-05
-1.24525e-08
-6.86918e-05
6.47158e-06
5.51659e-09
-6.48056e-05
2.52253e-06
6.18182e-09
-6.25661e-05
1.06883e-06
2.64302e-09
-6.12756e-05
4.9782e-07
1.36867e-09
-6.04967e-05
2.66883e-07
8.31546e-10
-5.99743e-05
1.75898e-07
5.23838e-10
-5.95578e-05
1.50352e-07
3.97643e-10
-5.91536e-05
1.62613e-07
3.82454e-10
-5.86997e-05
2.02223e-07
4.30378e-10
-5.81562e-05
2.64686e-07
5.16333e-10
-5.75052e-05
3.46377e-07
6.18576e-10
-5.67621e-05
4.40665e-07
6.98914e-10
-5.59991e-05
5.31854e-07
6.59204e-10
-5.53893e-05
5.81601e-07
3.74138e-10
-5.52907e-05
5.00922e-07
-9.03655e-11
-5.62863e-05
-3.43321e-08
-1.66382e-09
-5.94184e-05
-1.58562e-06
-7.68228e-09
-6.57793e-05
-6.11953e-06
-1.04333e-08
-1.93763e-05
1.55048e-08
-7.4363e-05
-3.40747e-05
-6.9117e-08
-2.75913e-05
-1.17745e-08
-2.50679e-05
-8.56671e-10
-2.39972e-05
-1.89126e-09
-2.34982e-05
-1.22958e-09
-2.32307e-05
-5.78418e-10
-2.30545e-05
-3.27844e-10
-2.29039e-05
-2.32872e-10
-2.27411e-05
-2.06785e-10
-2.25386e-05
-2.27687e-10
-2.22737e-05
-2.81763e-10
-2.19269e-05
-3.55551e-10
-2.14858e-05
-4.30042e-10
-2.09535e-05
-4.7167e-10
-2.03715e-05
-3.64129e-10
-1.98708e-05
2.08466e-10
-1.99059e-05
7.70835e-10
-2.1489e-05
-2.55957e-09
-2.76136e-05
5.07053e-09
8.74656e-08
-4.70773e-05
-1.97827e-05
1.4359e-06
-1.04941e-12
-2.08366e-05
1.05547e-06
-9.36134e-13
-2.15737e-05
7.38067e-07
-7.67959e-13
-2.20711e-05
4.98028e-07
-6.18949e-13
-2.24022e-05
3.31507e-07
-4.65892e-13
-2.26283e-05
2.26333e-07
-3.68692e-13
-2.27972e-05
1.69063e-07
-3.40081e-13
-2.29454e-05
1.48408e-07
-2.45636e-13
-2.31012e-05
1.55935e-07
-2.30765e-13
-2.32863e-05
1.85227e-07
-1.45463e-13
-2.35163e-05
2.30269e-07
-1.59741e-14
-2.37994e-05
2.83444e-07
1.43892e-14
-2.41323e-05
3.33329e-07
1.18798e-14
-2.44944e-05
3.62569e-07
1.02153e-14
-2.48402e-05
3.46391e-07
-6.82584e-15
-2.50926e-05
2.52833e-07
-1.08598e-14
-2.51394e-05
4.712e-08
4.1067e-15
-2.48365e-05
-3.02998e-07
1.69421e-14
-2.4031e-05
-8.06078e-07
2.75174e-14
-1.43662e-06
6.33541e-14
-2.2596e-05
-5.16229e-05
4.97429e-06
-1.23311e-12
-5.42424e-05
3.67332e-06
-1.06025e-12
-5.60952e-05
2.58962e-06
-8.82293e-13
-5.73658e-05
1.76765e-06
-7.17994e-13
-5.82278e-05
1.19274e-06
-5.44015e-13
-5.88257e-05
8.23694e-07
-4.16923e-13
-5.92722e-05
6.15135e-07
-4.33466e-13
-5.96524e-05
5.28218e-07
-3.44182e-13
-6.00296e-05
5.32736e-07
-1.91703e-13
-6.04492e-05
6.04487e-07
-8.71099e-14
-6.09397e-05
7.20289e-07
-5.09186e-15
-6.15086e-05
8.5187e-07
-1.90815e-15
-6.21351e-05
9.59394e-07
-7.93564e-16
-6.27586e-05
9.85569e-07
-2.13122e-18
-6.32646e-05
8.52133e-07
-1.15264e-14
-6.34737e-05
4.619e-07
-8.60456e-15
-6.31372e-05
-2.88888e-07
-9.80085e-15
-6.19546e-05
-1.48438e-06
3.36773e-15
-5.96136e-05
-3.14521e-06
5.01485e-14
-5.178e-06
1.29475e-13
-5.58695e-05
-7.66552e-05
9.86006e-06
-1.17092e-12
-8.01888e-05
7.20658e-06
-1.02246e-12
-8.26362e-05
5.03658e-06
-8.67214e-13
-8.42854e-05
3.41635e-06
-7.1594e-13
-8.53888e-05
2.29575e-06
-5.6194e-13
-8.6145e-05
1.57964e-06
-4.2661e-13
-8.67016e-05
1.17156e-06
-3.23858e-13
-8.71655e-05
9.91929e-07
-1.97736e-13
-8.76129e-05
9.7993e-07
-1.28423e-13
-8.80957e-05
1.08726e-06
-9.70045e-14
-8.86438e-05
1.26827e-06
-5.555e-14
-8.92606e-05
1.46862e-06
-1.4299e-14
-8.99147e-05
1.61342e-06
2.96651e-14
-9.05257e-05
1.59652e-06
4.2297e-14
-9.09472e-05
1.27371e-06
7.31906e-15
-9.09506e-05
4.65383e-07
-4.34605e-14
-9.02166e-05
-1.02268e-06
-6.20608e-14
-8.83486e-05
-3.35193e-06
-3.37485e-14
-8.49221e-05
-6.57121e-06
1.10896e-14
-1.0513e-05
5.80885e-14
-7.95866e-05
-9.51565e-05
1.53383e-05
-1.11109e-12
-9.89117e-05
1.09611e-05
-9.79859e-13
-0.000101375
7.49956e-06
-8.15255e-13
-0.000102953
4.99375e-06
-6.73503e-13
-0.000103962
3.30433e-06
-5.01729e-13
-0.000104627
2.24403e-06
-3.36939e-13
-0.0001051
1.64399e-06
-2.42414e-13
-0.000105482
1.37431e-06
-2.28803e-13
-0.000105843
1.34049e-06
-1.66986e-13
-0.000106226
1.47052e-06
-7.69413e-14
-0.000106657
1.69872e-06
5.39421e-15
-0.000107137
1.94851e-06
4.82204e-14
-0.000107638
2.1149e-06
8.55371e-14
-0.000108089
2.0477e-06
5.53449e-14
-0.000108354
1.53866e-06
-1.05177e-14
-0.000108208
3.19367e-07
-4.17407e-14
-0.000107315
-1.91593e-06
-1.34951e-14
-0.000105218
-5.44848e-06
7.66822e-15
-0.000101375
-1.04137e-05
9.02766e-15
-1.66174e-05
-2.3806e-14
-9.52702e-05
-0.000107084
2.06334e-05
-1.15306e-12
-0.000110328
1.42044e-05
-9.60613e-13
-0.000112211
9.38142e-06
-7.3854e-13
-0.000113273
6.05536e-06
-5.97479e-13
-0.000113872
3.90257e-06
-4.56501e-13
-0.000114222
2.5932e-06
-3.27943e-13
-0.000114445
1.86696e-06
-2.50108e-13
-0.000114612
1.54119e-06
-2.19711e-13
-0.000114764
1.4925e-06
-1.93297e-13
-0.000114926
1.63284e-06
-1.44674e-13
-0.000115114
1.88617e-06
-7.91402e-14
-0.000115331
2.16595e-06
-4.76843e-15
-0.000115569
2.35256e-06
-5.60872e-15
-0.000115791
2.26987e-06
-4.11846e-14
-0.000115915
1.66284e-06
-5.68553e-14
-0.000115777
1.81193e-07
-1.29204e-14
-0.000115083
-2.60978e-06
3.3695e-14
-0.000113357
-7.17445e-06
5.22488e-14
-0.000109917
-1.38532e-05
3.73275e-14
-2.2572e-05
1.27769e-14
-0.000103961
-0.000112132
2.48844e-05
-1.15531e-12
-0.000114074
1.61448e-05
-8.43251e-13
-0.000114794
1.00999e-05
-5.74701e-13
-0.00011496
6.22092e-06
-5.06664e-13
-0.000114914
3.85633e-06
-4.0019e-13
-0.000114806
2.48434e-06
-2.29892e-13
-0.000114688
1.74905e-06
-1.67654e-13
-0.000114574
1.42681e-06
-1.66379e-13
-0.000114461
1.38005e-06
-1.82659e-13
-0.000114347
1.51896e-06
-1.43663e-13
-0.000114233
1.77167e-06
-9.14841e-14
-0.000114126
2.05886e-06
-8.21127e-14
-0.000114042
2.26873e-06
-8.43203e-14
-0.000114001
2.22868e-06
-6.54241e-14
-0.00011401
1.67168e-06
-2.99857e-14
-0.000114025
1.96802e-07
-1.25948e-14
-0.000113879
-2.75633e-06
-1.51861e-14
-0.000113155
-7.89847e-06
-1.61571e-14
-0.000111044
-1.59626e-05
-4.9579e-14
-2.73294e-05
-1.19045e-13
-0.000106283
-0.000109623
2.70313e-05
-1.2303e-12
-0.000109411
1.59282e-05
-8.47286e-13
-0.00010848
9.16774e-06
-5.20671e-13
-0.00010753
5.26952e-06
-5.23177e-13
-0.000106765
3.09083e-06
-4.27143e-13
-0.000106191
1.91032e-06
-2.44881e-13
-0.000105752
1.31002e-06
-1.4351e-13
-0.000105385
1.05959e-06
-1.27103e-13
-0.000105037
1.03277e-06
-1.24671e-13
-0.000104674
1.15595e-06
-1.26348e-13
-0.000104279
1.37599e-06
-1.28174e-13
-0.000103857
1.63676e-06
-1.07184e-13
-0.000103444
1.8566e-06
-5.4029e-14
-0.000103116
1.90051e-06
-1.58408e-14
-0.000102985
1.54013e-06
-3.73999e-14
-0.000103179
3.90784e-07
-1.17193e-13
-0.000103761
-2.17426e-06
-1.67075e-13
-0.000104544
-7.11512e-06
-1.27925e-13
-0.000104732
-1.57706e-05
-4.812e-14
-2.96321e-05
-6.20155e-14
-0.00010242
-9.81928e-05
2.55967e-05
-1.47423e-12
-9.50276e-05
1.27589e-05
-9.8522e-13
-9.22739e-05
6.41327e-06
-6.4215e-13
-9.03163e-05
3.31164e-06
-7.39571e-13
-8.90158e-05
1.79035e-06
-6.39787e-13
-8.81525e-05
1.04714e-06
-4.30233e-13
-8.75415e-05
6.99162e-07
-2.48591e-13
-8.70491e-05
5.67404e-07
-1.84096e-13
-8.65836e-05
5.67335e-07
-1.93651e-13
-8.60841e-05
6.56528e-07
-2.00861e-13
-8.55167e-05
8.08677e-07
-1.76046e-13
-8.48777e-05
9.97797e-07
-1.1096e-13
-8.42051e-05
1.18408e-06
-4.07958e-14
-8.35994e-05
1.29472e-06
-6.14529e-14
-8.32497e-05
1.19034e-06
-1.82873e-13
-8.34562e-05
5.97216e-07
-3.18058e-13
-8.45965e-05
-1.03379e-06
-2.51519e-13
-8.69816e-05
-4.7305e-06
2.20314e-13
-9.02772e-05
-1.24717e-05
6.33185e-13
-2.78429e-05
5.28101e-13
-9.20521e-05
-7.49849e-05
1.80615e-05
-1.23676e-12
-6.86993e-05
6.47878e-06
-7.01579e-13
-6.48143e-05
2.53447e-06
3.24974e-14
-6.25725e-05
1.07247e-06
-3.60402e-13
-6.12793e-05
4.98532e-07
-5.79446e-13
-6.04984e-05
2.67123e-07
-4.55911e-13
-5.99749e-05
1.76096e-07
-3.12426e-13
-5.95577e-05
1.506e-07
-2.50017e-13
-5.91529e-05
1.62967e-07
-2.50737e-13
-5.86987e-05
2.02738e-07
-2.43396e-13
-5.81549e-05
2.65424e-07
-2.10746e-13
-5.75039e-05
3.47418e-07
-1.10052e-13
-5.67612e-05
4.42101e-07
-6.56329e-14
-5.59997e-05
5.33805e-07
-1.30878e-13
-5.5393e-05
5.84021e-07
-2.6642e-13
-5.5297e-05
5.01156e-07
-2.87874e-13
-5.63014e-05
-3.10722e-08
2.15601e-13
-5.94449e-05
-1.59464e-06
1.08827e-12
-6.57953e-05
-6.13185e-06
1.43983e-12
-1.93122e-05
5.0944e-13
-7.43104e-05
-3.40646e-05
-1.28986e-12
-2.75976e-05
-8.903e-13
-2.5064e-05
1.19146e-13
-2.39934e-05
1.43549e-14
-2.34961e-05
-2.8403e-13
-2.32295e-05
-3.42761e-13
-2.30538e-05
-2.83652e-13
-2.29034e-05
-2.53761e-13
-2.27406e-05
-2.48969e-13
-2.25381e-05
-2.35099e-13
-2.2273e-05
-1.60449e-13
-2.19259e-05
-5.29788e-14
-2.14843e-05
-3.03057e-14
-2.09509e-05
-9.46254e-14
-2.03673e-05
-1.89332e-13
-1.98659e-05
-1.18841e-14
-1.98962e-05
6.08594e-13
-2.14934e-05
1.43026e-12
-2.76202e-05
3.95801e-13
-7.68429e-13
-4.68449e-05
-1.97827e-05
1.4359e-06
-2.17156e-09
-2.08366e-05
1.05547e-06
-1.52072e-09
-2.15737e-05
7.38067e-07
-1.00818e-09
-2.20711e-05
4.98028e-07
-6.37835e-10
-2.24022e-05
3.31507e-07
-3.9268e-10
-2.26283e-05
2.26333e-07
-2.4501e-10
-2.27972e-05
1.69063e-07
-1.68265e-10
-2.29454e-05
1.48408e-07
-1.42252e-10
-2.31012e-05
1.55935e-07
-1.5329e-10
-2.32863e-05
1.85227e-07
-1.92693e-10
-2.35163e-05
2.30269e-07
-2.54458e-10
-2.37994e-05
2.83444e-07
-3.32057e-10
-2.41323e-05
3.33329e-07
-4.15708e-10
-2.44944e-05
3.62569e-07
-4.8927e-10
-2.48402e-05
3.46391e-07
-5.25845e-10
-2.50926e-05
2.52833e-07
-4.81956e-10
-2.51394e-05
4.712e-08
-3.03093e-10
-2.48365e-05
-3.02998e-07
4.41899e-11
-2.4031e-05
-8.06078e-07
6.55604e-10
-1.43662e-06
1.57649e-09
-2.2596e-05
-5.16229e-05
4.97429e-06
1.93834e-09
-5.42424e-05
3.67332e-06
1.61868e-09
-5.60952e-05
2.58962e-06
1.28106e-09
-5.73658e-05
1.76765e-06
9.79726e-10
-5.82278e-05
1.19274e-06
7.33861e-10