/*--------------------------------*- C++ -*----------------------------------*\
| =========                 |                                                 |
| \\      /  F ield         | OpenFOAM: The Open Source CFD Toolbox           |
|  \\    /   O peration     | Version:  2.4.0                                 |
|   \\  /    A nd           | Web:      www.OpenFOAM.org                      |
|    \\/     M anipulation  |                                                 |
\*---------------------------------------------------------------------------*/
FoamFile
{
    version     2.0;
    format      ascii;
    class       volVectorField;
    location    "3.6";
    object      U;
}
// * * * * * * * * * * * * * * * * * * * * * * * * * * * * * * * * * * * * * //

dimensions      [0 1 -1 0 0 0 0];

internalField   nonuniform List<vector> 
4800
(
(0.000306664 -0.000309557 7.35255e-07)
(1.73481e-05 0.000157488 0.000218526)
(-0.00184531 0.000665218 0.000446394)
(-0.00483891 0.00100838 0.000615202)
(-0.00856706 0.00120309 0.000681013)
(-0.0126881 0.00128713 0.000623425)
(-0.0169185 0.00128805 0.000436149)
(-0.0210201 0.00121976 0.000119701)
(-0.0247827 0.00108965 -0.000319882)
(-0.0280292 0.000909789 -0.000869671)
(-0.000182776 -1.76919e-05 -0.000215793)
(-0.00248451 0.00239472 6.54773e-06)
(-0.00806966 0.00474749 0.000175557)
(-0.0159493 0.00644407 0.000276292)
(-0.0253785 0.00747867 0.000290627)
(-0.0356774 0.0079443 0.000202616)
(-0.0462053 0.00792767 5.55215e-06)
(-0.056381 0.00748906 -0.000302945)
(-0.0656858 0.0066842 -0.000721565)
(-0.0736931 0.00560301 -0.00124377)
(-0.000779403 0.00197383 -0.000448941)
(-0.00521833 0.0080995 -0.00015531)
(-0.0143081 0.0135532 1.45988e-05)
(-0.0263658 0.0175423 9.36698e-05)
(-0.0403876 0.0200255 9.0516e-05)
(-0.0555013 0.0211332 -3.73434e-06)
(-0.0708372 0.0210083 -0.000193389)
(-0.0855705 0.0197743 -0.0004823)
(-0.0989423 0.0175793 -0.000873633)
(-0.110316 0.0146745 -0.00136707)
(-0.00125806 0.00539336 -0.000607076)
(-0.00750017 0.0166162 -0.000227045)
(-0.0195523 0.0258961 -3.31065e-05)
(-0.0350215 0.0325921 4.80876e-05)
(-0.0526637 0.0367369 4.7251e-05)
(-0.0714721 0.0385181 -3.84705e-05)
(-0.0904208 0.0381211 -0.000211681)
(-0.108502 0.0357171 -0.00047885)
(-0.124747 0.0315496 -0.000849431)
(-0.138297 0.0260749 -0.00133183)
(-0.00158634 0.00990842 -0.000615195)
(-0.00913198 0.0273396 -0.000160127)
(-0.0233623 0.0409808 5.94336e-05)
(-0.0413169 0.0506293 0.000153205)
(-0.0615553 0.0565199 0.000168)
(-0.0829752 0.0589332 0.000104496)
(-0.104444 0.058083 -4.07788e-05)
(-0.124812 0.0541512 -0.000279815)
(-0.14291 0.0474416 -0.000632227)
(-0.157583 0.0386168 -0.00112205)
(-0.00175804 0.0151265 -0.000423628)
(-0.0100252 0.0395308 8.73712e-05)
(-0.02549 0.0579113 0.000328205)
(-0.0448555 0.0706768 0.000441888)
(-0.066559 0.0783596 0.000484857)
(-0.0894453 0.0813665 0.000458602)
(-0.112325 0.0799212 0.000355528)
(-0.133955 0.0741585 0.000154224)
(-0.152979 0.0643536 -0.000180719)
(-0.167827 0.0512903 -0.000703967)
(-0.00177329 0.0206227 -8.33625e-06)
(-0.0101438 0.0523324 0.00053647)
(-0.0258101 0.0756213 0.000791001)
(-0.0453979 0.0915718 0.000929778)
(-0.067308 0.101062 0.00101288)
(-0.0903785 0.104645 0.00104055)
(-0.11342 0.102539 0.000998053)
(-0.13517 0.0947534 0.000850683)
(-0.154176 0.0813779 0.000541356)
(-0.168307 0.063046 -4.60506e-05)
(-0.00163943 0.0259684 0.000631107)
(-0.0095043 0.0648502 0.00118766)
(-0.0243253 0.0929687 0.00144703)
(-0.0428919 0.112037 0.00161448)
(-0.0636386 0.123276 0.0017489)
(-0.0854241 0.127403 0.00184869)
(-0.107101 0.124623 0.00189056)
(-0.127485 0.114764 0.0018245)
(-0.145258 0.0975157 0.00157107)
(-0.157692 0.0727527 0.000896596)
(-0.00137639 0.0307628 0.00147243)
(-0.00819544 0.0762276 0.00202141)
(-0.0212145 0.108822 0.00227653)
(-0.0375709 0.130748 0.00247381)
(-0.0557599 0.143518 0.00266757)
(-0.0746332 0.148021 0.00285569)
(-0.0930506 0.144505 0.00300713)
(-0.10992 0.132653 0.00305592)
(-0.124445 0.111711 0.00291237)
(-0.133737 0.0799488 0.00213663)
(-0.00102385 0.03468 0.00247306)
(-0.00640349 0.0857445 0.00300066)
(-0.0168921 0.122183 0.00324263)
(-0.0300822 0.146458 0.00346669)
(-0.0445054 0.160251 0.00372136)
(-0.0588916 0.164584 0.00400897)
(-0.0718897 0.159796 0.0043003)
(-0.0821086 0.145566 0.00452547)
(-0.089258 0.121003 0.00465258)
(-0.0923273 0.0834002 0.00405657)
(0.000311478 -0.000314243 3.37305e-07)
(2.42571e-05 0.000151584 1.48521e-06)
(-0.00184164 0.000651229 2.08097e-06)
(-0.00483631 0.000988633 2.6217e-06)
(-0.00856557 0.00118018 2.94682e-06)
(-0.0126875 0.00126267 3.07924e-06)
(-0.0169187 0.00126354 3.08327e-06)
(-0.0210212 0.00119656 2.95961e-06)
(-0.0247849 0.00106886 2.68683e-06)
(-0.0280325 0.000892061 2.24582e-06)
(-0.000175419 -2.52283e-05 -9.91915e-07)
(-0.00248151 0.00239271 4.01527e-07)
(-0.00807721 0.00473627 -1.11871e-06)
(-0.0159541 0.00642771 -1.82776e-06)
(-0.0253808 0.00746047 -2.18504e-06)
(-0.0356781 0.00792525 -2.40937e-06)
(-0.0462042 0.00790875 -2.42152e-06)
(-0.0563789 0.00747132 -2.2533e-06)
(-0.0656837 0.00666852 -1.9772e-06)
(-0.0736919 0.00558944 -1.70633e-06)
(-0.000763383 0.00196819 -1.8824e-06)
(-0.00520705 0.00810608 1.8159e-06)
(-0.0143151 0.0135563 1.1894e-07)
(-0.026368 0.0175455 -4.99972e-08)
(-0.0403876 0.0200306 1.05645e-07)
(-0.0555011 0.0211394 9.3455e-08)
(-0.0708363 0.0210149 9.90014e-08)
(-0.0855692 0.0197811 1.43076e-07)
(-0.0989419 0.0175862 1.95411e-07)
(-0.110318 0.0146802 1.19758e-07)
(-0.00123506 0.00538849 -2.79649e-06)
(-0.0074838 0.0166203 2.51602e-06)
(-0.0195614 0.0258952 1.3284e-08)
(-0.0350234 0.0325894 -2.05313e-07)
(-0.0526627 0.0367347 7.50851e-08)
(-0.0714711 0.0385162 1.03993e-07)
(-0.0904192 0.0381197 1.33537e-07)
(-0.1085 0.0357167 2.15131e-07)
(-0.124747 0.0315513 3.7045e-07)
(-0.138301 0.0260769 3.26104e-07)
(-0.00155878 0.00990544 -3.43826e-06)
(-0.00911342 0.027342 2.94378e-06)
(-0.0233749 0.0409788 -3.16767e-07)
(-0.0413199 0.0506251 -7.11434e-07)
(-0.0615543 0.0565153 -4.31083e-07)
(-0.0829739 0.0589285 -4.1391e-07)
(-0.104441 0.0580784 -3.71114e-07)
(-0.124808 0.0541478 -2.18766e-07)
(-0.142907 0.0474428 2.33035e-07)
(-0.15759 0.0386202 4.5741e-07)
(-0.00172804 0.0151259 -3.72989e-06)
(-0.0100057 0.0395323 3.25766e-06)
(-0.025505 0.0579102 -4.22112e-07)
(-0.0448596 0.0706742 -9.09653e-07)
(-0.0665583 0.0783563 -6.32858e-07)
(-0.0894441 0.0813628 -6.31065e-07)
(-0.112322 0.0799169 -6.1846e-07)
(-0.133947 0.0741547 -4.98379e-07)
(-0.152972 0.0643581 4.01776e-07)
(-0.167841 0.0513022 1.27382e-06)
(-0.0017432 0.0206239 -3.63748e-06)
(-0.0101249 0.0523326 3.35465e-06)
(-0.0258264 0.075621 -4.52846e-07)
(-0.0454029 0.0915709 -9.96961e-07)
(-0.0673079 0.10106 -7.62732e-07)
(-0.0903782 0.104643 -7.93775e-07)
(-0.113417 0.102535 -8.80712e-07)
(-0.135157 0.0947485 -1.05639e-06)
(-0.154158 0.0813885 5.27234e-07)
(-0.168336 0.0630844 3.23663e-06)
(-0.00161096 0.0259713 -3.4502e-06)
(-0.00948664 0.0648493 3.2016e-06)
(-0.0243412 0.0929694 -4.17334e-07)
(-0.0428974 0.112038 -9.71693e-07)
(-0.0636393 0.123276 -7.97054e-07)
(-0.0854249 0.127402 -8.12308e-07)
(-0.1071 0.124618 -9.21214e-07)
(-0.127462 0.114748 -1.63386e-06)
(-0.145206 0.0975115 1.55799e-06)
(-0.157738 0.0728139 1.12701e-05)
(-0.00135155 0.0307677 -2.89863e-06)
(-0.00818019 0.0762262 2.89303e-06)
(-0.0212289 0.108824 -2.90764e-07)
(-0.0375765 0.130752 -8.15689e-07)
(-0.0557618 0.143522 -7.49838e-07)
(-0.0746376 0.148024 -8.13073e-07)
(-0.0930615 0.144502 -1.09265e-06)
(-0.109902 0.13262 -3.82066e-06)
(-0.124339 0.111636 -1.13789e-06)
(-0.133785 0.0799184 2.53016e-05)
(-0.00100396 0.034686 -2.10656e-06)
(-0.00639117 0.0857429 2.49507e-06)
(-0.0169034 0.122187 -5.03185e-08)
(-0.0300862 0.146465 -4.65974e-07)
(-0.0445066 0.160264 -4.95557e-07)
(-0.0588982 0.164606 -7.26866e-07)
(-0.0719229 0.15984 -1.54248e-06)
(-0.08215 0.145631 -9.50786e-06)
(-0.0891681 0.121066 -2.22355e-05)
(-0.0924063 0.0835195 7.62322e-06)
(0.000311421 -0.0003143 1.98979e-08)
(2.41656e-05 0.000151572 -1.31096e-06)
(-0.00184169 0.000651228 -1.98776e-06)
(-0.00483634 0.000988633 -2.57096e-06)
(-0.00856558 0.00118018 -2.92034e-06)
(-0.0126875 0.00126267 -3.06687e-06)
(-0.0169187 0.00126354 -3.07918e-06)
(-0.0210212 0.00119656 -2.95969e-06)
(-0.0247849 0.00106886 -2.68858e-06)
(-0.0280325 0.000892061 -2.24817e-06)
(-0.000175432 -2.53194e-05 1.16537e-06)
(-0.00248153 0.00239268 -2.81833e-07)
(-0.00807722 0.00473627 1.19307e-06)
(-0.015954 0.00642771 1.87054e-06)
(-0.0253808 0.00746048 2.20791e-06)
(-0.0356781 0.00792526 2.41937e-06)
(-0.0462042 0.00790875 2.42422e-06)
(-0.0563789 0.00747132 2.25249e-06)
(-0.0656836 0.00666852 1.9748e-06)
(-0.0736918 0.00558944 1.70332e-06)
(-0.000763384 0.00196815 1.97568e-06)
(-0.00520705 0.00810607 -1.74109e-06)
(-0.014315 0.0135563 -6.87169e-08)
(-0.026368 0.0175455 7.97093e-08)
(-0.0403876 0.0200306 -8.99624e-08)
(-0.0555011 0.0211394 -8.71045e-08)
(-0.0708362 0.0210149 -9.79301e-08)
(-0.0855692 0.0197811 -1.44626e-07)
(-0.0989419 0.0175862 -1.98118e-07)
(-0.110318 0.0146802 -1.22833e-07)
(-0.00123506 0.00538847 2.84826e-06)
(-0.0074838 0.0166203 -2.47214e-06)
(-0.0195614 0.0258952 1.79861e-08)
(-0.0350234 0.0325894 2.23532e-07)
(-0.0526626 0.0367347 -6.59625e-08)
(-0.0714711 0.0385162 -1.00692e-07)
(-0.0904192 0.0381197 -1.3365e-07)
(-0.1085 0.0357167 -2.17011e-07)
(-0.124747 0.0315513 -3.73134e-07)
(-0.138301 0.0260769 -3.29009e-07)
(-0.00155878 0.00990543 3.46611e-06)
(-0.00911342 0.027342 -2.9203e-06)
(-0.0233749 0.0409788 3.33623e-07)
(-0.0413199 0.0506251 7.20191e-07)
(-0.0615543 0.0565153 4.34852e-07)
(-0.0829739 0.0589285 4.14586e-07)
(-0.104441 0.0580784 3.69593e-07)
(-0.124808 0.0541478 2.16143e-07)
(-0.142907 0.0474428 -2.36101e-07)
(-0.15759 0.0386202 -4.60486e-07)
(-0.00172803 0.0151259 3.74368e-06)
(-0.0100057 0.0395323 -3.24662e-06)
(-0.025505 0.0579102 4.2961e-07)
(-0.0448596 0.0706742 9.12662e-07)
(-0.0665583 0.0783564 6.33325e-07)
(-0.0894441 0.0813628 6.29665e-07)
(-0.112322 0.0799169 6.15787e-07)
(-0.133947 0.0741548 4.95147e-07)
(-0.152972 0.0643581 -4.05133e-07)
(-0.167841 0.0513022 -1.27702e-06)
(-0.0017432 0.0206239 3.64276e-06)
(-0.0101249 0.0523326 -3.3507e-06)
(-0.0258263 0.075621 4.54993e-07)
(-0.0454029 0.0915709 9.96608e-07)
(-0.0673079 0.10106 7.61015e-07)
(-0.0903782 0.104643 7.91043e-07)
(-0.113417 0.102535 8.77412e-07)
(-0.135157 0.0947485 1.05292e-06)
(-0.154158 0.0813885 -5.30659e-07)
(-0.168336 0.0630844 -3.23996e-06)
(-0.00161096 0.0259713 3.45123e-06)
(-0.00948664 0.0648493 -3.20148e-06)
(-0.0243412 0.0929694 4.16672e-07)
(-0.0428974 0.112038 9.69466e-07)
(-0.0636393 0.123276 7.94052e-07)
(-0.0854249 0.127402 8.0896e-07)
(-0.1071 0.124618 9.17708e-07)
(-0.127462 0.114748 1.63051e-06)
(-0.145206 0.0975115 -1.56124e-06)
(-0.157738 0.0728139 -1.12736e-05)
(-0.00135155 0.0307677 2.89754e-06)
(-0.00818019 0.0762262 -2.89434e-06)
(-0.0212289 0.108824 2.8872e-07)
(-0.0375765 0.130752 8.12497e-07)
(-0.0557618 0.143522 7.46416e-07)
(-0.0746376 0.148024 8.09567e-07)
(-0.0930615 0.144502 1.08929e-06)
(-0.109902 0.13262 3.81798e-06)
(-0.124339 0.111636 1.13558e-06)
(-0.133785 0.0799184 -2.53043e-05)
(-0.00100396 0.034686 2.10478e-06)
(-0.00639117 0.085743 -2.49717e-06)
(-0.0169034 0.122187 4.75192e-08)
(-0.0300862 0.146465 4.62692e-07)
(-0.0445066 0.160264 4.92199e-07)
(-0.0588982 0.164606 7.23418e-07)
(-0.0719229 0.15984 1.53947e-06)
(-0.08215 0.145631 9.50616e-06)
(-0.0891681 0.121066 2.22341e-05)
(-0.0924063 0.0835195 -7.62594e-06)
(0.000306442 -0.000309779 -1.11078e-06)
(1.70303e-05 0.000157455 -0.00021871)
(-0.00184544 0.000665217 -0.000446492)
(-0.00483896 0.00100838 -0.000615255)
(-0.00856707 0.00120309 -0.000681041)
(-0.0126881 0.00128712 -0.000623438)
(-0.0169185 0.00128805 -0.000436154)
(-0.0210201 0.00121976 -0.000119701)
(-0.0247827 0.00108965 0.000319884)
(-0.0280291 0.000909788 0.000869673)
(-0.00018281 -1.80095e-05 0.00021561)
(-0.00248456 0.00239467 -6.67426e-06)
(-0.00806968 0.00474749 -0.000175636)
(-0.0159493 0.00644408 -0.000276337)
(-0.0253785 0.00747867 -0.000290651)
(-0.0356774 0.0079443 -0.000202626)
(-0.0462052 0.00792767 -5.55501e-06)
(-0.056381 0.00748906 0.000302946)
(-0.0656857 0.00668421 0.000721568)
(-0.0736931 0.00560301 0.00124377)
(-0.000779404 0.0019737 0.000448843)
(-0.00521832 0.00809948 0.00015523)
(-0.0143081 0.0135532 -1.46519e-05)
(-0.0263657 0.0175423 -9.37012e-05)
(-0.0403876 0.0200255 -9.05326e-05)
(-0.0555013 0.0211332 3.72763e-06)
(-0.0708372 0.0210083 0.000193388)
(-0.0855705 0.0197743 0.000482302)
(-0.0989422 0.0175793 0.000873636)
(-0.110316 0.0146745 0.00136707)
(-0.00125805 0.00539331 0.000607022)
(-0.00750016 0.0166162 0.000226999)
(-0.0195523 0.0258961 3.30735e-05)
(-0.0350215 0.0325921 -4.81069e-05)
(-0.0526637 0.0367369 -4.72606e-05)
(-0.0714721 0.0385181 3.8467e-05)
(-0.0904207 0.0381212 0.000211681)
(-0.108502 0.0357171 0.000478852)
(-0.124747 0.0315496 0.000849434)
(-0.138297 0.0260749 0.00133183)
(-0.00158634 0.0099084 0.000615166)
(-0.00913197 0.0273396 0.000160103)
(-0.0233622 0.0409809 -5.94514e-05)
(-0.0413168 0.0506294 -0.000153214)
(-0.0615553 0.0565199 -0.000168004)
(-0.0829751 0.0589333 -0.000104496)
(-0.104444 0.058083 4.07804e-05)
(-0.124812 0.0541512 0.000279818)
(-0.14291 0.0474416 0.000632231)
(-0.157583 0.0386168 0.00112205)
(-0.00175804 0.0151265 0.000423613)
(-0.0100252 0.0395309 -8.73828e-05)
(-0.02549 0.0579113 -0.000328213)
(-0.0448555 0.0706768 -0.000441892)
(-0.066559 0.0783596 -0.000484857)
(-0.0894452 0.0813665 -0.0004586)
(-0.112325 0.0799212 -0.000355525)
(-0.133955 0.0741585 -0.000154221)
(-0.152979 0.0643536 0.000180723)
(-0.167827 0.0512903 0.00070397)
(-0.00177329 0.0206227 8.33069e-06)
(-0.0101438 0.0523324 -0.000536474)
(-0.0258101 0.0756213 -0.000791003)
(-0.0453979 0.0915718 -0.000929778)
(-0.067308 0.101062 -0.00101288)
(-0.0903785 0.104645 -0.00104055)
(-0.11342 0.102539 -0.00099805)
(-0.13517 0.0947534 -0.000850679)
(-0.154176 0.0813779 -0.000541352)
(-0.168307 0.063046 4.60541e-05)
(-0.00163943 0.0259684 -0.000631108)
(-0.0095043 0.0648502 -0.00118766)
(-0.0243253 0.0929687 -0.00144703)
(-0.0428919 0.112037 -0.00161448)
(-0.0636386 0.123276 -0.0017489)
(-0.0854241 0.127403 -0.00184869)
(-0.107101 0.124623 -0.00189056)
(-0.127485 0.114764 -0.0018245)
(-0.145258 0.0975157 -0.00157106)
(-0.157692 0.0727527 -0.000896593)
(-0.00137639 0.0307628 -0.00147242)
(-0.00819544 0.0762276 -0.00202141)
(-0.0212145 0.108822 -0.00227653)
(-0.0375709 0.130748 -0.0024738)
(-0.0557599 0.143518 -0.00266757)
(-0.0746332 0.148021 -0.00285569)
(-0.0930506 0.144505 -0.00300713)
(-0.10992 0.132653 -0.00305592)
(-0.124445 0.111711 -0.00291237)
(-0.133737 0.0799488 -0.00213663)
(-0.00102385 0.0346801 -0.00247306)
(-0.00640349 0.0857445 -0.00300066)
(-0.0168921 0.122183 -0.00324263)
(-0.0300822 0.146458 -0.00346668)
(-0.0445054 0.160251 -0.00372136)
(-0.0588916 0.164584 -0.00400896)
(-0.0718897 0.159796 -0.0043003)
(-0.0821086 0.145566 -0.00452547)
(-0.089258 0.121003 -0.00465258)
(-0.0923273 0.0834002 -0.00405657)
(-0.0306466 0.000705682 -0.00150894)
(-0.0326209 0.000511535 -0.00221222)
(-0.0340282 0.000350287 -0.00295657)
(-0.0349888 0.000229808 -0.00372473)
(-0.0356276 0.000147881 -0.00450525)
(-0.036054 9.78107e-05 -0.00529146)
(-0.0363551 7.2424e-05 -0.0060802)
(-0.0365974 6.59906e-05 -0.00687072)
(-0.036832 7.45934e-05 -0.00766411)
(-0.0370984 9.56323e-05 -0.00846312)
(-0.0374267 0.000126883 -0.00927212)
(-0.0378371 0.000165297 -0.0100973)
(-0.0383349 0.000205636 -0.0109467)
(-0.0389034 0.000239036 -0.01183)
(-0.0394921 0.000251804 -0.0127574)
(-0.0400043 0.000225065 -0.0137382)
(-0.0402883 0.000136632 -0.0147778)
(-0.0401342 -3.31748e-05 -0.0158739)
(-0.0392944 -0.000296254 -0.0170104)
(-0.0375299 -0.000640699 -0.0181551)
(-0.0801444 0.00439769 -0.0018558)
(-0.0850247 0.00325329 -0.00253785)
(-0.0885323 0.00229301 -0.00327141)
(-0.0909593 0.00156137 -0.00404114)
(-0.0926031 0.0010491 -0.00483524)
(-0.0937215 0.000721565 -0.00564548)
(-0.0945194 0.000539349 -0.00646667)
(-0.0951527 0.000468511 -0.00729617)
(-0.095738 0.000482946 -0.00813346)
(-0.0963616 0.000562164 -0.00897986)
(-0.097083 0.000686696 -0.00983839)
(-0.0979332 0.000832284 -0.0107137)
(-0.0989055 0.000963584 -0.0116118)
(-0.0999395 0.00102824 -0.0125398)
(-0.1009 0.000953042 -0.0135047)
(-0.101556 0.000645339 -0.0145123)
(-0.101562 4.44607e-06 -0.0155651)
(-0.100467 -0.00105226 -0.0166584)
(-0.0977579 -0.00255114 -0.0177782)
(-0.0929516 -0.00440897 -0.0188971)
(-0.119311 0.0114734 -0.00195341)
(-0.125957 0.00846955 -0.00261245)
(-0.130626 0.00597292 -0.00332669)
(-0.133795 0.00408173 -0.00408145)
(-0.135909 0.00275881 -0.00486473)
(-0.13733 0.00190744 -0.00566771)
(-0.138332 0.00142238 -0.00648443)
(-0.139114 0.00121365 -0.00731141)
(-0.139818 0.00121097 -0.00814722)
(-0.140547 0.00135768 -0.00899221)
(-0.141365 0.0015995 -0.00984831)
(-0.142303 0.00187091 -0.0107188)
(-0.143341 0.00208094 -0.0116082)
(-0.144397 0.00210029 -0.0125219)
(-0.145296 0.00175396 -0.0134655)
(-0.145744 0.000826073 -0.0144441)
(-0.145301 -0.000912641 -0.0154605)
(-0.143384 -0.00364631 -0.0165129)
(-0.139306 -0.00741812 -0.0175922)
(-0.132389 -0.0120156 -0.0186774)
(-0.148618 0.0200925 -0.0019207)
(-0.155847 0.0145981 -0.00258614)
(-0.160648 0.010145 -0.0033076)
(-0.163738 0.00684827 -0.00406927)
(-0.165703 0.00458385 -0.00485839)
(-0.166971 0.00314315 -0.00566591)
(-0.167833 0.00232204 -0.00648585)
(-0.168486 0.00195538 -0.00731465)
(-0.169059 0.00191857 -0.00815058)
(-0.169641 0.00211363 -0.00899341)
(-0.170287 0.00244891 -0.00984414)
(-0.17102 0.00281629 -0.0107049)
(-0.171824 0.00306773 -0.0115787)
(-0.172627 0.00299372 -0.0124697)
(-0.17327 0.00230908 -0.0133829)
(-0.173475 0.000656484 -0.0143239)
(-0.172801 -0.00235485 -0.0152985)
(-0.170611 -0.00705772 -0.0163108)
(-0.166077 -0.013567 -0.0173602)
(-0.15827 -0.0215618 -0.0184369)
(-0.168031 0.029013 -0.00175041)
(-0.17459 0.0204783 -0.00245769)
(-0.178439 0.0138415 -0.00321598)
(-0.180623 0.00911553 -0.00400773)
(-0.181846 0.00597445 -0.00481951)
(-0.182543 0.00402481 -0.00564312)
(-0.182966 0.00292873 -0.00647381)
(-0.183258 0.00243467 -0.00730893)
(-0.183501 0.00236454 -0.00814717)
(-0.183745 0.00258576 -0.00898811)
(-0.184021 0.00297979 -0.00983199)
(-0.184346 0.00340989 -0.0106796)
(-0.184719 0.0036884 -0.0115326)
(-0.185109 0.00354471 -0.0123934)
(-0.185434 0.00259851 -0.0132662)
(-0.185513 0.000350033 -0.0141576)
(-0.184999 -0.00378836 -0.0150774)
(-0.183296 -0.0103821 -0.0160381)
(-0.179472 -0.0197533 -0.0170528)
(-0.172223 -0.0316055 -0.018132)
(-0.177139 0.0370087 -0.00143541)
(-0.181623 0.0249376 -0.00223464)
(-0.183405 0.0161291 -0.00306468)
(-0.183932 0.0102161 -0.00391006)
(-0.183944 0.00647806 -0.00475933)
(-0.183787 0.00424758 -0.00560796)
(-0.183595 0.00302763 -0.00645458)
(-0.183409 0.00248466 -0.00729888)
(-0.183228 0.00240204 -0.00814077)
(-0.183048 0.00263087 -0.00898007)
(-0.182863 0.00304657 -0.00981635)
(-0.182682 0.00350922 -0.0106491)
(-0.182522 0.00382387 -0.0114778)
(-0.182417 0.00369805 -0.0123031)
(-0.182397 0.00269685 -0.0131272)
(-0.182457 0.000202984 -0.0139569)
(-0.182463 -0.00459215 -0.0148059)
(-0.18201 -0.0126016 -0.0156963)
(-0.180181 -0.0246011 -0.0166598)
(-0.175173 -0.0406539 -0.0177465)
(-0.174995 0.042583 -0.000996103)
(-0.175749 0.0266439 -0.00195609)
(-0.174401 0.016106 -0.00289279)
(-0.172756 0.00962482 -0.00380858)
(-0.171359 0.00581666 -0.00470167)
(-0.170303 0.00367295 -0.00557679)
(-0.169517 0.00255094 -0.00643905)
(-0.168894 0.00206931 -0.00729184)
(-0.168339 0.00200562 -0.00813686)
(-0.16778 0.00222219 -0.00897431)
(-0.167175 0.00261402 -0.00980308)
(-0.166513 0.00306744 -0.010621)
(-0.165825 0.00341965 -0.0114253)
(-0.165197 0.00341093 -0.0122133)
(-0.164783 0.00262214 -0.0129844)
(-0.164796 0.000391296 -0.0137428)
(-0.165431 -0.00427656 -0.0145043)
(-0.166708 -0.0127282 -0.0152992)
(-0.16806 -0.0265443 -0.0161817)
(-0.167238 -0.0468701 -0.0172744)
(-0.159605 0.0435661 -0.00049011)
(-0.154686 0.0239973 -0.00169482)
(-0.149541 0.0130225 -0.00276034)
(-0.145787 0.00712577 -0.00374675)
(-0.143265 0.00401652 -0.00467504)
(-0.14161 0.00241068 -0.0055672)
(-0.14049 0.0016253 -0.00643783)
(-0.139648 0.00131117 -0.00729441)
(-0.13891 0.00129027 -0.00814011)
(-0.138155 0.00146641 -0.00897513)
(-0.137309 0.00177531 -0.00979735)
(-0.136337 0.00215129 -0.0106027)
(-0.135262 0.0024961 -0.0113857)
(-0.134185 0.00263835 -0.0121398)
(-0.13333 0.00226805 -0.0128593)
(-0.13309 0.000820933 -0.0135431)
(-0.13402 -0.00271218 -0.0142064)
(-0.136808 -0.0100134 -0.0148821)
(-0.141939 -0.0237816 -0.0156406)
(-0.147477 -0.0476714 -0.0167169)
(-0.126545 0.0374388 -0.000208217)
(-0.11423 0.016088 -0.00168458)
(-0.106026 0.00711312 -0.00279799)
(-0.101442 0.00330778 -0.00379192)
(-0.0988277 0.00164709 -0.00471288)
(-0.0972875 0.000913033 -0.00559552)
(-0.096315 0.000598599 -0.00645934)
(-0.0956062 0.000494008 -0.00731191)
(-0.0949767 0.000512483 -0.0081553)
(-0.094308 0.000616739 -0.00898831)
(-0.09352 0.000787642 -0.00980718)
(-0.0925642 0.00100811 -0.0106056)
(-0.0914324 0.00124979 -0.0113748)
(-0.0901826 0.0014533 -0.0121034)
(-0.0889952 0.00148782 -0.0127779)
(-0.088263 0.00105915 -0.0133872)
(-0.0886716 -0.000513044 -0.0139394)
(-0.0915327 -0.00484796 -0.0144397)
(-0.0993282 -0.015511 -0.0149323)
(-0.113145 -0.0405204 -0.0158127)
(-0.0644066 0.0229417 -0.000858764)
(-0.0480519 0.00661483 -0.00232728)
(-0.0413489 0.00201718 -0.00308092)
(-0.0389192 0.000648185 -0.00382926)
(-0.0378644 0.000223274 -0.004594)
(-0.0373258 9.31037e-05 -0.00537163)
(-0.0370048 5.81819e-05 -0.0061599)
(-0.0367619 5.7523e-05 -0.00695363)
(-0.0365229 7.41844e-05 -0.00774781)
(-0.0362391 0.000104821 -0.00853739)
(-0.0358713 0.000150211 -0.00931619)
(-0.0353855 0.000212258 -0.0100756)
(-0.0347535 0.000292391 -0.0108033)
(-0.0339623 0.000388273 -0.0114817)
(-0.0330344 0.00048344 -0.0120855)
(-0.0320809 0.000515553 -0.0125788)
(-0.0314447 0.000260119 -0.0129144)
(-0.0320879 -0.00113902 -0.0130556)
(-0.0376998 -0.00640813 -0.0128817)
(-0.0563897 -0.0256755 -0.0130245)
(-0.0306502 0.000691154 1.68981e-06)
(-0.0326239 0.000500267 1.18305e-06)
(-0.0340304 0.000341961 7.8408e-07)
(-0.0349902 0.000223862 4.95819e-07)
(-0.0356284 0.000143707 3.05081e-07)
(-0.0360544 9.48458e-05 1.90262e-07)
(-0.0363551 7.01888e-05 1.306e-07)
(-0.0365973 6.40987e-05 1.10362e-07)
(-0.0368317 7.27431e-05 1.19055e-07)
(-0.037098 9.35972e-05 1.49924e-07)
(-0.0374262 0.000124512 1.98179e-07)
(-0.0378365 0.000162533 2.58748e-07)
(-0.0383343 0.000202547 3.23973e-07)
(-0.0389028 0.000235874 3.81283e-07)
(-0.0394916 0.000249065 4.09733e-07)
(-0.0400043 0.000223546 3.75504e-07)
(-0.040289 0.0001374 2.36185e-07)
(-0.0401361 -2.89286e-05 -3.43038e-08)
(-0.0392981 -0.000287267 -5.1056e-07)
(-0.0375353 -0.000626227 -1.22787e-06)
(-0.0801433 0.00438566 -1.50969e-06)
(-0.0850231 0.00324343 -1.2608e-06)
(-0.0885302 0.00228547 -9.97929e-07)
(-0.0909573 0.00155586 -7.63278e-07)
(-0.0926013 0.00104519 -5.71759e-07)
(-0.09372 0.000718815 -4.30933e-07)
(-0.0945183 0.000537357 -3.40516e-07)
(-0.095152 0.000466941 -2.94747e-07)
(-0.0957376 0.00048153 -2.85359e-07)
(-0.0963614 0.000560694 -3.02916e-07)
(-0.0970828 0.000685018 -3.35984e-07)
(-0.0979329 0.000830307 -3.69297e-07)
(-0.0989047 0.0009613 -3.82063e-07)
(-0.099938 0.00102577 -3.46684e-07)
(-0.100898 0.000950708 -2.29205e-07)
(-0.101552 0.000643714 5.92276e-09)
(-0.101557 4.34527e-06 3.82008e-07)
(-0.100462 -0.00104984 8.90212e-07)
(-0.0977533 -0.00254514 1.49915e-06)
(-0.0929488 -0.00439929 2.07204e-06)
(-0.119313 0.0114754 -1.866e-07)
(-0.125958 0.00846993 -3.24812e-07)
(-0.130625 0.00597287 -3.56483e-07)
(-0.133793 0.00408162 -3.39264e-07)
(-0.135907 0.0027588 -2.90268e-07)
(-0.137328 0.0019076 -2.32172e-07)
(-0.138331 0.00142272 -1.79429e-07)
(-0.139113 0.00121417 -1.37647e-07)
(-0.139818 0.00121168 -1.07529e-07)
(-0.140546 0.00135857 -8.70274e-08)
(-0.141365 0.00160054 -7.27257e-08)
(-0.142302 0.00187203 -6.02512e-08)
(-0.14334 0.00208199 -4.42641e-08)
(-0.144395 0.00210106 -1.81942e-08)
(-0.145294 0.0017542 2.65841e-08)
(-0.145741 0.000825526 9.73416e-08)
(-0.145298 -0.000914239 1.90084e-07)
(-0.143381 -0.00364891 2.98754e-07)
(-0.139304 -0.00742159 4.10738e-07)
(-0.132391 -0.0120214 3.49671e-07)
(-0.148623 0.0200889 -2.96376e-07)
(-0.155848 0.0145942 -4.77723e-07)
(-0.160646 0.0101424 -4.75013e-07)
(-0.163736 0.00684684 -4.22725e-07)
(-0.165701 0.0045833 -3.36807e-07)
(-0.166969 0.00314315 -2.49538e-07)
(-0.167832 0.00232233 -1.77085e-07)
(-0.168484 0.0019558 -1.22099e-07)
(-0.169058 0.00191904 -8.29444e-08)
(-0.16964 0.00211411 -5.65252e-08)
(-0.170286 0.00244935 -3.9541e-08)
(-0.171019 0.00281663 -2.89947e-08)
(-0.171824 0.00306787 -2.21053e-08)
(-0.172626 0.00299357 -1.4544e-08)
(-0.173268 0.0023086 4.69784e-09)
(-0.173473 0.00065576 4.78502e-08)
(-0.172799 -0.00235565 1.01503e-07)
(-0.170608 -0.00705769 2.0276e-07)
(-0.166076 -0.0135646 3.96463e-07)
(-0.158275 -0.0215589 3.50129e-07)
(-0.168039 0.029004 -8.05028e-07)
(-0.174589 0.0204707 -9.02881e-07)
(-0.178436 0.0138378 -7.32324e-07)
(-0.18062 0.00911416 -5.73128e-07)
(-0.181843 0.00597439 -4.03986e-07)
(-0.182541 0.00402536 -2.65821e-07)
(-0.182964 0.00292945 -1.69972e-07)
(-0.183257 0.00243536 -1.08042e-07)
(-0.1835 0.00236512 -7.08121e-08)
(-0.183745 0.00258621 -5.09726e-08)
(-0.184021 0.00298011 -4.34674e-08)
(-0.184346 0.00341005 -4.5031e-08)
(-0.184718 0.00368835 -5.32813e-08)
(-0.185109 0.00354439 -6.33681e-08)
(-0.185433 0.00259796 -5.61092e-08)
(-0.185511 0.00034949 -4.53124e-09)
(-0.184995 -0.00378841 4.9299e-08)
(-0.18329 -0.01038 1.99837e-07)
(-0.179469 -0.0197446 6.97691e-07)
(-0.172233 -0.0315924 1.00089e-06)
(-0.177154 0.0369906 -1.71731e-06)
(-0.181618 0.0249254 -1.4671e-06)
(-0.183397 0.0161254 -9.20455e-07)
(-0.183926 0.0102159 -6.16765e-07)
(-0.18394 0.00647919 -3.63257e-07)
(-0.183784 0.00424903 -1.91826e-07)
(-0.183594 0.00302892 -9.50958e-08)
(-0.183407 0.00248569 -4.38035e-08)
(-0.183228 0.00240282 -1.8809e-08)
(-0.183047 0.00263147 -9.26832e-09)
(-0.182863 0.00304702 -9.81406e-09)
(-0.182681 0.00350953 -1.86184e-08)
(-0.182522 0.00382401 -3.58728e-08)
(-0.182416 0.00369793 -6.08658e-08)
(-0.182396 0.00269648 -7.56869e-08)
(-0.182455 0.000202691 -4.55151e-08)
(-0.182458 -0.00459157 -2.4618e-08)
(-0.181999 -0.0125977 1.10154e-07)
(-0.18017 -0.0245847 1.20039e-06)
(-0.175189 -0.0406261 2.54217e-06)
(-0.175027 0.0425581 -4.56624e-06)
(-0.175734 0.0266358 -3.01857e-06)
(-0.174385 0.0161096 -1.39681e-06)
(-0.172748 0.00962915 -7.28495e-07)
(-0.171354 0.0058202 -3.09948e-07)
(-0.1703 0.00367556 -9.60628e-08)
(-0.169515 0.00255274 -1.18517e-08)
(-0.168893 0.00207058 1.57809e-08)
(-0.168338 0.00200661 1.9141e-08)
(-0.16778 0.00222307 1.1425e-08)
(-0.167175 0.00261488 -2.93802e-09)
(-0.166513 0.00306832 -2.35563e-08)
(-0.165825 0.00342047 -5.14797e-08)
(-0.165197 0.00341148 -8.93044e-08)
(-0.164782 0.00262214 -1.18177e-07)
(-0.164793 0.000390738 -6.09308e-08)
(-0.165424 -0.00427807 7.1936e-08)
(-0.166687 -0.0127307 3.6277e-07)
(-0.168033 -0.0265327 2.90314e-06)
(-0.16727 -0.0468343 6.98713e-06)
(-0.159665 0.0435248 -7.75506e-06)
(-0.154654 0.0240076 -3.15659e-06)
(-0.149522 0.0130443 -6.4294e-07)
(-0.145782 0.00713808 -2.44461e-07)
(-0.143262 0.0040228 3.08975e-08)
(-0.141609 0.00241409 1.28045e-07)
(-0.140489 0.00162726 1.21406e-07)
(-0.139648 0.00131252 9.99919e-08)
(-0.13891 0.00129151 8.28912e-08)
(-0.138155 0.00146781 7.08716e-08)
(-0.137308 0.00177703 6.1016e-08)
(-0.136337 0.00215337 4.86688e-08)
(-0.135262 0.00249845 2.64866e-08)
(-0.134186 0.00264055 -2.6107e-08)
(-0.133331 0.0022692 -1.03159e-07)
(-0.13309 0.000819514 -3.41369e-08)
(-0.134019 -0.00272067 9.61327e-08)
(-0.136787 -0.0100359 -3.60206e-07)
(-0.141893 -0.0237948 2.56613e-06)
(-0.147536 -0.0476153 1.11624e-05)
(-0.126618 0.0372418 -9.68629e-06)
(-0.114162 0.0160283 4.29024e-06)
(-0.106014 0.00710203 4.80807e-06)
(-0.101451 0.00330057 2.05535e-06)
(-0.0988328 0.00164172 1.06405e-06)
(-0.0972899 0.000909683 6.46393e-07)
(-0.0963162 0.000596395 4.07186e-07)
(-0.0956064 0.000492358 3.09084e-07)
(-0.0949764 0.000511046 2.97269e-07)
(-0.0943074 0.000615282 3.34536e-07)
(-0.0935193 0.000786017 4.01424e-07)
(-0.0925636 0.00100626 4.81009e-07)
(-0.0914325 0.00124781 5.43534e-07)
(-0.0901841 0.00145156 5.12599e-07)
(-0.0889986 0.00148707 2.90777e-07)
(-0.0882716 0.00106036 -7.05052e-08)
(-0.0886906 -0.00050974 -1.29391e-06)
(-0.091529 -0.00484067 -5.9741e-06)
(-0.0992379 -0.0154465 -8.11345e-06)
(-0.113197 -0.0402642 1.20596e-05)
(-0.0644494 0.0227965 -5.38394e-05)
(-0.0478929 0.00654585 -9.17238e-06)
(-0.0413038 0.00198936 -6.67069e-07)
(-0.0389147 0.000632474 -1.47313e-06)
(-0.0378613 0.000214117 -9.57988e-07)
(-0.0373236 8.79429e-05 -4.5082e-07)
(-0.0370038 5.5032e-05 -2.55591e-07)
(-0.0367615 5.52226e-05 -1.8159e-07)
(-0.0365227 7.20909e-05 -1.61281e-07)
(-0.0362391 0.000102546 -1.77556e-07)
(-0.0358716 0.000147516 -2.19615e-07)
(-0.0353858 0.000209046 -2.77016e-07)
(-0.0347538 0.000288794 -3.35022e-07)
(-0.0339622 0.000384879 -3.67503e-07)
(-0.0330333 0.000481597 -2.83778e-07)
(-0.0320798 0.000517499 1.62374e-07)
(-0.0314471 0.000269461 6.01033e-07)
(-0.032046 -0.00111541 -1.99242e-06)
(-0.0374838 -0.00633398 3.95009e-06)
(-0.0563763 -0.0254806 6.81305e-05)
(-0.0306502 0.000691154 -1.6923e-06)
(-0.0326239 0.000500267 -1.18525e-06)
(-0.0340304 0.000341961 -7.85895e-07)
(-0.0349902 0.000223862 -4.97305e-07)
(-0.0356284 0.000143707 -3.0623e-07)
(-0.0360544 9.48458e-05 -1.91131e-07)
(-0.0363551 7.01887e-05 -1.31324e-07)
(-0.0365973 6.40986e-05 -1.11008e-07)
(-0.0368317 7.27431e-05 -1.19572e-07)
(-0.037098 9.35972e-05 -1.50202e-07)
(-0.0374262 0.000124512 -1.98222e-07)
(-0.0378365 0.000162533 -2.58641e-07)
(-0.0383343 0.000202547 -3.23806e-07)
(-0.0389028 0.000235874 -3.81108e-07)
(-0.0394916 0.000249065 -4.09611e-07)
(-0.0400043 0.000223546 -3.75427e-07)
(-0.040289 0.0001374 -2.3609e-07)
(-0.0401361 -2.89286e-05 3.443e-08)
(-0.0392981 -0.000287267 5.10698e-07)
(-0.0375353 -0.000626227 1.22806e-06)
(-0.0801433 0.00438566 1.50672e-06)
(-0.0850231 0.00324343 1.2582e-06)
(-0.0885302 0.00228547 9.95735e-07)
(-0.0909573 0.00155586 7.61476e-07)