/*--------------------------------*- C++ -*----------------------------------*\
| =========                 |                                                 |
| \\      /  F ield         | OpenFOAM: The Open Source CFD Toolbox           |
|  \\    /   O peration     | Version:  2.4.0                                 |
|   \\  /    A nd           | Web:      www.OpenFOAM.org                      |
|    \\/     M anipulation  |                                                 |
\*---------------------------------------------------------------------------*/
FoamFile
{
    version     2.0;
    format      ascii;
    class       surfaceScalarField;
    location    "0.5";
    object      phi;
}
// * * * * * * * * * * * * * * * * * * * * * * * * * * * * * * * * * * * * * //

dimensions      [0 3 -1 0 0 0 0];

internalField   nonuniform List<scalar> 
12720
(
-3.61022e-08
3.60726e-08
2.85019e-11
-6.94498e-07
6.56921e-07
1.47456e-09
-1.8941e-06
1.19768e-06
1.91519e-09
-3.43138e-06
1.53492e-06
2.36734e-09
-5.14874e-06
1.71473e-06
2.62235e-09
-6.93024e-06
1.77884e-06
2.66698e-09
-8.68434e-06
1.75143e-06
2.66536e-09
-1.03298e-05
1.64294e-06
2.51742e-09
-1.17919e-05
1.4598e-06
2.25847e-09
1.21662e-06
1.85865e-09
-1.30103e-05
-6.71914e-07
7.09327e-07
-1.34124e-09
-2.6516e-06
2.63645e-06
1.4922e-10
-5.63107e-06
4.17849e-06
-1.33054e-09
-9.29286e-06
5.19854e-06
-1.84018e-09
-1.33511e-05
5.77504e-06
-2.03039e-09
-1.75636e-05
5.99341e-06
-2.14027e-09
-2.17181e-05
5.9081e-06
-2.12957e-09
-2.56192e-05
5.54605e-06
-1.97875e-09
-2.90888e-05
4.93107e-06
-1.74908e-09
4.11651e-06
-1.52897e-09
-3.19871e-05
-1.25813e-06
1.96935e-06
-1.88835e-09
-4.31059e-06
5.68735e-06
1.56421e-09
-8.6431e-06
8.51097e-06
1.86197e-11
-1.38427e-05
1.03982e-05
-9.76695e-11
-1.95569e-05
1.14892e-05
7.93824e-11
-2.54773e-05
1.19137e-05
9.30086e-11
-3.13175e-05
1.17482e-05
1.05755e-10
-3.67983e-05
1.10267e-05
1.39943e-10
-4.16541e-05
9.78671e-06
1.70376e-10
8.13256e-06
8.56878e-11
-4.56702e-05
-1.65452e-06
3.62633e-06
-2.46902e-09
-5.48834e-06
9.51911e-06
2.05966e-09
-1.07983e-05
1.38209e-05
2.30147e-11
-1.70912e-05
1.66913e-05
-1.09888e-10
-2.39748e-05
1.83727e-05
1.63231e-10
-3.11061e-05
1.90448e-05
2.14245e-10
-3.81506e-05
1.87924e-05
2.5281e-10
-4.47582e-05
1.76339e-05
3.17835e-10
-5.05706e-05
1.55987e-05
4.24634e-10
1.28373e-05
3.47985e-10
-5.52757e-05
-1.88596e-06
5.51509e-06
-2.80055e-09
-6.20882e-06
1.38397e-05
2.27302e-09
-1.21449e-05
1.97572e-05
-2.12976e-10
-1.91495e-05
2.36964e-05
-4.59577e-10
-2.68127e-05
2.6036e-05
-1.89177e-10
-3.47779e-05
2.70102e-05
-1.38349e-10
-4.26791e-05
2.66937e-05
-7.7741e-11
-5.00988e-05
2.50535e-05
5.06576e-11
-5.65641e-05
2.20635e-05
3.95954e-10
1.78855e-05
5.24072e-10
-6.16128e-05
-1.97953e-06
7.49753e-06
-2.91065e-09
-6.51889e-06
1.83766e-05
2.42134e-09
-1.27487e-05
2.59872e-05
-2.58168e-10
-2.01097e-05
3.1058e-05
-5.60936e-10
-2.81969e-05
3.41235e-05
-3.05598e-10
-3.66608e-05
3.54743e-05
-2.68683e-10
-4.5122e-05
3.51551e-05
-2.2687e-10
-5.31015e-05
3.30332e-05
-1.19587e-10
-5.99856e-05
2.8947e-05
5.8471e-10
2.29674e-05
1.22665e-09
-6.50687e-05
-1.95273e-06
9.45313e-06
-2.86176e-09
-6.45335e-06
2.28748e-05
2.41406e-09
-1.26517e-05
3.21858e-05
-2.72465e-10
-2.00075e-05
3.84144e-05
-6.11394e-10
-2.81412e-05
4.22576e-05
-4.03344e-10
-3.67306e-05
4.40641e-05
-4.00407e-10
-4.54088e-05
4.38338e-05
-4.2925e-10
-5.36609e-05
4.12858e-05
-5.3492e-10
-6.07246e-05
3.60099e-05
7.50212e-10
2.77567e-05
2.90104e-09
-6.55169e-05
-1.81585e-06
1.12716e-05
-2.65211e-09
-6.03537e-06
2.70921e-05
2.27195e-09
-1.18763e-05
3.8027e-05
-2.63311e-10
-1.88378e-05
4.53766e-05
-6.19424e-10
-2.65734e-05
4.99936e-05
-4.77655e-10
-3.47983e-05
5.22896e-05
-4.80886e-10
-4.31869e-05
5.22229e-05
-5.11372e-10
-5.12408e-05
4.93406e-05
-9.48593e-10
-5.81043e-05
4.28715e-05
1.93816e-09
3.18051e-05
1.0287e-08
-6.21629e-05
-1.58023e-06
1.28541e-05
-2.27566e-09
-5.29726e-06
3.08071e-05
2.04444e-09
-1.04656e-05
4.31955e-05
-2.05355e-10
-1.66234e-05
5.15349e-05
-5.71833e-10
-2.34385e-05
5.68093e-05
-5.7051e-10
-3.06411e-05
5.94929e-05
-7.20999e-10
-3.79423e-05
5.95252e-05
-1.07151e-09
-4.49068e-05
5.63085e-05
-3.35705e-09
-5.07531e-05
4.87185e-05
-6.52806e-10
3.4342e-05
2.18883e-08
-5.33119e-05
-1.2691e-06
-1.74576e-09
1.4125e-05
-4.31054e-06
1.79603e-09
3.38467e-05
-8.54446e-06
-4.20661e-11
4.74295e-05
-1.35266e-05
-3.52099e-10
5.65174e-05
-1.88862e-05
-4.72151e-10
6.21694e-05
-2.42771e-05
-9.06893e-10
6.48847e-05
-2.93196e-05
-2.12171e-09
6.45698e-05
-3.34796e-05
-9.68851e-09
6.04781e-05
-3.59117e-05
-2.12555e-08
5.11719e-05
4.16502e-09
-3.53319e-05
3.3758e-05
-3.43806e-08
3.44084e-08
8.37532e-13
-6.94663e-07
6.61756e-07
6.41312e-13
-1.89451e-06
1.20177e-06
3.74503e-13
-3.43142e-06
1.53927e-06
2.26335e-13
-5.14859e-06
1.71979e-06
2.0746e-13
-6.93011e-06
1.78418e-06
2.19793e-13
-8.68422e-06
1.75678e-06
2.37832e-13
-1.03298e-05
1.64806e-06
1.15978e-13
-1.17919e-05
1.46445e-06
1.33582e-13
1.22045e-06
1.40772e-13
-1.30105e-05
-6.76526e-07
7.09592e-07
1.21059e-12
-2.65492e-06
2.6403e-06
9.93889e-13
-5.63383e-06
4.17935e-06
7.61177e-13
-9.29469e-06
5.19829e-06
5.1857e-13
-1.33518e-05
5.7749e-06
4.8214e-13
-1.75633e-05
5.99348e-06
4.58698e-13
-2.1717e-05
5.90841e-06
4.81986e-13
-2.56176e-05
5.54666e-06
4.19375e-13
-2.90869e-05
4.93198e-06
3.21446e-13
4.11725e-06
2.61382e-13
-3.19852e-05
-1.26225e-06
1.96995e-06
1.50037e-12
-4.31113e-06
5.69074e-06
1.22443e-12
-8.64351e-06
8.51174e-06
1.00794e-12
-1.38432e-05
1.03979e-05
9.06672e-13
-1.95571e-05
1.14889e-05
7.73291e-13
-2.54771e-05
1.19136e-05
7.76275e-13
-3.13169e-05
1.17483e-05
6.9838e-13
-3.67975e-05
1.10274e-05
6.17546e-13
-4.16534e-05
9.78812e-06
4.89442e-13
8.13372e-06
3.85065e-13
-4.56698e-05
-1.65908e-06
3.62656e-06
1.76967e-12
-5.48775e-06
9.52147e-06
1.52564e-12
-1.07976e-05
1.38216e-05
1.19202e-12
-1.70911e-05
1.66912e-05
1.08197e-12
-2.39746e-05
1.83726e-05
9.6779e-13
-3.11057e-05
1.90449e-05
9.2611e-13
-3.815e-05
1.87929e-05
8.64917e-13
-4.47575e-05
1.76352e-05
6.81836e-13
-5.05704e-05
1.56014e-05
6.12057e-13
1.28399e-05
4.55651e-13
-5.52762e-05
-1.89132e-06
5.51507e-06
1.84324e-12
-6.20824e-06
1.38407e-05
1.67562e-12
-1.21441e-05
1.97573e-05
1.41867e-12
-1.91494e-05
2.3696e-05
1.29093e-12
-2.68125e-05
2.60355e-05
1.16927e-12
-3.47775e-05
2.70098e-05
1.04749e-12
-4.26785e-05
2.66938e-05
9.52998e-13
-5.00979e-05
2.50546e-05
8.33842e-13
-5.65638e-05
2.20677e-05
6.84085e-13
1.78908e-05
4.96527e-13
-6.16142e-05
-1.98525e-06
7.4974e-06
1.94297e-12
-6.51845e-06
1.83763e-05
1.77079e-12
-1.27481e-05
2.59867e-05
1.462e-12
-2.01098e-05
3.10571e-05
1.37083e-12
-2.8197e-05
3.41225e-05
1.30414e-12
-3.66609e-05
3.54733e-05
1.16685e-12
-4.51216e-05
3.51543e-05
1.01283e-12
-5.31004e-05
3.30333e-05
9.32488e-13
-5.99852e-05
2.89531e-05
7.14012e-13
2.29784e-05
5.86487e-13
-6.50716e-05
-1.95841e-06
9.45295e-06
1.87725e-12
-6.45309e-06
2.28734e-05
1.73808e-12
-1.26514e-05
3.21847e-05
1.52844e-12
-2.00081e-05
3.84132e-05
1.3949e-12
-2.81421e-05
4.22561e-05
1.33238e-12
-3.67315e-05
4.40624e-05
1.23902e-12
-4.54092e-05
4.38316e-05
1.05573e-12
-5.36597e-05
4.12832e-05
8.56803e-13
-6.07232e-05
3.60174e-05
7.10896e-13
2.7781e-05
6.41888e-13
-6.55229e-05
-1.82114e-06
1.12714e-05
1.9026e-12
-6.03529e-06
2.70898e-05
1.71215e-12
-1.18764e-05
3.80255e-05
1.50201e-12
-1.8839e-05
4.53752e-05
1.46294e-12
-2.65752e-05
4.99918e-05
1.29864e-12
-3.48005e-05
5.22872e-05
1.13262e-12
-4.31886e-05
5.22191e-05
1.0597e-12
-5.12387e-05
4.93324e-05
8.75913e-13
-5.80942e-05
4.28749e-05
6.52549e-13
3.18674e-05
4.45516e-13
-6.21703e-05
-1.58481e-06
1.2854e-05
1.70812e-12
-5.29728e-06
3.08043e-05
1.60901e-12
-1.04661e-05
4.31941e-05
1.44078e-12
-1.66254e-05
5.1534e-05
1.32113e-12
-2.34422e-05
5.6808e-05
1.22214e-12
-3.06472e-05
5.94914e-05
1.14006e-12
-3.79519e-05
5.95228e-05
9.76518e-13
-4.49184e-05
5.62955e-05
8.64307e-13
-5.07328e-05
4.86886e-05
6.82127e-13
3.44315e-05
3.52307e-13
-5.3275e-05
-1.27263e-06
1.49254e-12
1.41249e-05
-4.31029e-06
1.44111e-12
3.38438e-05
-8.54447e-06
1.29555e-12
4.74282e-05
-1.3528e-05
1.22022e-12
5.65171e-05
-1.88903e-05
1.17098e-12
6.21699e-05
-2.42865e-05
1.06886e-12
6.48867e-05
-2.93417e-05
8.5909e-13
6.45759e-05
-3.35436e-05
8.77964e-13
6.04877e-05
-3.60112e-05
7.92127e-13
5.1135e-05
5.81648e-13
-3.51645e-05
3.35889e-05
-3.43805e-08
3.4409e-08
-2.74609e-11
-6.94662e-07
6.61756e-07
-1.47324e-09
-1.89451e-06
1.20177e-06
-1.91414e-09
-3.43142e-06
1.53927e-06
-2.36642e-09
-5.14858e-06
1.71979e-06
-2.62171e-09
-6.9301e-06
1.78418e-06
-2.66617e-09
-8.68422e-06
1.75678e-06
-2.665e-09
-1.03298e-05
1.64805e-06
-2.51702e-09
-1.17919e-05
1.46445e-06
-2.25816e-09
1.22045e-06
-1.85834e-09
-1.30105e-05
-6.76525e-07
7.09593e-07
1.34255e-09
-2.65492e-06
2.6403e-06
-1.47783e-10
-5.63382e-06
4.17934e-06
1.3318e-09
-9.29468e-06
5.19828e-06
1.84139e-09
-1.33518e-05
5.7749e-06
2.03138e-09
-1.75632e-05
5.99348e-06
2.14113e-09
-2.1717e-05
5.9084e-06
2.13029e-09
-2.56176e-05
5.54665e-06
1.97937e-09
-2.90869e-05
4.93198e-06
1.74964e-09
4.11725e-06
1.5295e-09
-3.19852e-05
-1.26225e-06
1.96995e-06
1.89005e-09
-4.31112e-06
5.69074e-06
-1.56251e-09
-8.6435e-06
8.51174e-06
-1.71109e-11
-1.38432e-05
1.03979e-05
9.90488e-11
-1.95571e-05
1.14888e-05
-7.81242e-11
-2.5477e-05
1.19135e-05
-9.19406e-11
-3.13169e-05
1.17483e-05
-1.04762e-10
-3.67974e-05
1.10274e-05
-1.39115e-10
-4.16534e-05
9.78812e-06
-1.69644e-10
8.13372e-06
-8.50475e-11
-4.56698e-05
-1.65908e-06
3.62655e-06
2.47094e-09
-5.48774e-06
9.52146e-06
-2.05782e-09
-1.07976e-05
1.38216e-05
-2.12696e-11
-1.7091e-05
1.66912e-05
1.1149e-10
-2.39746e-05
1.83726e-05
-1.61821e-10
-3.11057e-05
1.90449e-05
-2.12967e-10
-3.815e-05
1.87929e-05
-2.51682e-10
-4.47575e-05
1.76352e-05
-3.16795e-10
-5.05704e-05
1.56014e-05
-4.23791e-10
1.28399e-05
-3.47245e-10
-5.52762e-05
-1.89132e-06
5.51507e-06
2.8028e-09
-6.20824e-06
1.38407e-05
-2.2709e-09
-1.21441e-05
1.97573e-05
2.14891e-10
-1.91493e-05
2.3696e-05
4.61386e-10
-2.68125e-05
2.60355e-05
1.90798e-10
-3.47775e-05
2.70098e-05
1.39844e-10
-4.26785e-05
2.66937e-05
7.90522e-11
-5.00978e-05
2.50546e-05
-4.95365e-11
-5.65638e-05
2.20677e-05
-3.95012e-10
1.78908e-05
-5.23259e-10
-6.16141e-05
-1.98524e-06
7.4974e-06
2.91301e-09
-6.51845e-06
1.83763e-05
-2.41907e-09
-1.27481e-05
2.59866e-05
2.60278e-10
-2.01098e-05
3.10571e-05
5.62859e-10
-2.8197e-05
3.41224e-05
3.0731e-10
-3.66608e-05
3.54733e-05
2.70257e-10
-4.51216e-05
3.51543e-05
2.28279e-10
-5.31004e-05
3.30333e-05
1.2073e-10
-5.99851e-05
2.89531e-05
-5.8372e-10
2.29784e-05
-1.22589e-09
-6.50715e-05
-1.95841e-06
9.45294e-06
2.86426e-09
-6.45308e-06
2.28734e-05
-2.41173e-09
-1.26514e-05
3.21847e-05
2.74538e-10
-2.00081e-05
3.84132e-05
6.13369e-10
-2.81421e-05
4.2256e-05
4.05114e-10
-3.67315e-05
4.40623e-05
4.01973e-10
-4.54092e-05
4.38316e-05
4.30661e-10
-5.36597e-05
4.12832e-05
5.36159e-10
-6.07232e-05
3.60174e-05
-7.49251e-10
2.7781e-05
-2.90038e-09
-6.55229e-05
-1.82114e-06
1.12714e-05
2.65441e-09
-6.03528e-06
2.70898e-05
-2.26972e-09
-1.18764e-05
3.80255e-05
2.65374e-10
-1.8839e-05
4.53752e-05
6.21281e-10
-2.65752e-05
4.99917e-05
4.79397e-10
-3.48005e-05
5.22872e-05
4.82505e-10
-4.31885e-05
5.22191e-05
5.12742e-10
-5.12386e-05
4.93324e-05
9.49777e-10
-5.80942e-05
4.28748e-05
-1.93714e-09
3.18674e-05
-1.02862e-08
-6.21703e-05
-1.58481e-06
1.2854e-05
2.27778e-09
-5.29728e-06
3.08043e-05
-2.04238e-09
-1.04661e-05
4.31941e-05
2.07288e-10
-1.66254e-05
5.15339e-05
5.73659e-10
-2.34422e-05
5.6808e-05
5.72187e-10
-3.06472e-05
5.94914e-05
7.22512e-10
-3.79519e-05
5.95228e-05
1.07291e-09
-4.49183e-05
5.62955e-05
3.35821e-09
-5.07328e-05
4.86886e-05
6.53827e-10
3.44315e-05
-2.18879e-08
-5.3275e-05
-1.27263e-06
1.7476e-09
1.41248e-05
-4.31029e-06
-1.79415e-09
3.38437e-05
-8.54446e-06
4.38582e-11
4.74282e-05
-1.3528e-05
3.5379e-10
5.65171e-05
-1.88903e-05
4.73704e-10
6.21699e-05
-2.42865e-05
9.08351e-10
6.48867e-05
-2.93417e-05
2.12313e-09
6.45759e-05
-3.35436e-05
9.6897e-09
6.04877e-05
-3.60112e-05
2.12565e-08
5.1135e-05
-4.16409e-09
-3.51645e-05
3.35889e-05
-3.61012e-08
3.6074e-08
-6.94496e-07
6.56921e-07
-1.89409e-06
1.19768e-06
-3.43137e-06
1.53491e-06
-5.14872e-06
1.71473e-06
-6.93023e-06
1.77884e-06
-8.68432e-06
1.75142e-06
-1.03298e-05
1.64294e-06
-1.17918e-05
1.4598e-06
1.21662e-06
-1.30103e-05
-6.71911e-07
7.09329e-07
-2.65159e-06
2.63645e-06
-5.63106e-06
4.17848e-06
-9.29283e-06
5.19853e-06
-1.33511e-05
5.77503e-06
-1.75635e-05
5.9934e-06
-2.17181e-05
5.90809e-06
-2.56192e-05
5.54604e-06
-2.90887e-05
4.93106e-06
4.1165e-06
-3.19871e-05
-1.25813e-06
1.96934e-06
-4.31058e-06
5.68734e-06
-8.64308e-06
8.51096e-06
-1.38427e-05
1.03982e-05
-1.95569e-05
1.14892e-05
-2.54773e-05
1.19137e-05
-3.13175e-05
1.17482e-05
-3.67982e-05
1.10266e-05
-4.1654e-05
9.78669e-06
8.13255e-06
-4.56701e-05
-1.65451e-06
3.62633e-06
-5.48832e-06
9.51909e-06
-1.07983e-05
1.38209e-05
-1.70912e-05
1.66912e-05
-2.39748e-05
1.83726e-05
-3.11061e-05
1.90448e-05
-3.81505e-05
1.87924e-05
-4.47581e-05
1.76339e-05
-5.05705e-05
1.55986e-05
1.28373e-05
-5.52756e-05
-1.88595e-06
5.51508e-06
-6.2088e-06
1.38397e-05
-1.21448e-05
1.97571e-05
-1.91495e-05
2.36964e-05
-2.68126e-05
2.60359e-05
-3.47778e-05
2.70101e-05
-4.26791e-05
2.66937e-05
-5.00987e-05
2.50535e-05
-5.6564e-05
2.20635e-05
1.78855e-05
-6.16127e-05
-1.97952e-06
7.49752e-06
-6.51887e-06
1.83766e-05
-1.27486e-05
2.59872e-05
-2.01096e-05
3.10579e-05
-2.81968e-05
3.41234e-05
-3.66607e-05
3.54743e-05
-4.51219e-05
3.51551e-05
-5.31015e-05
3.30332e-05
-5.99855e-05
2.8947e-05
2.29674e-05
-6.50686e-05
-1.95273e-06
9.45311e-06
-6.45334e-06
2.28748e-05
-1.26516e-05
3.21857e-05
-2.00074e-05
3.84143e-05
-2.81412e-05
4.22576e-05
-3.67305e-05
4.40641e-05
-4.54088e-05
4.38338e-05
-5.36609e-05
4.12858e-05
-6.07245e-05
3.60099e-05
2.77567e-05
-6.55168e-05
-1.81584e-06
1.12716e-05
-6.03536e-06
2.7092e-05
-1.18763e-05
3.80269e-05
-1.88378e-05
4.53765e-05
-2.65733e-05
4.99936e-05
-3.47983e-05
5.22895e-05
-4.31869e-05
5.22229e-05
-5.12407e-05
4.93406e-05
-5.81042e-05
4.28715e-05
3.18051e-05
-6.21629e-05
-1.58022e-06
1.28541e-05
-5.29725e-06
3.0807e-05
-1.04656e-05
4.31954e-05
-1.66234e-05
5.15349e-05
-2.34384e-05
5.68092e-05
-3.0641e-05
5.94929e-05
-3.79423e-05
5.95252e-05
-4.49067e-05
5.63084e-05
-5.07531e-05
4.87185e-05
3.4342e-05
-5.33119e-05
-1.2691e-06
1.41249e-05
-4.31053e-06
3.38467e-05
-8.54445e-06
4.74294e-05
-1.35265e-05
5.65173e-05
-1.88862e-05
6.21693e-05
-2.42771e-05
6.48846e-05
-2.93196e-05
6.45698e-05
-3.34796e-05
6.04781e-05
-3.59117e-05
5.11719e-05
-3.53319e-05
3.3758e-05
-1.39567e-05
9.44973e-07
1.36289e-09
-1.46448e-05
6.87237e-07
9.22396e-10
-1.51175e-05
4.72138e-07
5.868e-10
-1.54274e-05
3.09474e-07
3.51441e-10
-1.56236e-05
1.96034e-07
1.99699e-10
-1.57462e-05
1.22487e-07
1.09621e-10
-1.58247e-05
7.84135e-08
6.10059e-11
-1.58796e-05
5.49028e-08
3.90814e-11
-1.59249e-05
4.52742e-08
3.39897e-11
-1.59697e-05
4.47363e-08
3.94941e-11
-1.60193e-05
4.95506e-08
5.18475e-11
-1.60753e-05
5.59748e-08
6.80124e-11
-1.61345e-05
5.9082e-08
8.35861e-11
-1.61862e-05
5.15674e-08
9.04691e-11
-1.62092e-05
2.29121e-08
7.8446e-11
-1.61666e-05
-4.26388e-08
4.34148e-11
-1.60063e-05
-1.60169e-07
-6.67834e-11
-1.56603e-05
-3.45793e-07
-2.80653e-10
-1.50543e-05
-6.05322e-07
-6.284e-10
-9.26148e-07
-1.13519e-09
-1.4127e-05
-3.42504e-05
3.20965e-06
-1.37203e-09
-3.59125e-05
2.35052e-06
-1.14984e-09
-3.70716e-05
1.63207e-06
-9.00689e-10
-3.78467e-05
1.08527e-06
-6.72677e-10
-3.83496e-05
6.99448e-07
-4.82575e-10
-3.86714e-05
4.44576e-07
-3.37152e-10
-3.88798e-05
2.87058e-07
-2.34915e-10
-3.90225e-05
1.97797e-07
-1.68623e-10
-3.91315e-05
1.54418e-07
-1.29232e-10
-3.9227e-05
1.40255e-07
-1.07486e-10
-3.93191e-05
1.41814e-07
-9.38988e-11
-3.94086e-05
1.4555e-07
-7.79618e-11
-3.94838e-05
1.34305e-07
-4.67253e-11
-3.9516e-05
8.37471e-08
1.624e-11
-3.94528e-05
-4.04305e-08
1.28973e-10
-3.92124e-05
-2.8336e-07
2.99527e-10
-3.86777e-05
-6.95395e-07
5.52554e-10
-3.77038e-05
-1.32058e-06
8.81906e-10
-3.61365e-05
-2.17384e-06
1.25517e-09
-3.21235e-06
1.58218e-09
-3.38519e-05
-4.87507e-05
6.29029e-06
-2.0529e-10
-5.0966e-05
4.56617e-06
-3.18777e-10
-5.24806e-05
3.14706e-06
-3.25355e-10
-5.34772e-05
2.08212e-06
-2.94224e-10
-5.41159e-05
1.33838e-06
-2.4103e-10
-5.45206e-05
8.49505e-07
-1.84155e-10
-5.478e-05
5.46569e-07
-1.35022e-10
-5.49542e-05
3.72043e-07
-9.67192e-11
-5.50822e-05
2.82558e-07
-6.84572e-11
-5.5188e-05
2.46096e-07
-4.75665e-11
-5.5283e-05
2.36843e-07
-3.03925e-11
-5.53665e-05
2.29076e-07
-1.26673e-11
-5.54228e-05
1.90559e-07
1.07086e-11
-5.54149e-05
7.58186e-08
4.47695e-11
-5.52762e-05
-1.79232e-07
9.22068e-11
-5.49002e-05
-6.59575e-07
1.54338e-10
-5.41326e-05
-1.46315e-06
2.31581e-10
-5.27748e-05
-2.67872e-06
3.13586e-10
-5.06055e-05
-4.34351e-06
3.80586e-10
-6.38257e-06
3.00663e-10
-4.74356e-05
-5.87333e-05
9.74813e-06
-2.54539e-10
-6.10902e-05
6.92354e-06
-4.04439e-10
-6.26154e-05
4.67254e-06
-3.77525e-10
-6.35679e-05
3.03502e-06
-3.25028e-10
-6.41508e-05
1.92154e-06
-2.52453e-10
-6.45059e-05
1.20475e-06
-1.82452e-10
-6.47259e-05
7.6671e-07
-1.2687e-10
-6.48693e-05
5.15525e-07
-8.59397e-11
-6.49719e-05
3.85213e-07
-5.69314e-11
-6.50546e-05
3.28824e-07
-3.6449e-11
-6.51273e-05
3.09546e-07
-2.10156e-11
-6.51894e-05
2.91253e-07
-7.12181e-12
-6.52274e-05
2.28541e-07
9.59391e-12
-6.52078e-05
5.61327e-08
3.34896e-11
-6.50667e-05
-3.20366e-07
6.81939e-11
-6.46947e-05
-1.03176e-06
1.23265e-10
-6.392e-05
-2.23798e-06
1.96385e-10
-6.24996e-05
-4.09941e-06
2.91355e-10
-6.01321e-05
-6.71149e-06
4.29824e-10
-9.99274e-06
3.48713e-10
-5.65222e-05
-6.50204e-05
1.31565e-05
-7.04025e-10
-6.70951e-05
8.99894e-06
-7.55418e-10
-6.82793e-05
5.85737e-06
-5.65378e-10
-6.89281e-05
3.68425e-06
-4.29898e-10
-6.92763e-05
2.27003e-06
-2.95908e-10
-6.94635e-05
1.39212e-06
-1.89133e-10
-6.95673e-05
8.70636e-07
-1.17815e-10
-6.96296e-05
5.77859e-07
-7.26112e-11
-6.96727e-05
4.28374e-07
-4.48475e-11
-6.97087e-05
3.64886e-07
-2.83188e-11
-6.97438e-05
3.44598e-07
-1.84292e-11
-6.9779e-05
3.26491e-07
-1.15232e-11
-6.98088e-05
2.58363e-07
-3.54691e-12
-6.98149e-05
6.22053e-08
1.08465e-11
-6.97547e-05
-3.80622e-07
4.05142e-11
-6.95403e-05
-1.24625e-06
1.03828e-10
-6.90082e-05
-2.77024e-06
1.99814e-10
-6.78845e-05
-5.22351e-06
3.5353e-10
-6.57657e-05
-8.83105e-06
7.33613e-10
-1.35878e-05
8.79905e-10
-6.21715e-05
-6.7937e-05
1.60265e-05
-1.64009e-09
-6.92517e-05
1.03149e-05
-1.2759e-09
-6.97391e-05
6.34553e-06
-7.13188e-10
-6.98543e-05
3.79986e-06
-4.69758e-10
-6.9831e-05
2.24706e-06
-2.73458e-10
-6.97725e-05
1.33368e-06
-1.40934e-10
-6.97161e-05
8.14354e-07
-6.93681e-11
-6.96716e-05
5.33414e-07
-3.23509e-11
-6.96391e-05
3.95813e-07
-1.39827e-11
-6.96168e-05
3.4266e-07
-5.97715e-12
-6.96051e-05
3.32916e-07
-3.92023e-12
-6.96073e-05
3.28614e-07
-5.51224e-12
-6.96293e-05
2.80407e-07
-9.3845e-12
-6.96774e-05
1.10296e-07
-1.18469e-11
-6.9748e-05
-3.09957e-07
1.74268e-12
-6.9806e-05
-1.1883e-06
5.48027e-11
-6.97387e-05
-2.83775e-06
1.40733e-10
-6.92818e-05
-5.68074e-06
3.14578e-10
-6.79262e-05
-1.01878e-05
1.19211e-09
-1.66327e-05
2.09999e-09
-6.48834e-05
-6.71804e-05
1.76945e-05
-4.51633e-09
-6.71725e-05
1.03097e-05
-2.71033e-09
-6.66381e-05
5.81226e-06
-1.11841e-09
-6.60723e-05
3.23467e-06
-5.87519e-10
-6.56273e-05
1.80224e-06
-2.53823e-10
-6.53154e-05
1.02193e-06
-7.92706e-11
-6.51063e-05
6.05199e-07
-1.29366e-11
-6.49649e-05
3.92004e-07
9.50669e-12
-6.48641e-05
2.95028e-07
1.45937e-11
-6.47868e-05
2.65381e-07
1.21705e-11
-6.4726e-05
2.72088e-07
5.90327e-12
-6.46854e-05
2.88006e-07
-3.59331e-12
-6.46818e-05
2.76812e-07
-1.73421e-11
-6.47478e-05
1.7633e-07
-3.3198e-11
-6.49308e-05
-1.26902e-07
-2.48522e-11
-6.52801e-05
-8.39114e-07
5.79344e-11
-6.57983e-05
-2.31978e-06
2.16712e-10
-6.6329e-05
-5.15056e-06
5.32479e-10
-6.63319e-05
-1.01875e-05
2.62996e-09
-1.84047e-05
5.67442e-09
-6.45656e-05
-6.15782e-05
1.71177e-05
-7.86076e-09
-5.96523e-05
8.38665e-06
-2.84421e-09
-5.79427e-05
4.1031e-06
-4.43683e-10
-5.67451e-05
2.03726e-06
-2.15686e-10
-5.59802e-05
1.03735e-06
5.07162e-13
-5.55095e-05
5.51158e-07
8.6702e-11
-5.52189e-05
3.14525e-07
7.97419e-11
-5.50304e-05
2.0348e-07
6.1857e-11
-5.4895e-05
1.59577e-07
4.8676e-11
-5.47839e-05
1.5424e-07
3.94936e-11
-5.46836e-05
1.71739e-07
3.21722e-11
-5.45952e-05
1.99568e-07
2.30603e-11
-5.45387e-05
2.2028e-07
4.20936e-12
-5.45625e-05
2.0017e-07
-3.4641e-11
-5.47569e-05
6.75519e-08
-5.80635e-11
-5.52646e-05
-3.31383e-07
2.6409e-11
-5.62703e-05
-1.31421e-06
9.2e-11
-5.78967e-05
-3.52404e-06
-1.78117e-10
-5.98534e-05
-8.23324e-06
2.48936e-09
-1.77952e-05
9.36774e-09
-6.04722e-05
-4.85303e-05
1.23463e-05
-1.02373e-08
-4.44532e-05
4.30544e-06
4.0998e-09
-4.19778e-05
1.62335e-06
4.39872e-09
-4.05933e-05
6.50986e-07
1.70082e-09
-3.98348e-05
2.78063e-07
8.27482e-10
-3.94149e-05
1.30733e-07
4.7451e-10
-3.91718e-05
7.1234e-08
2.57527e-10
-3.9017e-05
4.84487e-08
1.56301e-10
-3.89009e-05
4.33824e-08
1.21532e-10
-3.87956e-05
4.8842e-08
1.18765e-10
-3.8686e-05
6.2027e-08
1.32188e-10
-3.85681e-05
8.14601e-08
1.49882e-10
-3.84527e-05
1.04778e-07
1.48315e-10
-3.8378e-05
1.25358e-07
7.31997e-11
-3.84358e-05
1.25502e-07
-1.14259e-10
-3.88007e-05
3.38209e-08
-3.63378e-10
-3.98227e-05
-2.90821e-07
-1.3017e-09
-4.20572e-05
-1.28453e-06
-5.0588e-09
-4.61214e-05
-4.16308e-06
-5.9159e-09
-1.27618e-05
1.14499e-08
-5.11663e-05
-2.2934e-05
-5.15659e-08
-1.86216e-05
-7.01644e-09
-1.69981e-05
-7.68988e-11
-1.63459e-05
-1.20903e-09
-1.60671e-05
-7.58655e-10
-1.59361e-05
-3.15184e-10
-1.58647e-05
-1.5718e-10
-1.58161e-05
-9.28196e-11
-1.57727e-05
-6.23607e-11
-1.57238e-05
-5.20374e-11
-1.56617e-05
-5.27052e-11
-1.55802e-05
-5.54599e-11
-1.54754e-05
-4.65079e-11
-1.535e-05
-1.06256e-11
-1.52246e-05
8.41293e-11
-1.51912e-05
4.30759e-10
-1.54829e-05
8.30457e-10
-1.67662e-05
-1.23277e-09
-2.09337e-05
4.46855e-09
5.91337e-08
-3.37547e-05
-1.39568e-05
9.4766e-07
1.45815e-13
-1.46449e-05
6.89011e-07
1.37539e-13
-1.51176e-05
4.73263e-07
1.25782e-13
-1.54274e-05
3.10147e-07
8.63479e-14
-1.56236e-05
1.96418e-07
3.98438e-14
-1.57462e-05
1.22702e-07
-1.72036e-14
-1.58247e-05
7.85391e-08
7.74482e-15
-1.58796e-05
5.49905e-08
5.69952e-14
-1.5925e-05
4.53562e-08
3.48796e-14
-1.59697e-05
4.48317e-08
3.051e-14
-1.60194e-05
4.96702e-08
7.2313e-14
-1.60754e-05
5.61224e-08
9.76543e-14
-1.61346e-05
5.92514e-08
7.27797e-14
-1.61862e-05
5.17282e-08
2.22921e-14
-1.62091e-05
2.29549e-08
4.70057e-14
-1.61665e-05
-4.25866e-08
1.56847e-13
-1.60061e-05
-1.60392e-07
3.25801e-13
-1.566e-05
-3.4641e-07
5.00273e-13
-1.50541e-05
-6.06539e-07
7.18143e-13
-9.28336e-07
9.60979e-13
-1.41269e-05
-3.42484e-05
3.20945e-06
2.24484e-13
-3.59105e-05
2.34999e-06
2.1136e-13
-3.70698e-05
1.63161e-06
1.58978e-13
-3.78452e-05
1.08493e-06
1.1555e-13
-3.83485e-05
6.9923e-07
8.462e-14
-3.86706e-05
4.44451e-07
3.2239e-14
-3.88793e-05
2.86991e-07
2.37033e-14
-3.90222e-05
1.97759e-07
5.40385e-14
-3.91314e-05
1.54388e-07
3.35191e-14
-3.92269e-05
1.40216e-07
3.71523e-14
-3.9319e-05
1.41754e-07
8.85383e-14
-3.94085e-05
1.45459e-07
6.96171e-14
-3.94834e-05
1.34181e-07
-5.40687e-16
-3.95153e-05
8.35997e-08
-2.35113e-14
-3.94516e-05
-4.05764e-08
1.99344e-14
-3.92105e-05
-2.83367e-07
9.10799e-14
-3.86752e-05
-6.95169e-07
2.05999e-13
-3.77008e-05
-1.31995e-06
3.98582e-13
-3.61334e-05
-2.1727e-06
6.2829e-13
-3.21121e-06
8.05231e-13
-3.38489e-05
-4.87498e-05
6.28921e-06
3.55368e-13
-5.09647e-05
4.5646e-06
3.04477e-13
-5.24793e-05
3.14585e-06
2.41076e-13
-5.3476e-05
2.08131e-06
1.82561e-13
-5.41149e-05
1.3379e-06
1.12365e-13
-5.45199e-05
8.49257e-07
5.06838e-14
-5.47795e-05
5.46453e-07
2.63983e-14
-5.49538e-05
3.71988e-07
-1.03553e-14
-5.5082e-05
2.82516e-07
-4.2443e-14
-5.51879e-05
2.46036e-07
9.02872e-15
-5.52829e-05
2.36738e-07
6.00773e-14
-5.53663e-05
2.28909e-07
2.59953e-14
-5.54225e-05
1.90324e-07
-9.74869e-15
-5.54144e-05
7.5549e-08
-1.04964e-14
-5.52753e-05
-1.79514e-07
-4.47127e-15
-5.48989e-05
-6.59693e-07
4.17422e-14
-5.41309e-05
-1.46287e-06
1.81302e-13
-5.27729e-05
-2.67768e-06
3.62399e-13
-5.06038e-05
-4.3414e-06
4.75505e-13
-6.38036e-06
5.48286e-13
-4.74343e-05
-5.87328e-05
9.74551e-06
4.19836e-13
-6.1089e-05
6.92036e-06
3.4185e-13
-6.26139e-05
4.67041e-06
2.74854e-13
-6.35666e-05
3.0337e-06
1.72755e-13
-6.41498e-05
1.92081e-06
1.77099e-13
-6.45051e-05
1.20441e-06
1.16619e-13
-6.47253e-05
7.66569e-07
4.50042e-14
-6.48689e-05
5.15471e-07
-1.46604e-14
-6.49716e-05
3.85179e-07
-6.07305e-14
-6.50544e-05
3.28764e-07
-4.86207e-14
-6.51271e-05
3.09429e-07
-2.20707e-14
-6.51893e-05
2.91052e-07
-2.95704e-15
-6.52272e-05
2.2824e-07
1.05147e-14
-6.52074e-05
5.57935e-08
-2.42609e-15
-6.5066e-05
-3.20777e-07
-2.3475e-15
-6.46936e-05
-1.032e-06
6.16692e-14
-6.39186e-05
-2.23772e-06
1.61285e-13
-6.24979e-05
-4.09803e-06
2.20957e-13
-6.01309e-05
-6.70803e-06
2.58603e-13
-9.98887e-06
3.38829e-13
-5.6522e-05
-6.50196e-05
1.31502e-05
3.95854e-13
-6.7093e-05
8.99302e-06
3.44031e-13
-6.82773e-05
5.85412e-06
2.97239e-13
-6.89265e-05
3.68248e-06
2.23292e-13
-6.92751e-05
2.26917e-06
2.27093e-13
-6.94627e-05
1.39178e-06
1.22199e-13
-6.95668e-05
8.70532e-07
5.57828e-14
-6.96292e-05
5.77842e-07
2.43739e-14
-6.96724e-05
4.28365e-07
-1.1135e-14
-6.97085e-05
3.64839e-07
4.98761e-15
-6.97436e-05
3.44481e-07
4.04836e-14
-6.97788e-05
3.26271e-07
5.08553e-14
-6.98086e-05
2.58008e-07
2.14236e-14
-6.98146e-05
6.17884e-08
-1.17819e-14
-6.97541e-05
-3.812e-07
-2.78086e-14
-6.95393e-05
-1.2467e-06
-3.74374e-14
-6.90067e-05
-2.77018e-06
-8.39492e-14
-6.78824e-05
-5.22193e-06
-1.16248e-13
-6.57643e-05
-8.82545e-06
-6.3407e-14
-1.35803e-05
3.0612e-14
-6.2172e-05
-6.7935e-05
1.60121e-05
2.71094e-13
-6.9248e-05
1.03047e-05
2.57669e-13
-6.97362e-05
6.34155e-06
2.79855e-13
-6.98523e-05
3.79815e-06
2.70665e-13
-6.98298e-05
2.24643e-06
2.30987e-13
-6.97718e-05
1.33356e-06
1.84929e-13
-6.97157e-05
8.14401e-07
1.2509e-13
-6.96714e-05
5.33486e-07
4.66704e-14
-6.96389e-05
3.95855e-07
-1.28291e-14
-6.96167e-05
3.42647e-07
-1.74871e-14
-6.9605e-05
3.32824e-07
-6.92421e-15
-6.96072e-05
3.28408e-07
-1.77745e-14
-6.96292e-05
2.80042e-07
-4.24591e-14
-6.96772e-05
1.0979e-07
-7.9676e-14
-6.97477e-05
-3.10722e-07
-1.5848e-13
-6.98052e-05
-1.18913e-06
-2.64394e-13
-6.97369e-05
-2.83835e-06
-3.36912e-13
-6.92788e-05
-5.67972e-06
-3.61899e-13
-6.7924e-05
-1.01791e-05
-3.28386e-13
-1.66167e-05
-2.31439e-13
-6.48854e-05
-6.71755e-05
1.76601e-05
3.33666e-13
-6.7166e-05
1.02925e-05
3.04125e-13
-6.66341e-05
5.80845e-06
1.85369e-13
-6.60703e-05
3.2338e-06
1.42036e-13
-6.56264e-05
1.80224e-06
1.15128e-13
-6.53151e-05
1.0222e-06
1.50029e-13
-6.51061e-05
6.05438e-07
1.39224e-13
-6.49648e-05
3.92159e-07
6.56853e-14
-6.4864e-05
2.95107e-07
1.36372e-15
-6.47868e-05
2.65392e-07
-3.70532e-14
-6.4726e-05
2.72022e-07
-7.63969e-14
-6.46854e-05
2.87832e-07
-7.02598e-14
-6.46818e-05
2.76466e-07
-4.76327e-14
-6.47478e-05
1.75743e-07
-6.9582e-14
-6.49307e-05
-1.27818e-07
-2.06699e-13
-6.52794e-05
-8.40401e-07
-3.66274e-13
-6.57963e-05
-2.32127e-06
-4.3138e-13
-6.63247e-05
-5.15072e-06
-4.88096e-13
-6.63279e-05
-1.01733e-05
-5.1792e-13
-1.83673e-05
-3.96911e-13
-6.45717e-05
-6.15692e-05
1.70512e-05
3.02332e-13
-5.96463e-05
8.36677e-06
3.18361e-13
-5.79409e-05
4.10267e-06
2.28758e-13
-5.67452e-05
2.03782e-06
1.80428e-13
-5.59807e-05
1.03777e-06
1.32407e-13
-5.55099e-05
5.51524e-07
5.26345e-14
-5.52192e-05
3.14748e-07
2.30116e-14
-5.50305e-05
2.03595e-07
5.17999e-15
-5.4895e-05
1.59632e-07
-2.24765e-14
-5.47838e-05
1.54259e-07
-8.25397e-14
-5.46835e-05
1.71724e-07
-1.25291e-13
-5.45952e-05
1.99504e-07
-9.24813e-14
-5.45388e-05
2.20112e-07
-8.76024e-14
-5.45628e-05
1.99752e-07
-2.20664e-13
-5.47576e-05
6.68979e-08
-4.01609e-13
-5.52659e-05
-3.3213e-07
-5.21146e-13
-5.62714e-05
-1.31562e-06
-5.7972e-13
-5.78959e-05
-3.52647e-06
-6.68592e-13
-5.9849e-05
-8.21767e-06
-8.01404e-13
-1.77251e-05
-7.61286e-13
-6.04818e-05
-4.85203e-05
1.22862e-05
3.19207e-13
-4.44599e-05
4.31052e-06
2.65536e-13
-4.19842e-05
1.63128e-06
1.80209e-13
-4.05977e-05
6.5307e-07
8.59106e-14
-3.98374e-05
2.78303e-07
4.88978e-14
-3.94161e-05
1.30734e-07
9.49777e-15
-3.91724e-05
7.12311e-08
-1.36562e-14
-3.90171e-05
4.84736e-08
-3.44163e-14
-3.89008e-05
4.34483e-08
-7.10048e-14
-3.87954e-05
4.89586e-08
-1.10461e-13
-3.86857e-05
6.2212e-08
-1.21458e-13
-3.85678e-05
8.17443e-08
-1.0006e-13
-3.84528e-05
1.05208e-07
-1.28232e-13
-3.83789e-05
1.25924e-07
-2.2268e-13
-3.84377e-05
1.25571e-07
-3.73016e-13
-3.88054e-05
3.5245e-08
-5.3854e-13
-3.98312e-05
-2.91113e-07
-6.59819e-13
-4.20713e-05
-1.29145e-06
-8.84433e-13
-4.61247e-05
-4.17019e-06
-1.23382e-12
-1.27089e-05
-1.41884e-12
-5.11294e-05
-2.29298e-05
1.46711e-13
-1.86263e-05
4.19138e-14
-1.69951e-05
-2.51255e-14
-1.63433e-05
5.25108e-15
-1.60657e-05
4.1685e-14
-1.59353e-05
3.2325e-14
-1.58642e-05
1.41037e-15
-1.58158e-05
-2.20762e-14
-1.57725e-05
-6.64787e-14
-1.57236e-05
-1.18679e-13
-1.56614e-05
-1.30319e-13
-1.55797e-05
-1.16172e-13
-1.54745e-05
-1.13309e-13
-1.53486e-05
-1.55726e-13
-1.5223e-05
-3.02895e-13
-1.51873e-05
-5.20592e-13
-1.54776e-05
-8.25075e-13
-1.67703e-05
-1.33547e-12
-2.0936e-05
-1.80614e-12
-2.34595e-12
-3.35857e-05
-1.39568e-05
9.4766e-07
-1.36257e-09
-1.46449e-05
6.8901e-07
-9.22012e-10
-1.51176e-05
4.73263e-07
-5.86427e-10
-1.54274e-05
3.10147e-07
-3.51132e-10
-1.56236e-05
1.96418e-07
-1.99498e-10
-1.57462e-05
1.22702e-07
-1.09511e-10
-1.58247e-05
7.85391e-08
-6.09667e-11
-1.58796e-05
5.49904e-08
-3.90804e-11
-1.59249e-05
4.5356e-08
-3.3965e-11
-1.59697e-05
4.48315e-08
-3.95161e-11
-1.60194e-05
4.96699e-08
-5.19125e-11
-1.60754e-05
5.61219e-08
-6.80761e-11
-1.61346e-05
5.92509e-08
-8.35627e-11
-1.61862e-05
5.17278e-08
-9.03371e-11
-1.62091e-05
2.29546e-08
-7.82473e-11
-1.61665e-05
-4.25867e-08
-4.31106e-11
-1.60061e-05
-1.60392e-07
6.72278e-11
-1.566e-05
-3.46409e-07
2.81297e-10
-1.50541e-05
-6.06538e-07
6.29272e-10
-9.28334e-07
1.13629e-09
-1.41269e-05
-3.42483e-05
3.20944e-06
1.37252e-09
-3.59105e-05
2.34999e-06
1.1503e-09
-3.70697e-05
1.63161e-06
9.01097e-10
-3.78452e-05
1.08493e-06
6.72962e-10
-3.83485e-05
6.9923e-07
4.82756e-10
-3.86706e-05
4.44451e-07
3.3731e-10
-3.88792e-05
2.86991e-07
2.35043e-10
-3.90222e-05
1.97758e-07
1.68661e-10
-3.91313e-05