/*--------------------------------*- C++ -*----------------------------------*\
| =========                 |                                                 |
| \\      /  F ield         | OpenFOAM: The Open Source CFD Toolbox           |
|  \\    /   O peration     | Version:  2.4.0                                 |
|   \\  /    A nd           | Web:      www.OpenFOAM.org                      |
|    \\/     M anipulation  |                                                 |
\*---------------------------------------------------------------------------*/
FoamFile
{
    version     2.0;
    format      ascii;
    class       volVectorField;
    location    "0.5";
    object      U;
}
// * * * * * * * * * * * * * * * * * * * * * * * * * * * * * * * * * * * * * //

dimensions      [0 1 -1 0 0 0 0];

internalField   nonuniform List<vector> 
4800
(
(0.000123661 -0.000126158 1.92067e-08)
(-0.000341165 0.000251766 0.000148782)
(-0.00192552 0.000593602 0.000250978)
(-0.0041749 0.000795742 0.000277408)
(-0.00682168 0.000896096 0.000201587)
(-0.00965645 0.000929064 1.28089e-05)
(-0.0125157 0.000913408 -0.000290384)
(-0.0152632 0.000856063 -0.000705021)
(-0.0177732 0.000759414 -0.00122401)
(-0.0199331 0.000629839 -0.00183502)
(-0.000265429 0.000343842 -0.000149139)
(-0.00218102 0.00214415 9.06159e-07)
(-0.00629472 0.00365047 6.7592e-05)
(-0.0117403 0.00462496 5.10766e-05)
(-0.0180134 0.00516019 -5.83204e-05)
(-0.0247148 0.00535732 -0.000270451)
(-0.0314861 0.00527946 -0.000587945)
(-0.038003 0.00495633 -0.00100942)
(-0.043962 0.00440937 -0.00152986)
(-0.0490964 0.00368427 -0.00213992)
(-0.00063815 0.00198217 -0.000251404)
(-0.00381053 0.00629985 -6.31611e-05)
(-0.00992189 0.00968196 3.05736e-06)
(-0.0177258 0.0119411 -2.59054e-05)
(-0.0265821 0.0132346 -0.00014513)
(-0.0360036 0.0137313 -0.000361541)
(-0.0455229 0.0135391 -0.000677062)
(-0.054688 0.0127121 -0.00109117)
(-0.0630548 0.0113032 -0.00160097)
(-0.0702156 0.00943431 -0.00219997)
(-0.000879476 0.00437444 -0.00026891)
(-0.00494612 0.0119333 -3.35708e-05)
(-0.0125165 0.017564 4.44764e-05)
(-0.022009 0.0213295 1.5637e-05)
(-0.0326899 0.0235201 -0.000104394)
(-0.0440324 0.0243806 -0.000320078)
(-0.0555086 0.0240457 -0.00063288)
(-0.0665732 0.0225686 -0.00104367)
(-0.0766482 0.0200144 -0.00155248)
(-0.085156 0.01659 -0.00215684)
(-0.00101249 0.00725803 -0.0001646)
(-0.0056233 0.0185573 0.000110018)
(-0.014121 0.026688 0.000199273)
(-0.0247021 0.0321049 0.000174902)
(-0.0365815 0.0352947 5.91198e-05)
(-0.0492235 0.0365876 -0.000151499)
(-0.0620723 0.0361192 -0.000459322)
(-0.0745096 0.0338944 -0.000868156)
(-0.0858148 0.029939 -0.001383)
(-0.0951706 0.0245192 -0.00200924)
(-0.00106169 0.0103978 8.03615e-05)
(-0.00590309 0.0257394 0.000385079)
(-0.0148225 0.0365436 0.000482508)
(-0.0259279 0.0437319 0.000465462)
(-0.0384289 0.0480308 0.000358976)
(-0.0518102 0.0498605 0.00015922)
(-0.0655199 0.049325 -0.000138838)
(-0.0788939 0.046313 -0.000544226)
(-0.0910684 0.0407134 -0.00107027)
(-0.100879 0.032758 -0.0017394)
(-0.0010417 0.0135873 0.00047105)
(-0.0058293 0.0330597 0.000797325)
(-0.0146862 0.0466099 0.000899186)
(-0.0257538 0.0556491 0.000892059)
(-0.0382783 0.0611632 0.000801031)
(-0.0517901 0.0636637 0.000620919)
(-0.0657767 0.0631907 0.000342375)
(-0.0795778 0.0594326 -5.14255e-05)
(-0.0922394 0.0519861 -0.000586251)
(-0.102133 0.04081 -0.00132194)
(-0.000960101 0.0166423 0.00100294)
(-0.00543027 0.0401193 0.00134328)
(-0.0137555 0.0563654 0.00144611)
(-0.0242063 0.0672587 0.00145207)
(-0.0360853 0.0740453 0.00138457)
(-0.0489746 0.077332 0.00123714)
(-0.0624251 0.0770809 0.000995366)
(-0.0758476 0.072707 0.00063285)
(-0.0883612 0.0633105 0.000109406)
(-0.0978329 0.0480683 -0.000711501)
(-0.000823683 0.0193933 0.00166264)
(-0.00474007 0.0465413 0.00201107)
(-0.012098 0.0652881 0.00211214)
(-0.021354 0.0779129 0.00213482)
(-0.0318515 0.0859011 0.00210021)
(-0.0431841 0.0899685 0.00200192)
(-0.0549293 0.0900328 0.00182119)
(-0.0665841 0.0852518 0.00152072)
(-0.0776275 0.0741336 0.00104948)
(-0.0857212 0.0543429 0.000123766)
(-0.000645852 0.0216952 0.00242804)
(-0.00382756 0.051996 0.00278092)
(-0.00987088 0.0728919 0.00287829)
(-0.0174358 0.0869473 0.00292095)
(-0.0258515 0.095827 0.00292871)
(-0.03461 0.10034 0.00289993)
(-0.0431344 0.100403 0.00281944)
(-0.0507277 0.095019 0.00264915)
(-0.0572378 0.0823085 0.00236828)
(-0.061577 0.0587465 0.00152303)
(0.000127783 -0.000130087 1.94345e-08)
(-0.000335834 0.000246435 1.14912e-06)
(-0.00192339 0.000582776 1.49217e-06)
(-0.00417341 0.000781494 1.84424e-06)
(-0.00682093 0.000880283 2.04287e-06)
(-0.00965631 0.000912626 2.18826e-06)
(-0.0125161 0.000897193 2.07635e-06)
(-0.0152642 0.000840829 1.96104e-06)
(-0.0177749 0.000745822 1.75934e-06)
(-0.0199355 0.000618277 1.44791e-06)
(-0.000259673 0.000338409 -1.04392e-06)
(-0.0021785 0.00214174 1.16767e-07)
(-0.00629991 0.00364214 -1.03431e-06)
(-0.0117429 0.00461362 -1.43081e-06)
(-0.0180145 0.00514809 -1.5788e-06)
(-0.024715 0.00534501 -1.66429e-06)
(-0.0314854 0.00526745 -1.65599e-06)
(-0.0380018 0.00494517 -1.53873e-06)
(-0.043961 0.00439957 -1.36015e-06)
(-0.0490959 0.00367582 -1.18899e-06)
(-0.000626781 0.00197935 -1.46988e-06)
(-0.00380239 0.00630447 1.21747e-06)
(-0.00992645 0.00968519 1.52067e-08)
(-0.017727 0.0119445 -7.53102e-08)
(-0.0265818 0.0132392 6.23087e-08)
(-0.0360034 0.0137366 7.28887e-08)
(-0.0455224 0.0135447 8.27506e-08)
(-0.0546874 0.0127178 1.09279e-07)
(-0.063055 0.0113088 1.32866e-07)
(-0.0702173 0.0094389 6.69307e-08)
(-0.000864391 0.00437229 -1.92201e-06)
(-0.004935 0.0119356 1.60301e-06)
(-0.0125219 0.0175641 1.87517e-08)
(-0.0220097 0.021329 -8.46934e-08)
(-0.0326889 0.0235199 1.27649e-07)
(-0.0440317 0.0243806 1.67289e-07)
(-0.0555078 0.0240461 1.97235e-07)
(-0.0665722 0.0225696 2.47696e-07)
(-0.0766485 0.0200167 3.30703e-07)
(-0.0851596 0.0165922 2.70989e-07)
(-0.000995535 0.00725693 -2.1802e-06)
(-0.00561138 0.0185583 1.76907e-06)
(-0.0141279 0.0266872 -1.6465e-07)
(-0.0247034 0.032103 -3.56535e-07)
(-0.0365805 0.0352926 -1.46311e-07)
(-0.0492226 0.0365854 -1.06861e-07)
(-0.0620708 0.0361171 -5.97923e-08)
(-0.0745072 0.0338931 3.99866e-08)
(-0.0858139 0.0299405 3.08447e-07)
(-0.0951767 0.0245219 4.07976e-07)
(-0.00104395 0.0103977 -2.26589e-06)
(-0.00589098 0.0257398 1.8845e-06)
(-0.0148305 0.036543 -1.99758e-07)
(-0.0259297 0.0437307 -4.35314e-07)
(-0.0384282 0.0480291 -2.36775e-07)
(-0.0518095 0.0498585 -2.08155e-07)
(-0.0655182 0.0493226 -1.75738e-07)
(-0.0788894 0.0463109 -9.23649e-08)
(-0.0910648 0.0407167 4.55279e-07)
(-0.10089 0.032766 9.54468e-07)
(-0.0010242 0.013588 -2.22784e-06)
(-0.00581758 0.0330593 1.87882e-06)
(-0.0146945 0.0466096 -2.10843e-07)
(-0.0257563 0.0556484 -4.7454e-07)
(-0.0382782 0.0611618 -3.12778e-07)
(-0.0517899 0.0636616 -3.10566e-07)
(-0.0657752 0.0631876 -3.3312e-07)
(-0.0795696 0.059429 -4.15438e-07)
(-0.0922282 0.0519933 5.83999e-07)
(-0.102156 0.0408366 2.2568e-06)
(-0.000943777 0.0166439 -2.06453e-06)
(-0.00541951 0.0401185 1.76826e-06)
(-0.0137638 0.0563654 -2.03739e-07)
(-0.0242093 0.0672586 -4.80755e-07)
(-0.0360859 0.0740442 -3.70598e-07)
(-0.0489755 0.0773294 -3.73219e-07)
(-0.0624247 0.0770749 -3.96994e-07)
(-0.0758321 0.0726932 -7.37179e-07)
(-0.0883258 0.0633048 1.50793e-06)
(-0.0978694 0.048109 8.0013e-06)
(-0.000809335 0.0193958 -1.77142e-06)
(-0.00473074 0.0465405 1.59124e-06)
(-0.0121057 0.065289 -1.58709e-07)
(-0.0213575 0.0779144 -4.43826e-07)
(-0.0318538 0.0859022 -4.42869e-07)
(-0.0431886 0.0899681 -5.59979e-07)
(-0.0549382 0.0900266 -8.327e-07)
(-0.0665732 0.0852228 -2.61043e-06)
(-0.0775547 0.0740736 -5.07249e-07)
(-0.0857593 0.0543116 1.77765e-05)
(-0.00063399 0.0216984 -1.35881e-06)
(-0.00381971 0.0519955 1.39792e-06)
(-0.00987701 0.0728941 -3.18029e-08)
(-0.0174386 0.0869519 -2.72993e-07)
(-0.025854 0.0958347 -3.66407e-07)
(-0.0346176 0.100355 -7.04608e-07)
(-0.0431608 0.100432 -1.64959e-06)
(-0.0507601 0.0950622 -7.53489e-06)
(-0.0571816 0.0823518 -1.65315e-05)
(-0.0616378 0.0588224 3.23989e-06)
(0.000127784 -0.000130086 -1.75411e-08)
(-0.000335834 0.000246436 -1.14706e-06)
(-0.00192339 0.000582776 -1.49068e-06)
(-0.0041734 0.000781494 -1.84311e-06)
(-0.00682093 0.000880282 -2.04199e-06)
(-0.0096563 0.000912625 -2.18753e-06)
(-0.012516 0.000897193 -2.07572e-06)
(-0.0152641 0.000840828 -1.96052e-06)
(-0.0177749 0.000745821 -1.75887e-06)
(-0.0199355 0.000618277 -1.44743e-06)
(-0.000259672 0.00033841 1.04661e-06)
(-0.0021785 0.00214174 -1.14235e-07)
(-0.0062999 0.00364214 1.0364e-06)
(-0.0117429 0.00461361 1.43263e-06)
(-0.0180145 0.00514809 1.58035e-06)
(-0.0247149 0.00534501 1.66568e-06)
(-0.0314854 0.00526745 1.65724e-06)
(-0.0380018 0.00494517 1.53981e-06)
(-0.0439609 0.00439957 1.36107e-06)
(-0.0490959 0.00367582 1.18981e-06)
(-0.00062678 0.00197935 1.47329e-06)
(-0.00380238 0.00630446 -1.21442e-06)
(-0.00992644 0.00968518 -1.25837e-08)
(-0.017727 0.0119445 7.7693e-08)
(-0.0265818 0.0132392 -6.01964e-08)
(-0.0360033 0.0137366 -7.09607e-08)
(-0.0455223 0.0135447 -8.09849e-08)
(-0.0546874 0.0127178 -1.07767e-07)
(-0.063055 0.0113088 -1.31594e-07)
(-0.0702173 0.0094389 -6.58634e-08)
(-0.000864389 0.00437229 1.92595e-06)
(-0.004935 0.0119356 -1.59947e-06)
(-0.0125218 0.0175641 -1.56915e-08)
(-0.0220097 0.0213289 8.74893e-08)
(-0.0326889 0.0235199 -1.25169e-07)
(-0.0440317 0.0243806 -1.64987e-07)
(-0.0555077 0.0240461 -1.95147e-07)
(-0.0665721 0.0225696 -2.45905e-07)
(-0.0766484 0.0200166 -3.29183e-07)
(-0.0851595 0.0165922 -2.69746e-07)
(-0.000995533 0.00725693 2.18452e-06)
(-0.00561137 0.0185583 -1.76509e-06)
(-0.0141279 0.0266871 1.68135e-07)
(-0.0247034 0.032103 3.59769e-07)
(-0.0365805 0.0352926 1.49225e-07)
(-0.0492226 0.0365854 1.09512e-07)
(-0.0620708 0.0361171 6.2158e-08)
(-0.0745072 0.0338931 -3.79422e-08)
(-0.0858139 0.0299405 -3.06749e-07)
(-0.0951766 0.0245219 -4.06614e-07)
(-0.00104395 0.0103976 2.27044e-06)
(-0.00589097 0.0257398 -1.88026e-06)
(-0.0148304 0.036543 2.03477e-07)
(-0.0259297 0.0437307 4.3875e-07)
(-0.0384281 0.0480291 2.39932e-07)
(-0.0518094 0.0498584 2.11021e-07)
(-0.0655181 0.0493226 1.78267e-07)
(-0.0788893 0.0463109 9.45478e-08)
(-0.0910647 0.0407167 -4.535e-07)
(-0.10089 0.032766 -9.53063e-07)
(-0.00102419 0.013588 2.23244e-06)
(-0.00581757 0.0330593 -1.87457e-06)
(-0.0146945 0.0466095 2.14603e-07)
(-0.0257562 0.0556483 4.78053e-07)
(-0.0382781 0.0611617 3.16023e-07)
(-0.0517898 0.0636615 3.13508e-07)
(-0.0657752 0.0631875 3.357e-07)
(-0.0795696 0.0594289 4.17624e-07)
(-0.0922281 0.0519933 -5.8225e-07)
(-0.102156 0.0408365 -2.25542e-06)
(-0.000943776 0.0166439 2.06897e-06)
(-0.0054195 0.0401184 -1.76414e-06)
(-0.0137638 0.0563653 2.0746e-07)
(-0.0242093 0.0672586 4.84237e-07)
(-0.0360859 0.0740442 3.73776e-07)
(-0.0489754 0.0773294 3.76086e-07)
(-0.0624247 0.0770748 3.99539e-07)
(-0.0758321 0.0726932 7.39331e-07)
(-0.0883257 0.0633048 -1.50619e-06)
(-0.0978694 0.048109 -8.00002e-06)
(-0.000809333 0.0193958 1.77547e-06)
(-0.00473073 0.0465405 -1.58739e-06)
(-0.0121057 0.065289 1.62236e-07)
(-0.0213575 0.0779144 4.47112e-07)
(-0.0318538 0.0859021 4.45896e-07)
(-0.0431886 0.089968 5.62752e-07)
(-0.0549382 0.0900266 8.3518e-07)
(-0.0665732 0.0852228 2.61255e-06)
(-0.0775547 0.0740736 5.09021e-07)
(-0.0857593 0.0543116 -1.77751e-05)
(-0.000633989 0.0216984 1.36233e-06)
(-0.0038197 0.0519954 -1.39444e-06)
(-0.009877 0.0728941 3.50271e-08)
(-0.0174386 0.0869519 2.76032e-07)
(-0.025854 0.0958347 3.69258e-07)
(-0.0346176 0.100355 7.07248e-07)
(-0.0431607 0.100432 1.65195e-06)
(-0.0507601 0.0950621 7.53705e-06)
(-0.0571816 0.0823518 1.65334e-05)
(-0.0616378 0.0588225 -3.23831e-06)
(0.000123663 -0.000126155 -2.11972e-08)
(-0.000341163 0.000251766 -0.000148784)
(-0.00192552 0.000593601 -0.00025098)
(-0.00417489 0.00079574 -0.000277409)
(-0.00682166 0.000896094 -0.000201588)
(-0.00965643 0.000929062 -1.28097e-05)
(-0.0125157 0.000913406 0.000290384)
(-0.0152632 0.000856061 0.000705021)
(-0.0177732 0.000759413 0.00122401)
(-0.0199331 0.000629838 0.00183502)
(-0.000265426 0.000343845 0.000149136)
(-0.00218101 0.00214415 -9.08835e-07)
(-0.00629471 0.00365047 -6.75942e-05)
(-0.0117403 0.00462496 -5.10785e-05)
(-0.0180134 0.00516018 5.83188e-05)
(-0.0247147 0.00535731 0.000270449)
(-0.031486 0.00527945 0.000587944)
(-0.0380029 0.00495632 0.00100941)
(-0.043962 0.00440937 0.00152986)
(-0.0490963 0.00368427 0.00213991)
(-0.000638146 0.00198217 0.0002514)
(-0.00381051 0.00629984 6.31579e-05)
(-0.00992186 0.00968195 -3.06013e-06)
(-0.0177258 0.011941 2.59029e-05)
(-0.026582 0.0132345 0.000145128)
(-0.0360036 0.0137313 0.000361539)
(-0.0455228 0.0135391 0.00067706)
(-0.0546879 0.0127121 0.00109117)
(-0.0630547 0.0113032 0.00160096)
(-0.0702155 0.0094343 0.00219997)
(-0.000879472 0.00437443 0.000268905)
(-0.0049461 0.0119333 3.3567e-05)
(-0.0125165 0.0175639 -4.44797e-05)
(-0.0220089 0.0213295 -1.564e-05)
(-0.0326898 0.0235201 0.000104392)
(-0.0440323 0.0243805 0.000320076)
(-0.0555085 0.0240457 0.000632878)
(-0.066573 0.0225686 0.00104366)
(-0.076648 0.0200144 0.00155247)
(-0.0851558 0.01659 0.00215684)
(-0.00101249 0.00725802 0.000164596)
(-0.00562328 0.0185573 -0.000110022)
(-0.0141209 0.026688 -0.000199276)
(-0.024702 0.0321048 -0.000174905)
(-0.0365814 0.0352946 -5.91229e-05)
(-0.0492234 0.0365875 0.000151496)
(-0.0620721 0.0361191 0.00045932)
(-0.0745095 0.0338944 0.000868154)
(-0.0858147 0.029939 0.001383)
(-0.0951704 0.0245192 0.00200924)
(-0.00106169 0.0103978 -8.03663e-05)
(-0.00590307 0.0257394 -0.000385084)
(-0.0148225 0.0365435 -0.000482512)
(-0.0259278 0.0437318 -0.000465466)
(-0.0384288 0.0480307 -0.00035898)
(-0.0518101 0.0498605 -0.000159223)
(-0.0655198 0.049325 0.000138835)
(-0.0788938 0.0463129 0.000544223)
(-0.0910683 0.0407134 0.00107027)
(-0.100879 0.032758 0.00173939)
(-0.0010417 0.0135873 -0.000471055)
(-0.00582928 0.0330596 -0.00079733)
(-0.0146861 0.0466098 -0.00089919)
(-0.0257538 0.055649 -0.000892063)
(-0.0382782 0.0611631 -0.000801035)
(-0.05179 0.0636636 -0.000620922)
(-0.0657766 0.0631906 -0.000342378)
(-0.0795777 0.0594326 5.14232e-05)
(-0.0922393 0.0519861 0.000586249)
(-0.102132 0.04081 0.00132194)
(-0.000960097 0.0166423 -0.00100294)
(-0.00543025 0.0401192 -0.00134329)
(-0.0137555 0.0563652 -0.00144612)
(-0.0242063 0.0672586 -0.00145207)
(-0.0360852 0.0740451 -0.00138457)
(-0.0489746 0.0773319 -0.00123714)
(-0.0624251 0.0770808 -0.000995369)
(-0.0758475 0.0727069 -0.000632852)
(-0.0883612 0.0633105 -0.000109408)
(-0.0978328 0.0480683 0.000711499)
(-0.000823679 0.0193933 -0.00166264)
(-0.00474006 0.0465412 -0.00201107)
(-0.012098 0.065288 -0.00211215)
(-0.0213539 0.0779127 -0.00213483)
(-0.0318515 0.085901 -0.00210021)
(-0.0431841 0.0899684 -0.00200193)
(-0.0549293 0.0900328 -0.00182119)
(-0.0665841 0.0852517 -0.00152073)
(-0.0776275 0.0741335 -0.00104948)
(-0.0857212 0.0543429 -0.000123768)
(-0.000645849 0.0216952 -0.00242805)
(-0.00382755 0.0519959 -0.00278093)
(-0.00987087 0.0728918 -0.00287829)
(-0.0174357 0.0869471 -0.00292095)
(-0.0258515 0.0958269 -0.00292871)
(-0.03461 0.10034 -0.00289994)
(-0.0431343 0.100403 -0.00281944)
(-0.0507277 0.095019 -0.00264915)
(-0.0572378 0.0823085 -0.00236828)
(-0.061577 0.0587465 -0.00152303)
(-0.0216673 0.000484046 -0.00251996)
(-0.0229648 0.000345984 -0.0032574)
(-0.0238767 0.000231914 -0.00402821)
(-0.0244849 0.000147153 -0.00481806)
(-0.0248742 8.95812e-05 -0.00561754)
(-0.0251172 5.36929e-05 -0.00642118)
(-0.0252693 3.35301e-05 -0.00722632)
(-0.02537 2.41752e-05 -0.0080321)
(-0.0254462 2.21212e-05 -0.00883876)
(-0.0255159 2.50355e-05 -0.00964726)
(-0.0255904 3.1255e-05 -0.0104592)
(-0.0256754 3.91498e-05 -0.0112767)
(-0.0257703 4.63935e-05 -0.0121025)
(-0.0258648 4.91871e-05 -0.0129396)
(-0.0259347 4.16336e-05 -0.0137913)
(-0.0259343 1.56123e-05 -0.0146601)
(-0.0257927 -4.01559e-05 -0.0155458)
(-0.0254115 -0.000135237 -0.0164448)
(-0.0246724 -0.00027454 -0.0173464)
(-0.0234595 -0.00045213 -0.0182318)
(-0.0532302 0.00287465 -0.00282497)
(-0.0563421 0.00210439 -0.00356647)
(-0.058555 0.00145792 -0.00434778)
(-0.0600571 0.000965197 -0.00515575)
(-0.0610409 0.000618165 -0.00598065)
(-0.0616709 0.000390353 -0.00681596)
(-0.0620737 0.000251465 -0.00765765)
(-0.0623401 0.000175112 -0.00850354)
(-0.0625321 0.000141092 -0.00935275)
(-0.0626902 0.000134558 -0.0102054)
(-0.0628384 0.000143675 -0.0110622)
(-0.0629859 0.000156576 -0.0119247)
(-0.0631251 0.000157944 -0.0127946)
(-0.0632259 0.000125551 -0.0136739)
(-0.0632262 2.75687e-05 -0.0145643)
(-0.0630206 -0.000177961 -0.0154665)
(-0.06245 -0.000539824 -0.0163794)
(-0.0613006 -0.00109972 -0.0172978)
(-0.0593219 -0.00187256 -0.0182115)
(-0.0562726 -0.00281986 -0.0191034)
(-0.0758948 0.00735253 -0.00287537)
(-0.0800789 0.00538444 -0.00360723)
(-0.0829905 0.00374183 -0.00437934)
(-0.0849312 0.00249267 -0.00517926)
(-0.0861845 0.0016107 -0.00599758)
(-0.086979 0.00102654 -0.00682774)
(-0.0874826 0.000663398 -0.00766553)
(-0.0878112 0.000454997 -0.00850843)
(-0.0880415 0.000350293 -0.00935519)
(-0.0882222 0.000311081 -0.0102055)
(-0.088381 0.000306273 -0.0110597)
(-0.0885269 0.000304702 -0.0119186)
(-0.0886485 0.000267236 -0.0127836)
(-0.0887066 0.0001389 -0.0136562)
(-0.088622 -0.000157308 -0.0145374)
(-0.08826 -0.000721745 -0.0154281)
(-0.0874136 -0.00166719 -0.0163271)
(-0.0857963 -0.00309166 -0.0172305)
(-0.0830579 -0.00502879 -0.0181302)
(-0.0788391 -0.00738327 -0.0190117)
(-0.0916785 0.0127687 -0.00284474)
(-0.0962361 0.00921628 -0.003588)
(-0.0992313 0.0063182 -0.00436851)
(-0.101122 0.00416145 -0.00517407)
(-0.102285 0.00266567 -0.00599567)
(-0.102991 0.00168732 -0.00682736)
(-0.103424 0.00108237 -0.00766544)
(-0.103697 0.000732982 -0.0085077)
(-0.103884 0.000551505 -0.00935301)
(-0.104027 0.000473812 -0.010201)
(-0.104149 0.00044853 -0.0110518)
(-0.10426 0.000424719 -0.0119059)
(-0.104349 0.000338662 -0.0127644)
(-0.104381 0.000100397 -0.0136284)
(-0.104286 -0.000417948 -0.0144992)
(-0.103929 -0.00138677 -0.015378)
(-0.103092 -0.00300602 -0.0162656)
(-0.101444 -0.00546177 -0.0171606)
(-0.0985366 -0.0088409 -0.0180584)
(-0.0938447 -0.0130041 -0.018949)
(-0.101905 0.0184261 -0.00273673)
(-0.106121 0.0129262 -0.00351449)
(-0.108563 0.00861831 -0.00432088)
(-0.109917 0.0055365 -0.00514483)
(-0.110646 0.00347216 -0.00597843)
(-0.111035 0.00215984 -0.00681731)
(-0.111246 0.00136544 -0.00765916)
(-0.111368 0.000912597 -0.00850277)
(-0.111446 0.000677901 -0.00934757)
(-0.111506 0.000575376 -0.0101934)
(-0.111562 0.000538757 -0.0110403)
(-0.111619 0.000503564 -0.0118887)
(-0.111675 0.000388483 -0.0127391)
(-0.111715 7.54121e-05 -0.0135926)
(-0.111696 -0.000610682 -0.0144506)
(-0.111524 -0.00191569 -0.0153154)
(-0.11101 -0.00415114 -0.0161901)
(-0.109819 -0.00764393 -0.0170775)
(-0.107408 -0.0126144 -0.0179794)
(-0.103002 -0.018952 -0.0188944)
(-0.107158 0.023658 -0.00255092)
(-0.110196 0.0158339 -0.00339401)
(-0.1114 0.0100898 -0.00424535)
(-0.111758 0.00622476 -0.00509961)
(-0.111774 0.00377169 -0.00595222)
(-0.111686 0.00228138 -0.0068022)
(-0.111587 0.00141169 -0.00764996)
(-0.111505 0.000930535 -0.00849601)
(-0.111444 0.000688404 -0.00934077)
(-0.111401 0.0005883 -0.0101845)
(-0.111373 0.000559825 -0.0110272)
(-0.111364 0.000536436 -0.0118691)
(-0.111381 0.000432689 -0.0127103)
(-0.111436 0.000118232 -0.0135514)
(-0.111537 -0.000613115 -0.0143938)
(-0.111667 -0.00207552 -0.0152408)
(-0.111727 -0.00471079 -0.0160982)
(-0.111456 -0.00905808 -0.0169746)
(-0.110276 -0.0156182 -0.0178809)
(-0.107065 -0.0245045 -0.0188358)
(-0.107087 0.0275754 -0.00229821)
(-0.10786 0.0171057 -0.00324845)
(-0.107115 0.0101621 -0.00416279)
(-0.106135 0.00589703 -0.00505506)
(-0.105307 0.00339482 -0.00592891)
(-0.104709 0.00197195 -0.00679001)
(-0.104306 0.00118565 -0.00764308)
(-0.104037 0.000771001 -0.00849097)
(-0.103852 0.000574282 -0.00933525)
(-0.103714 0.000504633 -0.0101766)
(-0.103604 0.000501469 -0.011015)
(-0.103519 0.000510024 -0.01185)
(-0.103474 0.000458027 -0.0126813)
(-0.103509 0.000227 -0.0135085)
(-0.10369 -0.000388315 -0.0143324)
(-0.104104 -0.00173688 -0.0151563)
(-0.104818 -0.00437668 -0.0159886)
(-0.10578 -0.00911796 -0.0168441)
(-0.106574 -0.0169581 -0.0177472)
(-0.105729 -0.0286808 -0.0187578)
(-0.100022 0.0287175 -0.00200731)
(-0.0971083 0.0156298 -0.00311563)
(-0.0938877 0.00830105 -0.00410349)
(-0.0915651 0.00438685 -0.00503277)
(-0.0900481 0.00234066 -0.00592239)
(-0.0891069 0.00128378 -0.00678911)
(-0.0885326 0.000744268 -0.00764352)
(-0.088172 0.000479729 -0.00849079)
(-0.0879267 0.000366869 -0.00933331)
(-0.0877369 0.000341171 -0.0101718)
(-0.0875699 0.000364508 -0.0110059)
(-0.0874151 0.000404929 -0.0118345)
(-0.0872868 0.00041864 -0.0126561)
(-0.0872356 0.000325857 -0.013469)
(-0.0873684 -3.05054e-05 -0.0142722)
(-0.0878702 -0.000959792 -0.0150679)
(-0.0890121 -0.00304167 -0.0158657)
(-0.0911212 -0.00730971 -0.0166863)
(-0.0943789 -0.0154644 -0.0175666)
(-0.0974083 -0.029885 -0.0186398)
(-0.0820329 0.0252258 -0.00186998)
(-0.0739611 0.0106456 -0.00314115)
(-0.068633 0.00457116 -0.00414495)
(-0.0657566 0.00202794 -0.00507123)
(-0.0641814 0.000939183 -0.00595092)
(-0.0633123 0.000465558 -0.00680784)
(-0.0628236 0.000257009 -0.00765514)
(-0.0625288 0.000168844 -0.00849759)
(-0.0623252 0.000141156 -0.00933662)
(-0.0621555 0.00014846 -0.0101721)
(-0.0619868 0.000178979 -0.0110027)
(-0.0618033 0.000224739 -0.0118264)
(-0.0616077 0.000273862 -0.0126401)
(-0.0614336 0.000299018 -0.0134399)
(-0.0613741 0.000233012 -0.0142212)
(-0.0616248 -9.25897e-05 -0.0149827)
(-0.0625633 -0.00110366 -0.0157279)
(-0.0649195 -0.00377559 -0.0164728)
(-0.0701261 -0.010409 -0.0172416)
(-0.0786214 -0.0262455 -0.0182912)
(-0.0437576 0.0159706 -0.00228892)
(-0.0323996 0.0044798 -0.00348747)
(-0.0279547 0.00131083 -0.00421327)
(-0.0264527 0.000389798 -0.00495513)
(-0.0258453 0.000114409 -0.00571398)
(-0.0255653 3.50357e-05 -0.00648521)
(-0.0254238 1.50163e-05 -0.00726631)
(-0.0253379 1.30869e-05 -0.00805301)
(-0.0252696 1.77894e-05 -0.00884177)
(-0.0251989 2.66894e-05 -0.00962983)
(-0.0251121 4.01278e-05 -0.0104144)
(-0.0249981 5.93817e-05 -0.0111921)
(-0.0248477 8.57547e-05 -0.0119581)
(-0.0246564 0.000118767 -0.0127052)
(-0.0244368 0.000150599 -0.013422)
(-0.0242591 0.000143276 -0.0140909)
(-0.0243055 -6.64231e-05 -0.0146961)
(-0.0251691 -0.000987195 -0.0152092)
(-0.0292201 -0.00441786 -0.0155752)
(-0.0414487 -0.0170564 -0.0162553)
(-0.0216698 0.000474596 1.06174e-06)
(-0.0229668 0.000338716 7.18621e-07)
(-0.0238781 0.000226631 4.572e-07)
(-0.0244858 0.000143478 2.73834e-07)
(-0.0248747 8.71117e-05 1.5559e-07)
(-0.0251174 5.20656e-05 8.53754e-08)
(-0.0252693 3.24514e-05 4.75274e-08)
(-0.02537 2.34256e-05 3.04805e-08)
(-0.0254461 2.15466e-05 2.64996e-08)
(-0.0255158 2.45365e-05 3.07846e-08)
(-0.0255902 3.07796e-05 4.04369e-08)
(-0.0256752 3.8694e-05 5.30458e-08)
(-0.0257701 4.60128e-05 6.51578e-08)
(-0.0258646 4.9015e-05 7.04886e-08)
(-0.0259345 4.1896e-05 6.11488e-08)
(-0.0259344 1.66196e-05 3.39402e-08)
(-0.0257932 -3.78868e-05 -5.17892e-08)
(-0.0254127 -0.00013111 -2.18262e-07)
(-0.0246746 -0.000267998 -4.88988e-07)
(-0.0234625 -0.000442883 -8.83582e-07)
(-0.0532297 0.00286711 -1.06695e-06)
(-0.056341 0.00209828 -8.94147e-07)
(-0.0585535 0.00145337 -7.00396e-07)
(-0.0600556 0.000961977 -5.23093e-07)
(-0.0610395 0.000615978 -3.75267e-07)
(-0.0616698 0.000388906 -2.62202e-07)
(-0.0620729 0.000250512 -1.82692e-07)
(-0.0623395 0.000174465 -1.31116e-07)
(-0.0625317 0.000140616 -1.00491e-07)
(-0.0626899 0.000134165 -8.35753e-08)
(-0.062838 0.000143313 -7.29735e-08)
(-0.0629854 0.000156232 -6.05898e-08)
(-0.0631244 0.000157646 -3.63423e-08)
(-0.063225 0.000125386 1.26123e-08)
(-0.0632248 2.76909e-05 1.0033e-07)
(-0.0630187 -0.00017731 2.33044e-07)
(-0.0624477 -0.00053822 4.29925e-07)
(-0.0612981 -0.00109665 6.86214e-07)
(-0.05932 -0.00186758 9.76684e-07)
(-0.0562716 -0.00281311 1.23115e-06)
(-0.0758966 0.00735442 -1.59412e-07)
(-0.0800792 0.00538518 -2.47714e-07)
(-0.0829899 0.00374227 -2.52878e-07)
(-0.0849302 0.00249297 -2.28707e-07)
(-0.0861834 0.00161095 -1.87373e-07)
(-0.0869781 0.00102676 -1.43186e-07)
(-0.0874819 0.000663599 -1.04994e-07)
(-0.0878106 0.000455185 -7.52344e-08)
(-0.088041 0.000350477 -5.32737e-08)
(-0.0882218 0.000311265 -3.69902e-08)
(-0.0883806 0.000306448 -2.35986e-08)
(-0.0885264 0.000304842 -9.83441e-09)
(-0.0886479 0.000267296 8.32114e-09)
(-0.0887058 0.000138811 3.4811e-08)
(-0.0886209 -0.000157635 7.17128e-08)
(-0.0882587 -0.000722362 1.20079e-07)
(-0.087412 -0.00166814 1.80256e-07)
(-0.0857949 -0.00309292 2.44152e-07)
(-0.0830576 -0.00503034 2.96344e-07)
(-0.0788409 -0.00738612 2.34244e-07)
(-0.0916822 0.0127666 -1.97676e-07)
(-0.0962367 0.00921391 -3.14321e-07)
(-0.0992304 0.00631683 -2.93438e-07)
(-0.101121 0.00416079 -2.52666e-07)
(-0.102284 0.00266549 -1.96228e-07)
(-0.10299 0.0016874 -1.41821e-07)
(-0.103423 0.00108256 -9.86389e-08)
(-0.103697 0.000733189 -6.68535e-08)
(-0.103883 0.000551693 -4.43207e-08)
(-0.104026 0.00047396 -2.83821e-08)
(-0.104149 0.000448622 -1.63631e-08)
(-0.104259 0.000424729 -5.54155e-09)
(-0.104348 0.000338559 7.46874e-09)
(-0.104381 0.000100155 2.60455e-08)
(-0.104285 -0.000418316 5.30378e-08)
(-0.103927 -0.00138716 9.59159e-08)
(-0.10309 -0.00300624 1.52852e-07)
(-0.101442 -0.00546133 2.26759e-07)
(-0.0985366 -0.008839 3.3449e-07)
(-0.0938487 -0.0130022 2.71464e-07)
(-0.101912 0.0184195 -5.47284e-07)
(-0.106121 0.0129207 -5.87304e-07)
(-0.108561 0.00861585 -4.39535e-07)
(-0.109915 0.00553558 -3.34204e-07)
(-0.110644 0.00347207 -2.29992e-07)
(-0.111033 0.00216013 -1.47e-07)
(-0.111245 0.00136582 -9.15828e-08)
(-0.111367 0.000912946 -5.64592e-08)
(-0.111446 0.000678178 -3.48903e-08)
(-0.111506 0.000575569 -2.20217e-08)
(-0.111562 0.000538857 -1.4307e-08)
(-0.111619 0.000503552 -8.92836e-09)
(-0.111675 0.000388327 -2.74157e-09)
(-0.111715 7.50901e-05 8.42551e-09)
(-0.111695 -0.00061111 3.14885e-08)
(-0.111522 -0.00191606 8.07242e-08)
(-0.111008 -0.0041511 1.55354e-07)
(-0.109815 -0.00764245 2.74891e-07)
(-0.107407 -0.012609 5.70544e-07)
(-0.103009 -0.0189445 6.84395e-07)
(-0.10717 0.0236439 -1.27539e-06)
(-0.110192 0.0158246 -9.92172e-07)
(-0.111395 0.010087 -5.54506e-07)
(-0.111754 0.0062243 -3.6518e-07)
(-0.111772 0.00377216 -2.12529e-07)
(-0.111684 0.0022821 -1.09488e-07)
(-0.111586 0.00141236 -5.38692e-08)
(-0.111505 0.000931049 -2.51303e-08)
(-0.111444 0.000688776 -1.08834e-08)
(-0.111401 0.000588556 -4.66179e-09)
(-0.111373 0.000559976 -3.05434e-09)
(-0.111364 0.000536472 -4.30399e-09)
(-0.11138 0.00043257 -7.33613e-09)
(-0.111435 0.000117917 -9.27506e-09)
(-0.111536 -0.000613571 1.24437e-09)
(-0.111665 -0.00207592 4.24449e-08)
(-0.111724 -0.00471073 1.09232e-07)
(-0.111449 -0.00905593 2.44428e-07)
(-0.11027 -0.0156082 9.26971e-07)
(-0.107077 -0.024488 1.63317e-06)
(-0.10711 0.0275553 -3.51246e-06)
(-0.107849 0.0170989 -2.10783e-06)
(-0.107104 0.0101641 -8.69729e-07)
(-0.106129 0.00589951 -4.56836e-07)
(-0.105304 0.00339681 -1.97319e-07)
(-0.104707 0.0019734 -6.15527e-08)
(-0.104305 0.0011866 -9.9692e-09)
(-0.104037 0.000771614 7.43827e-09)
(-0.103851 0.000574699 1.13517e-08)
(-0.103713 0.000504946 9.44129e-09)
(-0.103604 0.00050172 4.53672e-09)
(-0.103519 0.000510211 -2.85749e-09)
(-0.103474 0.000458088 -1.35272e-08)
(-0.103509 0.00022681 -2.58835e-08)
(-0.103689 -0.000388847 -1.94934e-08)
(-0.104102 -0.0017378 4.47996e-08)
(-0.104814 -0.00437844 1.68245e-07)
(-0.105767 -0.00912016 4.13804e-07)
(-0.106559 -0.0169506 2.04516e-06)
(-0.105753 -0.028658 4.41314e-06)
(-0.100066 0.0286842 -6.1137e-06)
(-0.0970836 0.0156362 -2.21195e-06)
(-0.0938739 0.00831587 -3.44928e-07)
(-0.091562 0.00439486 -1.67629e-07)
(-0.090047 0.00234458 4.87375e-10)
(-0.0891066 0.0012858 6.74827e-08)
(-0.0885326 0.000745294 6.20399e-08)
(-0.0881721 0.000480288 4.81151e-08)
(-0.0879267 0.000367259 3.7844e-08)
(-0.0877369 0.00034154 3.06624e-08)
(-0.0875699 0.000364927 2.49383e-08)
(-0.0874152 0.000405408 1.78601e-08)
(-0.087287 0.0004191 3.19298e-09)
(-0.0872358 0.000326029 -2.71048e-08)
(-0.0873684 -3.11091e-05 -4.54375e-08)
(-0.0878701 -0.000961971 2.01803e-08)
(-0.089011 -0.00304814 7.11475e-08)
(-0.0911069 -0.00732462 -1.39009e-07)
(-0.0943498 -0.015471 1.93561e-06)
(-0.0974529 -0.0298455 7.28547e-06)
(-0.0820842 0.0250801 -7.96209e-06)
(-0.0739084 0.0106053 3.18891e-06)
(-0.0686247 0.00456471 3.42135e-06)
(-0.0657636 0.00202357 1.32294e-06)
(-0.0641851 0.000936023 6.43639e-07)
(-0.0633141 0.000463749 3.69071e-07)
(-0.0628246 0.000255944 2.00288e-07)
(-0.0625292 0.00016816 1.2154e-07)
(-0.0623254 0.000140673 9.44773e-08)
(-0.0621555 0.000148078 9.22992e-08)
(-0.0619867 0.00017865 1.02729e-07)
(-0.0618033 0.000224472 1.16493e-07)
(-0.0616081 0.000273746 1.15245e-07)
(-0.0614346 0.000299218 5.67541e-08)
(-0.061376 0.000233745 -8.91385e-08)
(-0.0616297 -9.07634e-05 -2.83002e-07)
(-0.0625741 -0.00110029 -1.0129e-06)
(-0.0649139 -0.00376962 -3.93525e-06)
(-0.0700653 -0.010365 -4.60212e-06)
(-0.0786649 -0.0260745 8.90452e-06)
(-0.0437791 0.0158639 -4.0167e-05)
(-0.0322794 0.00443351 -5.4654e-06)
(-0.0279243 0.00129301 -5.99202e-08)
(-0.0264507 0.000379853 -9.41769e-07)
(-0.0258435 0.000108851 -5.90919e-07)
(-0.0255639 3.21429e-05 -2.45489e-07)
(-0.0254232 1.34701e-05 -1.22434e-07)
(-0.0253376 1.21659e-05 -7.23163e-08)
(-0.0252694 1.71348e-05 -4.86212e-08)
(-0.0251988 2.61171e-05 -4.0615e-08)
(-0.0251121 3.95493e-05 -4.11445e-08)
(-0.0249981 5.87927e-05 -4.3289e-08)
(-0.0248476 8.52801e-05 -3.63292e-08)
(-0.0246561 0.000118734 -8.41668e-09)
(-0.024436 0.000151586 6.53009e-08)
(-0.0242582 0.000146459 3.35168e-07)
(-0.0243062 -5.86219e-05 6.46304e-07)
(-0.0251395 -0.000970454 -9.61188e-07)
(-0.0290772 -0.00436895 3.4795e-06)
(-0.0414479 -0.0169293 4.60604e-05)
(-0.0216698 0.000474596 -1.06125e-06)
(-0.0229668 0.000338715 -7.18075e-07)
(-0.0238781 0.000226631 -4.56681e-07)
(-0.0244858 0.000143478 -2.73434e-07)
(-0.0248747 8.71118e-05 -1.55363e-07)
(-0.0251174 5.20657e-05 -8.53174e-08)
(-0.0252693 3.24514e-05 -4.74828e-08)
(-0.0253699 2.34255e-05 -3.04034e-08)
(-0.0254461 2.15465e-05 -2.64335e-08)
(-0.0255157 2.45364e-05 -3.07602e-08)
(-0.0255902 3.07793e-05 -4.03867e-08)
(-0.0256752 3.86937e-05 -5.296e-08)
(-0.0257701 4.60124e-05 -6.50423e-08)