/*--------------------------------*- C++ -*----------------------------------*\
| =========                 |                                                 |
| \\      /  F ield         | OpenFOAM: The Open Source CFD Toolbox           |
|  \\    /   O peration     | Version:  2.4.0                                 |
|   \\  /    A nd           | Web:      www.OpenFOAM.org                      |
|    \\/     M anipulation  |                                                 |
\*---------------------------------------------------------------------------*/
FoamFile
{
    version     2.0;
    format      ascii;
    class       volScalarField;
    location    "0.205";
    object      T;
}
// * * * * * * * * * * * * * * * * * * * * * * * * * * * * * * * * * * * * * //

dimensions      [0 0 0 1 0 0 0];

internalField   nonuniform List<scalar> 
1600
(
100.35
101.055
101.777
102.528
103.319
104.16
105.062
106.035
107.089
108.233
109.475
110.822
112.283
113.863
115.568
117.402
119.369
121.472
123.713
126.092
128.611
131.268
134.063
136.992
140.053
143.243
146.557
149.991
153.537
157.191
160.946
164.794
168.726
172.736
176.813
180.948
185.131
189.352
193.6
197.865
100.35
101.057
101.781
102.533
103.326
104.168
105.072
106.047
107.102
108.247
109.49
110.84
112.302
113.883
115.589
117.424
119.392
121.496
123.737
126.117
128.637
131.294
134.089
137.018
140.079
143.268
146.581
150.013
153.559
157.211
160.964
164.81
168.741
172.749
176.824
180.957
185.139
189.358
193.604
197.866
100.352
101.062
101.789
102.544
103.339
104.185
105.091
106.069
107.127
108.275
109.521
110.873
112.338
113.922
115.63
117.467
119.437
121.543
123.786
126.167
128.687
131.345
134.14
137.069
140.13
143.318
146.629
150.06
153.603
157.252
161.002
164.845
168.772
172.776
176.847
180.976
185.153
189.368
193.61
197.868
100.354
101.069
101.8
102.56
103.36
104.21
105.121
106.103
107.165
108.317
109.567
110.923
112.392
113.979
115.691
117.531
119.504
121.612
123.857
126.241
128.762
131.421
134.216
137.145
140.205
143.392
146.701
150.128
153.668
157.313
161.059
164.896
168.818
172.816
176.881
181.004
185.175
189.383
193.619
197.871
100.357
101.078
101.815
102.581
103.387
104.243
105.16
106.147
107.215
108.373
109.628
110.989
112.463
114.054
115.771
117.615
119.592
121.703
123.951
126.337
128.86
131.521
134.316
137.245
140.304
143.488
146.795
150.219
153.754
157.394
161.134
164.964
168.879
172.869
176.927
181.041
185.204
189.404
193.632
197.875
100.361
101.089
101.834
102.608
103.421
104.285
105.209
106.203
107.278
108.442
109.704
111.071
112.551
114.148
115.869
117.719
119.7
121.816
124.067
126.456
128.981
131.643
134.44
137.368
140.425
143.608
146.912
150.331
153.861
157.495
161.227
165.05
168.955
172.936
176.984
181.088
185.241
189.431
193.647
197.881
100.366
101.103
101.858
102.64
103.462
104.335
105.267
106.27
107.354
108.526
109.795
111.169
112.656
114.26
115.987
117.843
119.829
121.949
124.205
126.597
129.125
131.788
134.585
137.514
140.57
143.75
147.05
150.464
153.988
157.615
161.338
165.151
169.047
173.017
177.052
181.145
185.285
189.462
193.666
197.887
100.371
101.119
101.885
102.678
103.511
104.393
105.336
106.349
107.442
108.623
109.901
111.284
112.778
114.39
116.124
117.986
119.978
122.103
124.363
126.759
129.29
131.955
134.753
137.681
140.736
143.914
147.209
150.618
154.135
157.754
161.467
165.27
169.153
173.11
177.132
181.21
185.336
189.499
193.688
197.894
100.378
101.138
101.916
102.722
103.566
104.461
105.415
106.439
107.543
108.734
110.022
111.414
112.917
114.537
116.279
118.148
120.147
122.277
124.542
126.942
129.476
132.143
134.942
137.87
140.923
144.098
147.389
150.792
154.301
157.911
161.614
165.404
169.274
173.216
177.223
181.285
185.394
189.541
193.713
197.903
100.385
101.159
101.951
102.771
103.63
104.537
105.505
106.541
107.657
108.86
110.159
111.562
113.074
114.703
116.454
118.33
120.335
122.472
124.742
127.145
129.682
132.352
135.151
138.078
141.13
144.301
147.588
150.984
154.485
158.085
161.776
165.553
169.409
173.335
177.325
181.369
185.46
189.588
193.742
197.912
100.393
101.183
101.991
102.827
103.701
104.623
105.605
106.656
107.785
109.001
110.312
111.726
113.249
114.888
116.647
118.531
120.543
122.686
124.961
127.368
129.908
132.579
135.379
138.306
141.355
144.523
147.804
151.194
154.687
158.276
161.955
165.718
169.557
173.466
177.437
181.462
185.533
189.64
193.773
197.922
100.402
101.21
102.036
102.889
103.78
104.72
105.717
106.784
107.927
109.157
110.481
111.907
113.442
115.091
116.859
118.751
120.771
122.92
125.199
127.61
130.153
132.825
135.626
138.551
141.598
144.761
148.037
151.42
154.904
158.482
162.148
165.896
169.719
173.609
177.56
181.564
185.612
189.697
193.807
197.934
100.412
101.24
102.086
102.958
103.868
104.826
105.842
106.925
108.085
109.33
110.668
112.107
113.654
115.313
117.092
118.992
121.019
123.173
125.458
127.872
130.417
133.09
135.89
138.813
141.857
145.016
148.286
151.661
155.135
158.702
162.355
166.088
169.893
173.764
177.694
181.674
185.699
189.759
193.845
197.946
100.423
101.274
102.141
103.035
103.966
104.944
105.979
107.081
108.258
109.52
110.874
112.327
113.886
115.557
117.345
119.254
121.287
123.448
125.736
128.154
130.7
133.373
136.171
139.092
142.132
145.286
148.549
151.916
155.381
158.936
162.575
166.292
170.079
173.93
177.837
181.794
185.793
189.826
193.885
197.96
100.435
101.31
102.202
103.12
104.074
105.074
106.131
107.253
108.449
109.729
111.099
112.567
114.139
115.822
117.62
119.538
121.578
123.744
126.037
128.456
131.003
133.676
136.472
139.39
142.424
145.572
148.828
152.186
155.64
159.183
162.808
166.508
170.277
174.106
177.99
181.921
185.893
189.898
193.929
197.974
100.449
101.351
102.269
103.213
104.193
105.218
106.298
107.442
108.659
109.957
111.345
112.829
114.416
116.111
117.92
119.846
121.894
124.064
126.36
128.782
131.329
134
136.793
139.706
142.735
145.876
149.123
152.471
155.913
159.442
163.053
166.736
170.485
174.293
178.152
182.057
186
189.976
193.976
197.99
100.464
101.396
102.344
103.316
104.324
105.375
106.481
107.649
108.889
110.208
111.615
113.116
114.717
116.426
118.245
120.181
122.235
124.411
126.71
129.133
131.679
134.348
137.138
140.045
143.067
146.199
149.436
152.773
156.202
159.717
163.311
166.976
170.705
174.49
178.325
182.202
186.115
190.058
194.026
198.006
100.48
101.445
102.425
103.43
104.468
105.549
106.683
107.877
109.141
110.483
111.91
113.429
115.047
116.769
118.6
120.545
122.606
124.787
127.089
129.513
132.058
134.724
137.509
140.41
143.423
146.546
149.771
153.095
156.509
160.008
163.584
167.23
170.937
174.699
178.507
182.356
186.237
190.147
194.079
198.024
100.498
101.5
102.516
103.555
104.627
105.74
106.904
108.128
109.418
110.784
112.233
113.772
115.407
117.144
118.987
120.942
123.011
125.196
127.501
129.925
132.469
135.131
137.91
140.804
143.808
146.919
150.132
153.44
156.839
160.32
163.876
167.5
171.184
174.92
178.701
182.519
186.368
190.241
194.137
198.043
100.519
101.56
102.615
103.693
104.802
105.951
107.148
108.403
109.723
111.115
112.588
114.148
115.801
117.554
119.41
121.375
123.452
125.643
127.95
130.374
132.916
135.574
138.346
141.231
144.225
147.323
150.521
153.814
157.194
160.655
164.19
167.79
171.449
175.157
178.908
182.693
186.507
190.343
194.198
198.063
100.541
101.626
102.725
103.845
104.995
106.183
107.417
108.706
110.058
111.479
112.978
114.561
116.234
118.003
119.873
121.849
123.933
126.13
128.44
130.864
133.403
136.057
138.822
141.697
144.679
147.764
150.946
154.22
157.58
161.019
164.529
168.103
171.733
175.411
179.13
182.88
186.657
190.452
194.265
198.085
100.565
101.7
102.847
104.014
105.208
106.439
107.714
109.04
110.426
111.879
113.406
115.014
116.708
118.495
120.38
122.368
124.461
126.663
128.976
131.4
133.937
136.584
139.342
142.207
145.176
148.245
151.409
154.663
158.001
161.415
164.899
168.444
172.043
175.687
179.37
183.082
186.818
190.57
194.337
198.109
100.593
101.782
102.982
104.2
105.444
106.722
108.041
109.409
110.833
112.32
113.877
115.511
117.229
119.036
120.937
122.937
125.039
127.247
129.563
131.987
134.521
137.162
139.911
142.765
145.72
148.772
151.917
155.149
158.463
161.85
165.304
168.817
172.381
175.989
179.631
183.302
186.993
190.699
194.416
198.135
100.623
101.872
103.131
104.407
105.706
107.036
108.404
109.816
111.281
112.805
114.396
116.059
117.802
119.629
121.548
123.561
125.673
127.888
130.206
132.63
135.16
137.796
140.535
143.377
146.316
149.351
152.475
155.683
158.97
162.328
165.749
169.227
172.753
176.319
179.918
183.543
187.185
190.839
194.502
198.164
100.657
101.972
103.297
104.636
105.996
107.383
108.804
110.266
111.776
113.341
114.967
116.662
118.431
120.281
122.218
124.246
126.368
128.589
130.911
133.335
135.862
138.49
141.22
144.048
146.971
149.986
153.088
156.271
159.528
162.854
166.24
169.68
173.164
176.685
180.235
183.808
187.396
190.993
194.597
198.195
100.694
102.084
103.482
104.891
106.318
107.769
109.248
110.764
112.323
113.932
115.597
117.325
119.123
120.998
122.954
124.997
127.131
129.359
131.684
134.107
136.63
139.252
141.97
144.785
147.691
150.685
153.763
156.918
160.144
163.435
166.783
170.18
173.618
177.09
180.586
184.102
187.63
191.164
194.702
198.23
100.736
102.209
103.688
105.176
106.677
108.197
109.741
111.316
112.928
114.584
116.291
118.055
119.884
121.784
123.761
125.82
127.966
130.201
132.53
134.953
137.472
140.085
142.793
145.593
148.481
151.453
154.505
157.631
160.824
164.078
167.384
170.735
174.123
177.54
180.977
184.43
187.89
191.354
194.819
198.269
100.783
102.349
103.919
105.493
107.077
108.674
110.289
111.928
113.597
115.304
117.056
118.859
120.721
122.648
124.646
126.722
128.88
131.123
133.455
135.878
138.393
140.998
143.694
146.478
149.347
152.297
155.322
158.416
161.574
164.788
168.05
171.351
174.684
178.041
181.414
184.796
188.182
191.567
194.95
198.313
100.836
102.507
104.178
105.85
107.524
109.206
110.898
112.607
114.338
116.1
117.899
119.743
121.639
123.595
125.616
127.709
129.88
132.131
134.467
136.889
139.399
141.996
144.68
147.448
150.297
153.223
156.22
159.282
162.402
165.574
168.787
172.036
175.31
178.601
181.902
185.207
188.509
191.806
195.096
198.362
100.895
102.684
104.47
106.25
108.026
109.801
111.577
113.361
115.159
116.979
118.828
120.715
122.647
124.632
126.677
128.788
130.971
133.231
135.57
137.992
140.497
143.086
145.757
148.509
151.337
154.238
157.206
160.234
163.316
166.442
169.606
172.797
176.007
179.228
182.45
185.669
188.878
192.076
195.262
198.417
100.963
102.886
104.8
106.702
108.591
110.467
112.335
114.2
116.069
117.95
119.851
121.782
123.751
125.766
127.835
129.965
132.161
134.429
136.772
139.193
141.693
144.273
146.931
149.666
152.474
155.349
158.287
161.281
164.322
167.403
170.513
173.645
176.787
179.93
183.067
186.191
189.297
192.383
195.45
198.48
101.041
103.116
105.177
107.216
109.229
111.217
113.183
115.134
117.077
119.022
120.978
122.954
124.96
127.006
129.099
131.246
133.455
135.731
138.077
140.498
142.993
145.564
148.21
150.927
153.714
156.564
159.472
162.43
165.431
168.464
171.52
174.588
177.658
180.72
183.764
186.783
189.773
192.734
195.664
198.553
101.131
103.382
105.61
107.803
109.953
112.063
114.134
116.175
118.196
120.206
122.216
124.238
126.281
128.357
130.473
132.639
134.86
137.144
139.493
141.912
144.403
146.965
149.598
152.299
155.065
157.89
160.768
163.691
166.65
169.636
172.636
175.64
178.635
181.61
184.554
187.459
190.32
193.138
195.912
198.637
101.236
103.693
106.113
108.478
110.781
113.02
115.203
117.338
119.436
121.512
123.576
125.642
127.722
129.827
131.966
134.148
136.381
138.672
141.024
143.442
145.928
148.481
151.101
153.786
156.532
159.333
162.182
165.071
167.99
170.929
173.874
176.812
179.731
182.615
185.454
188.235
190.953
193.608
196.201
198.738
101.362
104.062
106.705
109.265
111.732
114.109
116.406
118.635
120.812
122.951
125.068
127.176
129.291
131.422
133.582
135.78
138.024
140.321
142.676
145.092
147.573
150.118
152.726
155.396
158.123
160.901
163.723
166.58
169.461
172.354
175.246
178.121
180.963
183.756
186.484
189.133
191.693
194.164
196.546
198.86
101.517
104.512
107.414
110.19
112.833
115.353
117.764
120.085
122.336
124.535
126.7
128.848
130.993
133.149
135.328
137.54
139.793
142.095
144.452
146.867
149.343
151.88
154.478
157.134
159.843
162.6
165.398
168.225
171.071
173.923
176.766
179.581
182.351
185.054
187.671
190.182
192.57
194.834
196.967
199.01
101.717
105.079
108.283
111.293
114.117
116.777
119.298
121.704
124.022
126.275
128.483
130.664
132.836
135.013
137.208
139.431
141.692
143.999
146.357
148.77
151.242
153.772
156.361
159.005
161.699
164.439
167.215
170.017
172.834
175.65
178.449
181.212
183.916
186.538
189.049
191.422
193.628
195.66
197.49
199.198
101.992
105.829
109.372
112.624
115.624
118.413
121.029
123.509
125.884
128.181
130.423
132.632
134.826
137.019
139.226
141.459
143.726
146.036
148.395
150.807
153.276
155.801
158.382
161.016
163.699
166.425
169.184
171.967
174.76
177.548
180.313
183.033
185.685
188.238
190.658
192.906
194.935
196.714
198.175
199.452
102.455
106.878
110.763
114.241
117.393
120.287
122.979
125.515
127.932
130.262
132.53
134.759
136.968
139.174
141.39
143.629
145.901
148.213
150.573
152.985
155.451
157.973
160.549
163.177
165.852
168.568
171.316
174.085
176.862
179.63
182.372
185.063
187.677
190.183
192.537
194.692
196.576
198.121
199.168
199.884
103.307
108.474
112.639
116.269
119.514
122.467
125.199
127.763
130.202
132.548
134.829
137.069
139.285
141.497
143.718
145.96
148.234
150.548
152.908
155.319
157.784
160.303
162.876
165.501
168.172
170.882
173.624
176.386
179.154
181.912
184.641
187.316
189.909
192.386
194.703
196.807
198.61
200.02
200.782
200.927
)
;

boundaryField
{
    carasuperior
    {
        type            fixedGradient;
        gradient        uniform 100;
    }
    lateralizquierda
    {
        type            fixedValue;
        value           uniform 100;
    }
    lateralderecha
    {
        type            fixedValue;
        value           uniform 200;
    }
    carainferior
    {
        type            zeroGradient;
    }
    frontAndBack
    {
        type            empty;
    }
}


// ************************************************************************* //
