/*--------------------------------*- C++ -*----------------------------------*\
| =========                 |                                                 |
| \\      /  F ield         | OpenFOAM: The Open Source CFD Toolbox           |
|  \\    /   O peration     | Version:  2.4.0                                 |
|   \\  /    A nd           | Web:      www.OpenFOAM.org                      |
|    \\/     M anipulation  |                                                 |
\*---------------------------------------------------------------------------*/
FoamFile
{
    version     2.0;
    format      ascii;
    class       volScalarField;
    location    "0.4";
    object      p;
}
// * * * * * * * * * * * * * * * * * * * * * * * * * * * * * * * * * * * * * //

dimensions      [0 2 -2 0 0 0 0];

internalField   nonuniform List<scalar> 
4800
(
-8.86868e-08
-0.000992069
-0.00160014
-0.0016162
-0.000881273
0.000666163
0.00302969
0.00618516
0.0100818
0.0146334
0.000995549
-2.85356e-06
-0.000358794
-0.000110966
0.000791268
0.00240556
0.0047454
0.00779766
0.0115254
0.0158625
0.0016001
0.000337594
-1.50931e-05
0.000308779
0.00126983
0.00290976
0.00523997
0.0082533
0.0119251
0.0162057
0.00155482
1.22167e-05
-0.000411616
-8.78843e-05
0.000879961
0.00252009
0.00484292
0.00785056
0.0115361
0.0158725
0.000641778
-0.00108548
-0.00157491
-0.00127626
-0.000329739
0.00128823
0.00359544
0.00661295
0.0103648
0.0148702
-0.00124355
-0.00305334
-0.00358832
-0.00333097
-0.00243499
-0.000872261
0.0013932
0.00441591
0.0082736
0.0130908
-0.00412124
-0.00591811
-0.00647713
-0.00627804
-0.00547161
-0.00401934
-0.00185697
0.00111968
0.00507219
0.0103642
-0.00795563
-0.00965343
-0.0102184
-0.0101005
-0.00943815
-0.00818303
-0.0062381
-0.0034385
0.000482921
0.00640002
-0.0126596
-0.0141848
-0.0147432
-0.0147348
-0.0142836
-0.0133414
-0.0117835
-0.00938072
-0.00577286
0.000953915
-0.0180926
-0.0193907
-0.0199349
-0.0200639
-0.0198963
-0.0194163
-0.0185277
-0.0170188
-0.0147407
-0.00848747
-4.29476e-07
-0.00100971
-0.00162244
-0.00164287
-0.000910319
0.000636497
0.00300042
0.00615736
0.0100568
0.0146128
0.00101194
-4.13364e-06
-0.000344245
-9.1126e-05
0.000812835
0.00242821
0.00476766
0.0078183
0.0115437
0.0158786
0.0016223
0.000321387
-1.50914e-05
0.000309913
0.00126899
0.00290873
0.00523876
0.00825173
0.0119233
0.0162047
0.0015828
-7.98556e-06
-0.000411659
-8.68317e-05
0.000878038
0.00251757
0.00483997
0.00784692
0.0115314
0.0158686
0.000672668
-0.00110868
-0.00157272
-0.0012717
-0.000328101
0.00128926
0.00359578
0.00661195
0.0103602
0.0148645
-0.00121188
-0.00307805
-0.00358578
-0.00332546
-0.00243219
-0.000869911
0.00139508
0.00441668
0.00826707
0.0130777
-0.00409024
-0.00594262
-0.00647446
-0.006272
-0.00546775
-0.00401555
-0.00185291
0.00112487
0.0050639
0.0103333
-0.00792682
-0.00967642
-0.0102158
-0.0100943
-0.00943337
-0.00817821
-0.006233
-0.00342897
0.000461459
0.00628941
-0.0126347
-0.0142055
-0.014741
-0.0147289
-0.0142776
-0.0133335
-0.0117715
-0.00934441
-0.00576611
0.000707521
-0.0180732
-0.019409
-0.0199343
-0.0200602
-0.0198911
-0.019406
-0.0185033
-0.0169122
-0.0145096
-0.00852716
-4.74664e-07
-0.00100972
-0.00162245
-0.00164289
-0.000910327
0.000636492
0.00300041
0.00615736
0.0100568
0.0146128
0.00101191
-4.14991e-06
-0.000344264
-9.11411e-05
0.000812824
0.0024282
0.00476766
0.00781829
0.0115437
0.0158786
0.00162228
0.00032137
-1.51074e-05
0.000309898
0.00126898
0.00290872
0.00523875
0.00825172
0.0119233
0.0162047
0.00158278
-8.00195e-06
-0.000411674
-8.68455e-05
0.000878025
0.00251756
0.00483996
0.00784691
0.0115313
0.0158686
0.000672648
-0.0011087
-0.00157274
-0.00127171
-0.000328113
0.00128924
0.00359577
0.00661194
0.0103602
0.0148644
-0.0012119
-0.00307807
-0.0035858
-0.00332548
-0.0024322
-0.000869923
0.00139507
0.00441667
0.00826707
0.0130777
-0.00409026
-0.00594264
-0.00647447
-0.00627202
-0.00546776
-0.00401556
-0.00185292
0.00112486
0.00506389
0.0103333
-0.00792684
-0.00967644
-0.0102158
-0.0100943
-0.00943339
-0.00817822
-0.00623301
-0.00342898
0.000461451
0.0062894
-0.0126347
-0.0142055
-0.014741
-0.0147289
-0.0142776
-0.0133335
-0.0117716
-0.00934442
-0.00576612
0.000707515
-0.0180732
-0.019409
-0.0199344
-0.0200602
-0.0198911
-0.019406
-0.0185033
-0.0169123
-0.0145096
-0.00852716
-2.23604e-07
-0.000992109
-0.00160017
-0.00161622
-0.000881289
0.000666149
0.00302968
0.00618515
0.0100818
0.0146334
0.000995462
-2.91256e-06
-0.000358834
-0.000110995
0.000791245
0.00240554
0.00474538
0.00779765
0.0115254
0.0158625
0.00160003
0.000337541
-1.51343e-05
0.000308747
0.00126981
0.00290973
0.00523995
0.00825329
0.0119251
0.0162057
0.00155475
1.21668e-05
-0.000411657
-8.79188e-05
0.000879931
0.00252006
0.0048429
0.00785054
0.0115361
0.0158724
0.000641721
-0.00108553
-0.00157495
-0.00127629
-0.000329771
0.0012882
0.00359542
0.00661293
0.0103647
0.0148702
-0.0012436
-0.00305338
-0.00358836
-0.00333101
-0.00243503
-0.000872291
0.00139318
0.00441588
0.00827358
0.0130908
-0.00412129
-0.00591815
-0.00647717
-0.00627807
-0.00547164
-0.00401937
-0.001857
0.00111966
0.00507217
0.0103642
-0.00795568
-0.00965347
-0.0102185
-0.0101006
-0.00943819
-0.00818306
-0.00623812
-0.00343852
0.000482903
0.0064
-0.0126597
-0.0141848
-0.0147432
-0.0147348
-0.0142837
-0.0133414
-0.0117835
-0.00938074
-0.00577287
0.000953904
-0.0180927
-0.0193907
-0.0199349
-0.020064
-0.0198963
-0.0194164
-0.0185277
-0.0170189
-0.0147407
-0.00848748
0.0197139
0.0251744
0.0308803
0.0367301
0.0426557
0.048617
0.0545932
0.0605764
0.0665664
0.0725683
0.0785907
0.0846456
0.0907476
0.0969133
0.10316
0.109495
0.115914
0.122387
0.128839
0.135142
0.020709
0.0259395
0.0314415
0.0371253
0.0429252
0.0487964
0.0547111
0.0606538
0.0666176
0.0726017
0.0786094
0.0846476
0.090725
0.0968507
0.103031
0.109267
0.115545
0.121829
0.12805
0.134098
0.0210035
0.0261838
0.0316352
0.037273
0.0430335
0.0488728
0.0547621
0.0606845
0.066631
0.0725983
0.0785874
0.0846023
0.0906489
0.0967334
0.10286
0.109029
0.11523
0.121433
0.12758
0.133577
0.0207693
0.0260385
0.0315548
0.0372354
0.0430206
0.0488709
0.0547622
0.0606798
0.0666161
0.0725679
0.0785355
0.0845214
0.09053
0.0965668
0.102638
0.108747
0.114894
0.121065
0.127226
0.133304
0.0200432
0.0255518
0.0312451
0.0370491
0.0429133
0.0488098
0.0547244
0.0606494
0.0665814
0.0725193
0.0784634
0.0844156
0.0903791
0.0963593
0.102364
0.108406
0.114499
0.120657
0.126881
0.13315
0.018826
0.0247739
0.0307652
0.0367665
0.0427526
0.0487189
0.0546694
0.0606083
0.0665388
0.0724629
0.0783819
0.0842965
0.0902086
0.0961223
0.102047
0.108002
0.114021
0.120154
0.126461
0.13304
0.017175
0.0238367
0.0302424
0.0364895
0.0426111
0.0486468
0.0546292
0.0605779
0.0665039
0.0724124
0.0783045
0.0841793
0.0900352
0.0958728
0.101698
0.107535
0.113436
0.119491
0.125852
0.132875
0.0152701
0.0229839
0.0298696
0.0363535
0.0425753
0.0486455
0.0546346
0.0605775
0.0664908
0.0723802
0.0782451
0.0840807
0.0898798
0.0956349
0.101345
0.107029
0.112748
0.118635
0.124936
0.132486
0.014349
0.0231758
0.0301564
0.0366099
0.0427644
0.0487697
0.0547111
0.0606211
0.0665099
0.0723778
0.0782189
0.0840221
0.0897713
0.0954459
0.101026
0.10651
0.111915
0.117353
0.12301
0.130613
0.0176528
0.0266197
0.0321139
0.037668
0.0433347
0.0490771
0.0548804
0.0607186
0.06657
0.0724174
0.0782444
0.0840307
0.0897482
0.0953544
0.100779
0.105915
0.110685
0.114879
0.118211
0.124105
0.0196989
0.0251642
0.0308738
0.0367262
0.0426535
0.0486157
0.0545925
0.0605759
0.0665661
0.0725679
0.0785903
0.0846451
0.090747
0.0969127
0.103159
0.109495
0.115916
0.122391
0.128846
0.135155
0.0207236
0.0259519
0.0314512
0.0371327
0.0429305
0.0488001
0.0547136
0.0606556
0.0666189
0.0726026
0.0786101
0.084648
0.0907249
0.0968499
0.103029
0.109263
0.115539
0.121819
0.128037
0.134081
0.0210058
0.0261873
0.0316387
0.0372761
0.0430361
0.0488747
0.0547636
0.0606855
0.0666317
0.0725987
0.0785877
0.0846024
0.0906487
0.0967328
0.102859
0.109028
0.115227
0.121429
0.127576
0.133574
0.020772
0.0260428
0.0315588
0.0372388
0.0430232
0.0488728
0.0547635
0.0606806
0.0666166
0.0725683
0.0785357
0.0845214
0.0905298
0.0965664
0.102637
0.108745
0.114891
0.121062
0.127221
0.1333
0.0200508
0.0255599
0.0312511
0.0370536
0.0429163
0.0488118
0.0547256
0.0606501
0.0665819
0.0725196
0.0784636
0.0844156
0.090379
0.096359
0.102364
0.108404
0.114496
0.120652
0.126873
0.133141
0.018844
0.0247877
0.0307727
0.0367715
0.0427555
0.0487204
0.0546701
0.0606086
0.0665389
0.072463
0.0783819
0.0842965
0.0902086
0.0961223
0.102047
0.108001
0.114019
0.12015
0.126448
0.133018
0.0172245
0.0238661
0.0302544
0.0364958
0.0426139
0.0486477
0.0546293
0.0605778
0.0665038
0.0724123
0.0783045
0.0841794
0.0900354
0.095873
0.101698
0.107534
0.113433
0.119485
0.125824
0.132815
0.0153565
0.023015
0.0298745
0.036356
0.0425754
0.0486447
0.0546338
0.0605769
0.0664903
0.0723798
0.0782448
0.0840805
0.0898798
0.0956353
0.101346
0.107028
0.112747
0.118637
0.124909
0.132387
0.0144628
0.0231327
0.0301096
0.036592
0.0427556
0.0487646
0.0547084
0.0606195
0.0665087
0.0723767
0.0782178
0.084021
0.0897704
0.0954459
0.101028
0.106515
0.111929
0.117406
0.12307
0.130488
0.0182416
0.0266974
0.0321143
0.0376818
0.0433433
0.0490807
0.0548822
0.0607197
0.0665706
0.0724179
0.0782448
0.084031
0.0897482
0.0953539
0.100777
0.105909
0.110675
0.114892
0.118158
0.123441
0.0196988
0.0251642
0.0308738
0.0367262
0.0426535
0.0486157
0.0545925
0.0605759
0.0665661
0.0725679
0.0785903
0.0846451
0.090747
0.0969127
0.103159
0.109495
0.115916
0.122391
0.128846
0.135155
0.0207236
0.0259519
0.0314512
0.0371327
0.0429305
0.0488001
0.0547136
0.0606556
0.0666189
0.0726026
0.0786101
0.084648
0.0907249
0.0968499
0.103029
0.109263
0.115539
0.121819
0.128037
0.134081
0.0210058
0.0261873
0.0316387
0.0372761
0.0430361
0.0488747
0.0547636
0.0606855
0.0666317
0.0725987
0.0785877
0.0846024
0.0906487
0.0967328
0.102859
0.109028
0.115227
0.121429
0.127576
0.133574
0.020772
0.0260428
0.0315587
0.0372388
0.0430232
0.0488728
0.0547635
0.0606806
0.0666166
0.0725683
0.0785357
0.0845214
0.0905298
0.0965664
0.102637
0.108745
0.114891
0.121062
0.127221
0.1333
0.0200508
0.0255599
0.0312511
0.0370536
0.0429163
0.0488118
0.0547256
0.0606501
0.0665819
0.0725196
0.0784636
0.0844156
0.090379
0.096359
0.102364
0.108404
0.114496
0.120652
0.126873
0.133141
0.0188439
0.0247877
0.0307727
0.0367715
0.0427555
0.0487204
0.0546701
0.0606086
0.0665389
0.072463
0.0783819
0.0842965
0.0902086
0.0961223
0.102047
0.108001
0.114019
0.12015
0.126448
0.133018
0.0172245
0.0238661
0.0302544
0.0364958
0.0426139
0.0486477
0.0546293
0.0605778
0.0665038
0.0724123
0.0783045
0.0841794
0.0900354
0.095873
0.101698
0.107534
0.113433
0.119485
0.125824
0.132815
0.0153565
0.023015
0.0298745
0.036356
0.0425754
0.0486447
0.0546338
0.0605769
0.0664903
0.0723798
0.0782448
0.0840805
0.0898798
0.0956353
0.101346
0.107028
0.112747
0.118637
0.124909
0.132387
0.0144628
0.0231327
0.0301096
0.036592
0.0427556
0.0487646
0.0547084
0.0606195
0.0665087
0.0723767
0.0782178
0.084021
0.0897704
0.0954459
0.101028
0.106515
0.111929
0.117406
0.12307
0.130488
0.0182416
0.0266974
0.0321143
0.0376818
0.0433433
0.0490807
0.0548822
0.0607197
0.0665706
0.0724179
0.0782448
0.084031
0.0897483
0.0953539
0.100777
0.105909
0.110675
0.114892
0.118158
0.123441
0.0197139
0.0251744
0.0308803
0.0367301
0.0426557
0.048617
0.0545932
0.0605764
0.0665664
0.0725683
0.0785907
0.0846456
0.0907476
0.0969133
0.10316
0.109495
0.115914
0.122387
0.128839
0.135142
0.020709
0.0259395
0.0314415
0.0371253
0.0429252
0.0487964
0.0547111
0.0606538
0.0666176
0.0726017
0.0786094
0.0846476
0.090725
0.0968507
0.103031
0.109267
0.115545
0.121829
0.12805
0.134098
0.0210035
0.0261838
0.0316352
0.037273
0.0430335
0.0488727
0.0547621
0.0606845
0.066631
0.0725983
0.0785874
0.0846023
0.0906489
0.0967334
0.10286
0.109029
0.11523
0.121433
0.12758
0.133577
0.0207693
0.0260385
0.0315548
0.0372354
0.0430206
0.0488709
0.0547622
0.0606798
0.0666161
0.0725679
0.0785355
0.0845214
0.09053
0.0965668
0.102638
0.108747
0.114894
0.121065
0.127226
0.133304
0.0200432
0.0255518
0.0312451
0.0370491
0.0429133
0.0488098
0.0547243
0.0606494
0.0665814
0.0725193
0.0784634
0.0844156
0.0903791
0.0963593
0.102364
0.108406
0.114499
0.120657
0.126881
0.13315
0.018826
0.0247739
0.0307651
0.0367665
0.0427526
0.0487189
0.0546694
0.0606083
0.0665388
0.0724629
0.0783819
0.0842965
0.0902086
0.0961223
0.102047
0.108002
0.114021
0.120154
0.126461
0.13304
0.017175
0.0238367
0.0302424
0.0364895
0.0426111
0.0486468
0.0546292
0.0605779
0.0665039
0.0724124
0.0783045
0.0841793
0.0900352
0.0958729
0.101698
0.107535
0.113436
0.119491
0.125852
0.132875
0.0152701
0.0229839
0.0298696
0.0363535
0.0425753
0.0486455
0.0546346
0.0605775
0.0664908
0.0723802
0.0782451
0.0840807
0.0898798
0.0956349
0.101345
0.107029
0.112748
0.118635
0.124936
0.132486
0.014349
0.0231758
0.0301564
0.0366099
0.0427644
0.0487697
0.0547111
0.0606211
0.0665099
0.0723778
0.0782189
0.0840221
0.0897713
0.0954459
0.101026
0.10651
0.111915
0.117353
0.12301
0.130613
0.0176528
0.0266197
0.0321139
0.037668
0.0433347
0.0490771
0.0548804
0.0607186
0.06657
0.0724174
0.0782444
0.0840307
0.0897482
0.0953544
0.100779
0.105915
0.110685
0.114879
0.118211
0.124105
0.141116
0.14655
0.151254
0.155088
0.157966
0.159851
0.160764
0.160809
0.160205
0.159209
0.139817
0.145023
0.149555
0.153291
0.156156
0.158124
0.159222
0.159547
0.159207
0.158217
0.139272
0.144464
0.14899
0.152731
0.15562
0.157634
0.158798
0.159194
0.158851
0.15761
0.139143
0.144473
0.149107
0.15293
0.155878
0.157933
0.159121
0.159518
0.159099
0.157594
0.13931
0.144924
0.14977
0.153737
0.156774
0.158879
0.160089
0.160479
0.160001
0.158329
0.13979
0.145866
0.151025
0.155189
0.158336
0.160497
0.161729
0.162119
0.161615
0.159877
0.140679
0.147424
0.15297
0.157351
0.160602
0.162804
0.164052
0.164449
0.163955
0.162241
0.142187
0.149826
0.155769
0.160328
0.163625
0.165822
0.167059
0.167462
0.167007
0.165397
0.144464
0.153434
0.159691
0.164281
0.167482
0.169573
0.170744
0.171133
0.170735
0.169294
0.150714
0.16016
0.165609
0.169574
0.1723
0.174078
0.17508
0.175412
0.175071
0.173845
0.141136
0.146575
0.151283
0.155119
0.157997
0.159882
0.160792
0.160831
0.160221
0.159209
0.139798
0.145003
0.149532
0.153266
0.156131
0.1581
0.1592
0.15953
0.159205
0.1582
0.139273
0.144467
0.148992
0.152734
0.155623
0.157636
0.158797
0.159194
0.158865
0.157587
0.139146
0.144479
0.149114
0.152936
0.155883
0.157937
0.159122
0.159519
0.159118
0.157567
0.139316
0.14493
0.149774
0.153741
0.156776
0.158881
0.160087
0.160478
0.160022
0.1583
0.139801
0.145874
0.15103
0.155193
0.158339
0.160498
0.161726
0.162118
0.161638
0.159847
0.140703
0.147436
0.152975
0.157355
0.160604
0.162804
0.164049
0.164448
0.163977
0.162211
0.142294
0.149863
0.155779
0.160333
0.163625
0.165821
0.167055
0.167461
0.167028
0.165369
0.144695
0.153441
0.15967
0.164273
0.167476
0.169569
0.170739
0.171131
0.170753
0.169269
0.150674
0.159914
0.165498
0.169543
0.172287
0.174073
0.175076
0.175412
0.175087
0.173824
0.141136
0.146575
0.151283
0.155119
0.157997
0.159882
0.160792
0.160831
0.160221
0.159209
0.139798
0.145003
0.149532
0.153266
0.156131
0.1581
0.1592
0.15953
0.159205
0.1582
0.139273
0.144467
0.148992
0.152734
0.155623
0.157636
0.158797
0.159194
0.158865
0.157587
0.139146
0.144479
0.149114
0.152936
0.155883
0.157937
0.159122
0.159519
0.159118
0.157567
0.139316
0.14493
0.149774
0.153741
0.156776
0.158881
0.160087
0.160478
0.160022
0.1583
0.139801
0.145874
0.15103
0.155193
0.158339
0.160498
0.161726
0.162118
0.161638
0.159847
0.140703
0.147436
0.152975
0.157355
0.160604
0.162804
0.164049
0.164448
0.163977
0.162211
0.142294
0.149863
0.155779
0.160333
0.163625
0.165821
0.167055
0.167461
0.167028
0.165369
0.144695
0.153441
0.15967
0.164273
0.167476
0.169569
0.170739
0.171131
0.170753
0.169269
0.150674
0.159914
0.165498
0.169543
0.172287
0.174073
0.175076
0.175412
0.175087
0.173824
0.141116
0.14655
0.151254
0.155088
0.157966
0.159851
0.160764
0.160809
0.160205
0.159209
0.139817
0.145023
0.149555
0.153291
0.156156
0.158124
0.159222
0.159547
0.159207
0.158217
0.139272
0.144464
0.14899
0.152731
0.15562
0.157634
0.158798
0.159194
0.158851
0.157609
0.139143
0.144473
0.149107
0.15293
0.155878
0.157933
0.159121
0.159518
0.159099
0.157594
0.13931
0.144924
0.14977
0.153737
0.156774
0.158879
0.160089
0.160479
0.160001
0.158329
0.13979
0.145866
0.151025
0.155189
0.158336
0.160497
0.161729
0.162119
0.161615
0.159877
0.140679
0.147424
0.15297
0.157351
0.160602
0.162804
0.164052
0.164449
0.163955
0.162241
0.142187
0.149826
0.155769
0.160328
0.163625
0.165821
0.167059
0.167462
0.167007
0.165397
0.144464
0.153434
0.159691
0.164281
0.167482
0.169573
0.170744
0.171133
0.170735
0.169294
0.150714
0.16016
0.165609
0.169574
0.1723
0.174078
0.17508
0.175412
0.175071
0.173845
0.176853
0.173556
0.174481
0.176386
0.178036
0.179251
0.179975
0.180208
0.179915
0.178925
0.185824
0.182388
0.182199
0.183051
0.183985
0.184758
0.185241
0.185384
0.185141
0.184382
0.191324
0.189377
0.189092
0.189462
0.189978
0.19045
0.190752
0.190827
0.190634
0.190083
0.196889
0.195845
0.195589
0.195717
0.195982
0.19625
0.196424
0.196452
0.196304
0.195922
0.202575
0.202022
0.201832
0.201853
0.201973
0.20211
0.202195
0.202192
0.202081
0.201829
0.20835
0.208065
0.207935
0.207911
0.207947
0.207998
0.208023
0.207999
0.207916
0.207758
0.214207
0.214065
0.213974
0.213927
0.213909
0.213901
0.213881
0.213839
0.213773
0.213681
0.22013
0.220067
0.219994
0.219926
0.219865
0.219808
0.219749
0.219687
0.219628
0.219578
0.226117
0.226094
0.226022
0.225926
0.225821
0.225714
0.225612
0.225521
0.225457
0.225436
0.232176
0.232169
0.232079
0.231941
0.23178
0.231613
0.231457
0.231327
0.231243
0.231233
0.238329
0.238316
0.238185
0.237983
0.237746
0.237501
0.237272
0.237085
0.236965
0.236946
0.244615
0.244563
0.244359
0.244063
0.243723
0.243372
0.243047
0.242778
0.242598
0.242545
0.251089
0.250945
0.25062
0.250187
0.249707
0.249222
0.248771
0.24839
0.248117
0.247989
0.257844
0.257495
0.256978
0.256357
0.255695
0.255043
0.254434
0.253907
0.253497
0.253227
0.265026
0.264231
0.263422
0.262551
0.261672
0.260827
0.260037
0.259329
0.258724
0.258205
0.272771
0.271184
0.269898
0.268712
0.2676
0.266567
0.265593
0.264675
0.263799
0.262879
0.281298
0.278188
0.27621
0.274693
0.273397
0.272248
0.271139
0.27001
0.268777
0.267226
0.29052
0.284748
0.281908
0.280195
0.278909
0.277843
0.27675
0.275467
0.27379
0.271288
0.300737
0.290311
0.286295
0.284707
0.28385
0.283282
0.282535
0.281278
0.279098
0.275221
0.314715
0.293346
0.287382
0.286891
0.287511
0.288321
0.288596
0.287785
0.285149
0.279384
0.177441
0.17367
0.174567
0.176436
0.178054
0.179258
0.179977
0.18021
0.179929
0.17891
0.185901
0.182345
0.18223
0.18308
0.183999
0.184766
0.185245
0.185387
0.185153
0.184372
0.191324
0.18933
0.189097
0.189474
0.189985
0.190455
0.190756
0.190831
0.190644
0.190076
0.196903
0.195827
0.195592
0.195724
0.195987
0.196255
0.196427
0.196455
0.196311
0.195918
0.202584
0.202014
0.201832
0.201856
0.201976
0.202113
0.202197
0.202195
0.202086
0.201827
0.208353
0.208061
0.207934
0.207912
0.207949
0.208
0.208025
0.208001
0.207919
0.207757
0.214208
0.214063
0.213974
0.213927
0.21391
0.213902
0.213883
0.21384
0.213775
0.21368
0.22013
0.220066
0.219994
0.219926
0.219866
0.219809
0.21975
0.219687
0.219628
0.219578
0.226117
0.226094
0.226022
0.225926
0.225821
0.225714
0.225612
0.225522
0.225457
0.225436
0.232176
0.23217
0.232079
0.231941
0.23178
0.231613
0.231457
0.231327
0.231243
0.231234
0.238329
0.238317
0.238185
0.237983
0.237746
0.237501
0.237273
0.237085
0.236964
0.236947
0.244614
0.244564
0.244358
0.244062
0.243722
0.243372
0.243047
0.242779
0.242598
0.242546
0.251089
0.250944
0.250618
0.250186
0.249706
0.249222
0.248772
0.248391
0.248118
0.247991
0.257844
0.257492
0.256975
0.256355
0.255694
0.255043
0.254436
0.253909
0.2535
0.253228
0.265027
0.264221
0.263418
0.262548
0.261671
0.260828
0.26004
0.259332
0.258731
0.258205
0.272781
0.271162
0.269892
0.268709
0.267598
0.266569
0.265597
0.264681
0.263814
0.262877
0.281343
0.278149
0.276205
0.274692
0.273396
0.272251
0.271144
0.270019
0.268803
0.267219
0.290605
0.284638
0.281889
0.280194
0.278906
0.277847
0.276757
0.275481
0.273833
0.271272
0.300828
0.290038
0.286278
0.284731
0.283858
0.283292
0.282545
0.281298
0.279167
0.275191
0.315798
0.293377
0.2876
0.287033
0.287559
0.288344
0.288609
0.28781
0.285254
0.279332
0.177441
0.17367
0.174567
0.176436
0.178054
0.179258
0.179977
0.18021
0.179929
0.17891
0.185901
0.182345
0.18223
0.18308
0.183999
0.184766
0.185245
0.185387
0.185153
0.184372
0.191324
0.18933
0.189097
0.189474
0.189985
0.190455
0.190756
0.190831
0.190644
0.190076
0.196903
0.195827
0.195592
0.195724
0.195987
0.196255
0.196427
0.196455
0.196311
0.195918
0.202584
0.202014
0.201832
0.201856
0.201976
0.202113
0.202197
0.202195
0.202086
0.201827
0.208353
0.208061
0.207934
0.207912
0.207949
0.208
0.208025
0.208001
0.207919
0.207757
0.214208
0.214063
0.213974
0.213927
0.21391
0.213902
0.213883
0.21384
0.213775
0.21368
0.22013
0.220066
0.219994
0.219926
0.219866
0.219809
0.21975
0.219687
0.219628
0.219578
0.226117
0.226094
0.226022
0.225926
0.225821
0.225714
0.225612
0.225522
0.225457
0.225436
0.232175
0.23217
0.232079
0.231941
0.23178
0.231613
0.231457
0.231327
0.231243
0.231233
0.238329
0.238317
0.238185
0.237983
0.237746
0.237501
0.237273
0.237085
0.236964
0.236947
0.244614
0.244564
0.244358
0.244062
0.243722
0.243372
0.243047
0.242779
0.242598
0.242546
0.251089
0.250944
0.250618
0.250186
0.249706
0.249222
0.248772
0.248391
0.248118
0.247991
0.257844
0.257492
0.256975
0.256355
0.255694
0.255043
0.254436
0.253909
0.2535
0.253228
0.265027
0.264221
0.263418
0.262548
0.26167
0.260828
0.26004
0.259332
0.258731
0.258205
0.272781
0.271162
0.269892
0.268709
0.267598
0.266569
0.265597
0.264681
0.263813
0.262877
0.281343
0.278149
0.276204
0.274692
0.273396
0.272251
0.271144
0.270019
0.268803
0.267219
0.290605
0.284637
0.281889
0.280194
0.278906
0.277847
0.276757
0.275481
0.273833
0.271272
0.300827
0.290038
0.286278
0.284731
0.283858
0.283292
0.282545
0.281298
0.279167
0.275191
0.315797
0.293377
0.2876
0.287033
0.287559
0.288344
0.288609
0.28781
0.285254
0.279332
0.176853
0.173556
0.174481
0.176386
0.178036
0.179251
0.179975
0.180208
0.179915
0.178925
0.185824
0.182388
0.182199
0.183051
0.183985
0.184758
0.185241
0.185384
0.185141
0.184382
0.191324
0.189377
0.189092
0.189462
0.189978
0.19045
0.190752
0.190827
0.190634
0.190083
0.196889
0.195845
0.195589
0.195717
0.195982
0.19625
0.196424
0.196452
0.196304
0.195922
0.202575
0.202022
0.201832
0.201853
0.201973
0.20211
0.202195
0.202192
0.202081
0.201829
0.20835
0.208065
0.207934
0.207911
0.207947
0.207998
0.208023
0.207999
0.207916
0.207758
0.214207
0.214065
0.213974
0.213927
0.213909
0.213901
0.213881
0.213839
0.213773
0.213681
0.22013
0.220067
0.219994
0.219926
0.219865
0.219808
0.219749
0.219687
0.219628
0.219578
0.226117
0.226094
0.226022
0.225926
0.225821
0.225714
0.225611
0.225521
0.225457
0.225436
0.232176
0.232169
0.232079
0.231941
0.23178
0.231613
0.231456
0.231327
0.231243
0.231233
0.238329
0.238316
0.238185
0.237983
0.237746
0.237501
0.237272
0.237085
0.236965
0.236946
0.244615
0.244563
0.244359
0.244063
0.243723
0.243372
0.243047
0.242778
0.242598
0.242545
0.251089
0.250945
0.250619
0.250187
0.249707
0.249222
0.248771
0.24839
0.248117
0.247989
0.257844
0.257495
0.256978
0.256357
0.255695
0.255042
0.254434
0.253907
0.253497
0.253227
0.265026
0.264231
0.263422
0.262551
0.261672
0.260827
0.260037
0.259329
0.258724
0.258205
0.272771
0.271184
0.269898
0.268712
0.2676
0.266567
0.265593
0.264675
0.263799
0.262879
0.281298
0.278188
0.276209
0.274693
0.273397
0.272248
0.271139
0.270009
0.268777
0.267226
0.29052
0.284748
0.281908
0.280195
0.278909
0.277843
0.27675
0.275467
0.27379
0.271288
0.300737
0.29031
0.286295
0.284707
0.28385
0.283282
0.282535
0.281278
0.279098
0.275221
0.314715
0.293345
0.287382
0.286891
0.287511
0.288321
0.288596
0.287785
0.285149
0.279384
0.264905
0.272622
0.278949
0.284295
0.288816
0.29259
0.295042
0.295473
0.292658
0.284461
0.241819
0.257681
0.26962
0.279592
0.288441
0.296219
0.302138
0.305029
0.302711
0.291653
0.22893
0.245612
0.259904
0.273289
0.286406
0.299061
0.310021
0.317242
0.316848
0.302991
0.218666
0.234606
0.249867
0.265682
0.282784
0.301024
0.318856
0.333112
0.337294
0.32199
0.210274
0.225078
0.240442
0.257816
0.278418
0.302659
0.329262
0.354134
0.367405
0.354853
0.204024
0.217877
0.233115
0.251601
0.275304
0.305737
0.342887
0.382761
0.412274
0.411925
0.200312
0.213886
0.229462
0.249334
0.276314
0.313326
0.362829
0.422733
0.478779
0.508524
0.199094
0.213194
0.229902
0.251929
0.282965
0.327758
0.391876
0.477309
0.574052
0.6736
0.199482
0.214285
0.2321
0.255987
0.290511
0.342486
0.421883
0.53875
0.703399
0.981635
0.20016
0.21468
0.231817
0.254463
0.287296
0.338342
0.422952
0.57031
0.852379
1.46722
0.26517
0.272206
0.278832
0.284273
0.288802
0.292587
0.29504
0.295499
0.292812
0.284377
0.242153
0.257622
0.269573
0.279564
0.288418
0.296206
0.302124
0.305057
0.302933
0.29153
0.229141
0.245634
0.259897
0.273273
0.286384
0.29904
0.30999
0.317271
0.31716
0.302824
0.218751
0.234617
0.249858
0.265661
0.282752
0.300984
0.318795
0.333132
0.337705
0.321774
0.210309
0.225079
0.240422
0.257777
0.27836
0.302581
0.329149
0.354128
0.367882
0.354605
0.204038
0.217866
0.233077
0.25153
0.275195
0.305578
0.342665
0.382668
0.412721
0.411856
0.200322
0.213871
0.229411
0.249229
0.276126
0.313018
0.362369
0.422389
0.478875
0.508969
0.199127
0.213222
0.229917
0.251915
0.282881
0.327499
0.391394
0.476811
0.572858
0.673234
0.199541
0.214382
0.23226
0.256239
0.290881
0.342955
0.422494
0.53921
0.700139
0.979215
0.200211
0.214737
0.231873
0.254518
0.287366
0.338469
0.423363
0.570823
0.848771
1.47645
0.26517
0.272206
0.278832
0.284273
0.288802
0.292587
0.29504
0.295499
0.292812
0.284377
0.242153
0.257622
0.269573
0.279564
0.288418
0.296206
0.302124
0.305057
0.302933
0.29153
0.229141
0.245634
0.259897
0.273273
0.286384
0.29904
0.30999
0.317271
0.31716
0.302824
0.218751
0.234617
0.249858
0.265661
0.282752
0.300984
0.318795
0.333132
0.337705
0.321774
0.210309
0.225079
0.240422
0.257777
0.278361
0.302581
0.329149
0.354128
0.367882
0.354605
0.204038
0.217866
0.233077
0.25153
0.275195
0.305578
0.342665
0.382669
0.412722
0.411856
0.200322
0.213872
0.229411
0.249229
0.276126
0.313018
0.362369
0.422389
0.478875
0.508969
0.199127
0.213222
0.229917
0.251915
0.282881
0.327499
0.391394
0.476811
0.572858
0.673234
0.199541
0.214382
0.23226
0.256239
0.290881
0.342955
0.422494
0.53921
0.700139
0.979215
0.200211
0.214737
0.231873
0.254518
0.287366
0.338469
0.423363
0.570823
0.848771
1.47645
0.264905
0.272622
0.278948
0.284295
0.288816
0.29259
0.295042
0.295473
0.292658
0.284461
0.241819
0.257681
0.26962
0.279592
0.288441
0.296219
0.302138
0.305029
0.302711
0.291653
0.22893
0.245612
0.259904
0.273289
0.286406
0.299061
0.310021
0.317242
0.316848
0.302991
0.218666
0.234606
0.249867
0.265683
0.282784
0.301024
0.318856
0.333112
0.337294
0.32199
0.210274
0.225078
0.240442
0.257816
0.278418
0.302659
0.329262
0.354134
0.367405
0.354853
0.204024
0.217878
0.233116
0.251601
0.275304
0.305737
0.342887
0.382761
0.412274
0.411925
0.200312
0.213886
0.229462
0.249334
0.276314
0.313326
0.362829
0.422733
0.478779
0.508524
0.199094
0.213195
0.229902
0.251929
0.282965
0.327758
0.391876
0.477309
0.574052
0.6736
0.199482
0.214285
0.232101
0.255987
0.290511
0.342486
0.421883
0.53875
0.703399
0.981635
0.20016
0.21468
0.231817
0.254464
0.287296
0.338342
0.422952
0.57031
0.852379
1.46722
-0.135193
-0.114589
-0.0971387
-0.0807043
-0.0641281
-0.0473068
-0.0302747
-0.0130806
0.00422377
0.0215918
0.0389838
0.0563675
0.0737208
0.0910407
0.108369
0.125848
0.143808
0.162959
0.185838
0.220227
-0.125297
-0.110707
-0.0955709
-0.0798215
-0.0635335
-0.0468787
-0.0299562
-0.0128374
0.00441876
0.0217648
0.0391645
0.0565938
0.0740454
0.0915393
0.109146
0.127027
0.145477
0.164949
0.18664
0.213298
-0.123469
-0.11006
-0.0953524
-0.079754
-0.0635381
-0.0469044
-0.0299761
-0.012839
0.00444307
0.0218226
0.0392653
0.0567489
0.0742665
0.0918328
0.109499
0.127376
0.14565
0.164579
0.184669
0.206691
-0.124961
-0.111218
-0.09626
-0.0804657
-0.0640914
-0.04732
-0.0302732
-0.0130348
0.00433558
0.0217952
0.039313
0.0568674
0.0744454
0.0920444
0.109676
0.127376
0.145198
0.163216
0.18156
0.200342
-0.128287
-0.113641
-0.0980336
-0.0817635
-0.0650367
-0.0479993
-0.0307488
-0.0133516
0.00414657
0.0217127
0.0393215
0.0569516
0.0745817
0.0921868
0.109735
0.127184
0.144474
0.161522
0.178256
0.194604
-0.132061
-0.116377
-0.100002
-0.0831705
-0.066036
-0.0487014
-0.0312321
-0.0136706
0.00395423
0.0216206
0.0393091
0.0569972
0.0746541
0.092233
0.109663
0.12684
0.143624
0.15984
0.175333
0.19003
-0.134616
-0.118183
-0.101269
-0.0840525
-0.0666458
-0.0491178
-0.0315096
-0.0138463
0.00385473
0.0215784
0.0393072
0.0570155
0.0746628
0.0921849
0.109484
0.126421
0.142816
0.158468
0.173217
0.187061
-0.134699
-0.118151
-0.101197
-0.0839716
-0.0665696
-0.0490495
-0.0314484
-0.0137904
0.00390643
0.0216247
0.0393427
0.0570287
0.0746333
0.0920809
0.109262
0.126025
0.142191
0.157575
0.172068
0.185755
-0.131955
-0.116134
-0.0997446
-0.0829398
-0.0658399
-0.0485332
-0.0310812
-0.0135275
0.00409513
0.0217582
0.0394311
0.0570741
0.0746311
0.0920216
0.109133
0.12582
0.141916
0.157268
0.171811
0.185701
-0.126228
-0.112195
-0.0970608
-0.0811162
-0.064598
-0.0476819
-0.0304923
-0.0131155
0.00438753
0.0219703
0.0395912
0.0572044
0.0747515
0.0921521
0.109297
0.126046
0.142235
0.157711
0.172394
0.186392
-0.135299
-0.114438
-0.097118
-0.0807156
-0.0641338
-0.0473105
-0.0302777
-0.0130828
0.00422215
0.0215906
0.0389828
0.0563663
0.0737189
0.0910371
0.108361
0.125834
0.143795
0.162927
0.185572
0.219751
-0.12526
-0.110593
-0.0955302
-0.0798007
-0.0635167
-0.0468664
-0.0299473
-0.0128307
0.00442378
0.0217688
0.0391681
0.0565978
0.0740511
0.0915481
0.109159
0.127048
0.145515
0.164988
0.186529
0.213065
-0.123504
-0.110035
-0.0953334
-0.0797393
-0.0635267
-0.0468965
-0.0299706
-0.0128352
0.00444582
0.0218246
0.0392668
0.0567501
0.0742675
0.0918336
0.109498
0.127373
0.145646
0.164564
0.184591
0.206621
-0.124976
-0.111204
-0.0962456
-0.0804541
-0.0640826
-0.0473138
-0.0302689
-0.0130319
0.0043376