/*--------------------------------*- C++ -*----------------------------------*\
| =========                 |                                                 |
| \\      /  F ield         | OpenFOAM: The Open Source CFD Toolbox           |
|  \\    /   O peration     | Version:  2.4.0                                 |
|   \\  /    A nd           | Web:      www.OpenFOAM.org                      |
|    \\/     M anipulation  |                                                 |
\*---------------------------------------------------------------------------*/
FoamFile
{
    version     2.0;
    format      ascii;
    class       surfaceScalarField;
    location    "0.4";
    object      phi;
}
// * * * * * * * * * * * * * * * * * * * * * * * * * * * * * * * * * * * * * //

dimensions      [0 3 -1 0 0 0 0];

internalField   nonuniform List<scalar> 
12720
(
-6.08453e-08
6.08348e-08
3.20695e-11
-7.17494e-07
6.55197e-07
1.45156e-09
-1.85931e-06
1.13998e-06
1.83512e-09
-3.2901e-06
1.4286e-06
2.19538e-09
-4.86674e-06
1.57425e-06
2.39031e-09
-6.48921e-06
1.62003e-06
2.44135e-09
-8.08096e-06
1.58934e-06
2.40887e-09
-9.57382e-06
1.49058e-06
2.28788e-09
-1.09032e-05
1.32729e-06
2.05539e-09
1.11031e-06
1.69298e-09
-1.20152e-05
-6.67787e-07
7.2997e-07
-1.34857e-09
-2.54141e-06
2.52872e-06
9.99614e-11
-5.30295e-06
3.90279e-06
-1.26383e-09
-8.64659e-06
4.77396e-06
-1.72356e-09
-1.23139e-05
5.24342e-06
-1.87359e-09
-1.60967e-05
5.40484e-06
-1.96783e-09
-1.98181e-05
5.31269e-06
-1.93435e-09
-2.33142e-05
4.98844e-06
-1.79255e-09
-2.64315e-05
4.44621e-06
-1.58897e-09
3.726e-06
-1.39879e-09
-2.90458e-05
-1.18724e-06
1.91903e-06
-1.82675e-09
-4.00347e-06
5.34355e-06
1.40795e-09
-7.94244e-06
7.84176e-06
-1.47834e-13
-1.26166e-05
9.44819e-06
-9.85169e-11
-1.77129e-05
1.03397e-05
7.30786e-11
-2.29706e-05
1.06625e-05
8.9376e-11
-2.81528e-05
1.04948e-05
1.05064e-10
-3.30254e-05
9.86088e-06
1.36964e-10
-3.73583e-05
8.779e-06
1.62524e-10
7.32565e-06
8.04077e-11
-4.0958e-05
-1.51843e-06
3.43977e-06
-2.30306e-09
-4.98701e-06
8.81004e-06
2.08294e-09
-9.73868e-06
1.25934e-05
3.78463e-12
-1.53222e-05
1.50318e-05
-9.14431e-11
-2.13968e-05
1.64141e-05
1.67112e-10
-2.76785e-05
1.69439e-05
2.18865e-10
-3.38931e-05
1.67091e-05
2.56823e-10
-3.97461e-05
1.57135e-05
3.1581e-10
-4.49223e-05
1.39548e-05
4.09871e-10
1.15376e-05
3.3252e-10
-4.91346e-05
-1.69923e-06
5.14154e-06
-2.54204e-09
-5.55376e-06
1.26626e-05
2.01551e-09
-1.08027e-05
1.78425e-05
-1.90318e-10
-1.6959e-05
2.11885e-05
-3.96006e-10
-2.36755e-05
2.31308e-05
-1.4231e-10
-3.0664e-05
2.39325e-05
-8.89833e-11
-3.76277e-05
2.36729e-05
-2.97336e-11
-4.4212e-05
2.22977e-05
8.64556e-11
-4.99933e-05
1.97356e-05
3.95802e-10
1.6081e-05
5.01471e-10
-5.45371e-05
-1.76327e-06
6.90742e-06
-2.6061e-09
-5.77303e-06
1.66702e-05
2.14685e-09
-1.12405e-05
2.33102e-05
-2.20369e-10
-1.7676e-05
2.76245e-05
-4.78762e-10
-2.47466e-05
3.02016e-05
-2.43366e-10
-3.21782e-05
3.13643e-05
-2.04132e-10
-3.96668e-05
3.11617e-05
-1.62603e-10
-4.68019e-05
2.94329e-05
-6.7362e-11
-5.3023e-05
2.59562e-05
5.67182e-10
2.07136e-05
1.14118e-09
-5.76567e-05
-1.73056e-06
8.64053e-06
-2.55123e-09
-5.68889e-06
2.06264e-05
2.1296e-09
-1.11121e-05
2.87336e-05
-2.32459e-10
-1.75361e-05
3.4049e-05
-5.2428e-10
-2.46587e-05
3.73245e-05
-3.3541e-10
-3.22377e-05
3.89437e-05
-3.29491e-10
-3.99851e-05
3.89094e-05
-3.52755e-10
-4.74561e-05
3.69043e-05
-4.50629e-10
-5.3944e-05
3.24433e-05
7.19822e-10
2.51727e-05
2.68551e-09
-5.84058e-05
-1.6102e-06
1.02531e-05
-2.37131e-09
-5.32232e-06
2.43365e-05
1.99748e-09
-1.04373e-05
3.38488e-05
-2.30662e-10
-1.65312e-05
4.01435e-05
-5.40494e-10
-2.33367e-05
4.41304e-05
-4.15245e-10
-3.06508e-05
4.62582e-05
-4.19227e-10
-3.8226e-05
4.6485e-05
-4.43105e-10
-4.56323e-05
4.43115e-05
-8.27478e-10
-5.20667e-05
3.88759e-05
1.86443e-09
2.90641e-05
9.60875e-09
-5.59677e-05
-1.40927e-06
1.16644e-05
-2.05217e-09
-4.6935e-06
2.76189e-05
1.79815e-09
-9.23806e-06
3.83936e-05
-1.87965e-10
-1.46535e-05
4.55595e-05
-5.13775e-10
-2.06862e-05
5.01636e-05
-5.25551e-10
-2.71469e-05
5.27196e-05
-6.84884e-10
-3.38232e-05
5.31623e-05
-1.03693e-09
-4.03434e-05
5.08348e-05
-3.15388e-09
-4.59677e-05
4.45008e-05
-5.86277e-10
3.16642e-05
2.14049e-08
-4.85893e-05
-1.14421e-06
-1.59605e-09
1.28102e-05
-3.85363e-06
1.59122e-09
3.03267e-05
-7.60176e-06
-4.45648e-11
4.21418e-05
-1.20092e-05
-3.24083e-10
4.99673e-05
-1.67812e-05
-4.52523e-10
5.4936e-05
-2.16522e-05
-8.97139e-10
5.75915e-05
-2.63201e-05
-2.11836e-09
5.78324e-05
-3.03192e-05
-9.25952e-09
5.48431e-05
-3.28527e-05
-2.00753e-08
4.70543e-05
3.44785e-09
-3.26356e-05
3.14438e-05
-5.94108e-08
5.94398e-08
3.21555e-12
-7.17728e-07
6.59769e-07
1.36075e-12
-1.85966e-06
1.14377e-06
1.46551e-12
-3.2901e-06
1.43264e-06
1.24296e-12
-4.8666e-06
1.57889e-06
7.84889e-13
-6.48907e-06
1.62491e-06
3.77672e-13
-8.08085e-06
1.59419e-06
3.02349e-13
-9.57378e-06
1.49521e-06
1.98217e-13
-1.09032e-05
1.3315e-06
1.17267e-13
1.11379e-06
5.71578e-14
-1.20153e-05
-6.72191e-07
7.30279e-07
2.65169e-12
-2.54439e-06
2.53207e-06
1.53557e-12
-5.30533e-06
3.90344e-06
1.7953e-12
-8.64811e-06
4.77369e-06
1.50911e-12
-1.23144e-05
5.24329e-06
1.1211e-12
-1.60964e-05
5.40492e-06
7.9469e-13
-1.98171e-05
5.31299e-06
6.20349e-13
-2.33127e-05
4.98901e-06
5.04411e-13
-2.64298e-05
4.44704e-06
3.31013e-13
3.72665e-06
2.57973e-13
-2.90441e-05
-1.19107e-06
1.91952e-06
1.90752e-12
-4.00387e-06
5.34628e-06
1.44696e-12
-7.94275e-06
7.84232e-06
1.51262e-12
-1.2617e-05
9.44783e-06
1.46627e-12
-1.7713e-05
1.03393e-05
1.19015e-12
-2.29703e-05
1.06623e-05
9.70153e-13
-2.81521e-05
1.04949e-05
7.83439e-13
-3.30245e-05
9.86157e-06
6.67745e-13
-3.73577e-05
8.78031e-06
5.4302e-13
7.3267e-06
4.98547e-13
-4.09576e-05
-1.52272e-06
3.43993e-06
1.67971e-12
-4.98638e-06
8.81202e-06
1.50891e-12
-9.73806e-06
1.2594e-05
1.29285e-12
-1.5322e-05
1.50317e-05
1.30311e-12
-2.13966e-05
1.64141e-05
1.17757e-12
-2.7678e-05
1.6944e-05
9.37728e-13
-3.38925e-05
1.67097e-05
8.91831e-13
-3.97454e-05
1.57148e-05
7.73054e-13
-4.4922e-05
1.39574e-05
7.06588e-13
1.154e-05
6.70882e-13
-4.9135e-05
-1.70409e-06
5.14148e-06
1.79368e-12
-5.55329e-06
1.26632e-05
1.51071e-12
-1.0802e-05
1.78426e-05
1.34202e-12
-1.69589e-05
2.11881e-05
1.27862e-12
-2.36753e-05
2.31303e-05
1.18607e-12
-3.06636e-05
2.39323e-05
1.09542e-12
-3.7627e-05
2.3673e-05
1.01104e-12
-4.4211e-05
2.22989e-05
8.68423e-13
-4.99929e-05
1.97396e-05
8.24508e-13
1.60859e-05
7.47146e-13
-5.45383e-05
-1.7684e-06
6.90727e-06
1.96395e-12
-5.77274e-06
1.66697e-05
1.60695e-12
-1.124e-05
2.33096e-05
1.39025e-12
-1.76762e-05
2.76238e-05
1.39665e-12
-2.47467e-05
3.02006e-05
1.22788e-12
-3.21781e-05
3.13635e-05
1.13347e-12
-3.96663e-05
3.1161e-05
1.04233e-12
-4.68007e-05
2.94331e-05
1.00508e-12
-5.30224e-05
2.5962e-05
8.29491e-13
2.0724e-05
6.66735e-13
-5.76593e-05
-1.73563e-06
8.64035e-06
1.81417e-12
-5.68878e-06
2.0625e-05
1.59777e-12
-1.1112e-05
2.87326e-05
1.41725e-12
-1.75367e-05
3.40479e-05
1.3168e-12
-2.46595e-05
3.73231e-05
1.24834e-12
-3.22385e-05
3.89421e-05
1.16838e-12
-3.99853e-05
3.89075e-05
1.03766e-12
-4.74548e-05
3.69021e-05
9.4854e-13
-5.39426e-05
3.24505e-05
8.47337e-13
2.51954e-05
6.11254e-13
-5.84114e-05
-1.61495e-06
1.02529e-05
1.73797e-12
-5.3224e-06
2.43344e-05
1.51924e-12
-1.04376e-05
3.38475e-05
1.36677e-12
-1.65324e-05
4.01422e-05
1.3434e-12
-2.33385e-05
4.41287e-05
1.30066e-12
-3.06527e-05
4.6256e-05
1.07587e-12
-3.82273e-05
4.64816e-05
9.18359e-13
-4.56301e-05
4.43041e-05
7.96516e-13
-5.20573e-05
3.88796e-05
7.70503e-13
2.91224e-05
5.57231e-13
-5.59746e-05
-1.41342e-06
1.16643e-05
1.61364e-12
-4.69368e-06
2.76165e-05
1.50173e-12
-9.23866e-06
3.83923e-05
1.36086e-12
-1.46555e-05
4.55586e-05
1.28504e-12
-2.06898e-05
5.01625e-05
1.20014e-12
-2.71527e-05
5.27182e-05
1.08755e-12
-3.38322e-05
5.31601e-05
8.65471e-13
-4.03542e-05
5.08229e-05
6.3101e-13
-4.59489e-05
4.44738e-05
6.0056e-13
3.17494e-05
5.09162e-13
-4.85546e-05
-1.14744e-06
1.47847e-12
1.28101e-05
-3.85354e-06
1.39865e-12
3.03242e-05
-7.60194e-06
1.29624e-12
4.21407e-05
-1.20107e-05
1.1898e-12
4.99671e-05
-1.67852e-05
1.10396e-12
5.49365e-05
-2.16612e-05
1.00235e-12
5.75933e-05
-2.63412e-05
8.68906e-13
5.78379e-05
-3.03794e-05
6.64118e-13
5.48518e-05
-3.29458e-05
5.89858e-13
4.70201e-05
5.61047e-13
-3.2478e-05
3.1285e-05
-5.9413e-08
5.94386e-08
-2.21202e-11
-7.17728e-07
6.59768e-07
-1.44962e-09
-1.85966e-06
1.14377e-06
-1.83396e-09
-3.2901e-06
1.43263e-06
-2.19455e-09
-4.8666e-06
1.57889e-06
-2.38967e-09
-6.48906e-06
1.62491e-06
-2.44059e-09
-8.08084e-06
1.59419e-06
-2.40819e-09
-9.57377e-06
1.49521e-06
-2.28725e-09
-1.09032e-05
1.3315e-06
-2.05493e-09
1.11379e-06
-1.69262e-09
-1.20153e-05
-6.72192e-07
7.30278e-07
1.35314e-09
-2.54439e-06
2.53206e-06
-9.91044e-11
-5.30533e-06
3.90344e-06
1.26579e-09
-8.6481e-06
4.77369e-06
1.72479e-09
-1.23144e-05
5.24328e-06
1.87459e-09
-1.60964e-05
5.40491e-06
1.96883e-09
-1.98171e-05
5.31299e-06
1.93531e-09
-2.33127e-05
4.989e-06
1.79334e-09
-2.64298e-05
4.44704e-06
1.58958e-09
3.72665e-06
1.39924e-09
-2.90441e-05
-1.19106e-06
1.91952e-06
1.8306e-09
-4.00387e-06
5.34628e-06
-1.40483e-09
-7.94274e-06
7.84231e-06
2.33447e-12
-1.2617e-05
9.44782e-06
1.00021e-10
-1.77129e-05
1.03393e-05
-7.17641e-11
-2.29702e-05
1.06623e-05
-8.81643e-11
-2.81521e-05
1.04949e-05
-1.03942e-10
-3.30245e-05
9.86156e-06
-1.36048e-10
-3.73576e-05
8.78031e-06
-1.61772e-10
7.3267e-06
-7.98169e-11
-4.09576e-05
-1.52271e-06
3.43993e-06
2.30638e-09
-4.98637e-06
8.81201e-06
-2.07941e-09
-9.73804e-06
1.2594e-05
-1.42984e-12
-1.5322e-05
1.50317e-05
9.32477e-11
-2.13965e-05
1.6414e-05
-1.65561e-10
-2.7678e-05
1.6944e-05
-2.17391e-10
-3.38924e-05
1.67096e-05
-2.55593e-10
-3.97453e-05
1.57148e-05
-3.14734e-10
-4.4922e-05
1.39573e-05
-4.08953e-10
1.154e-05
-3.31776e-10
-4.91349e-05
-1.70409e-06
5.14148e-06
2.54506e-09
-5.55329e-06
1.26632e-05
-2.01283e-09
-1.0802e-05
1.78425e-05
1.92543e-10
-1.69588e-05
2.11881e-05
3.97895e-10
-2.36753e-05
2.31303e-05
1.43992e-10
-3.06636e-05
2.39322e-05
9.05059e-11
-3.7627e-05
2.3673e-05
3.1096e-11
-4.4211e-05
2.22988e-05
-8.5214e-11
-4.99929e-05
1.97396e-05
-3.94753e-10
1.60859e-05
-5.00595e-10
-5.45383e-05
-1.7684e-06
6.90726e-06
2.60865e-09
-5.77273e-06
1.66697e-05
-2.14447e-09
-1.124e-05
2.33096e-05
2.22493e-10
-1.76761e-05
2.76237e-05
4.80611e-10
-2.47467e-05
3.02006e-05
2.4513e-10
-3.21781e-05
3.13635e-05
2.05753e-10
-3.96663e-05
3.1161e-05
1.64066e-10
-4.68006e-05
2.94331e-05
6.86112e-11
-5.30224e-05
2.5962e-05
-5.66052e-10
2.07239e-05
-1.14024e-09
-5.76593e-05
-1.73563e-06
8.64034e-06
2.55362e-09
-5.68878e-06
2.0625e-05
-2.1274e-09
-1.11119e-05
2.87325e-05
2.345e-10
-1.75366e-05
3.40479e-05
5.26248e-10
-2.46595e-05
3.73231e-05
3.37212e-10
-3.22385e-05
3.89421e-05
3.31125e-10
-3.99852e-05
3.89075e-05
3.54229e-10
-4.74547e-05
3.69021e-05
4.51857e-10
-5.39425e-05
3.24505e-05
-7.18831e-10
2.51954e-05
-2.68465e-09
-5.84114e-05
-1.61494e-06
1.02529e-05
2.3735e-09
-5.32239e-06
2.43344e-05
-1.99534e-09
-1.04376e-05
3.38475e-05
2.32733e-10
-1.65324e-05
4.01422e-05
5.42428e-10
-2.33385e-05
4.41287e-05
4.16989e-10
-3.06527e-05
4.62559e-05
4.20857e-10
-3.82273e-05
4.64816e-05
4.44536e-10
-4.563e-05
4.43041e-05
8.2866e-10
-5.20572e-05
3.88796e-05
-1.86358e-09
2.91224e-05
-9.60811e-09
-5.59746e-05
-1.41341e-06
1.16643e-05
2.05425e-09
-4.69367e-06
2.76165e-05
-1.7961e-09
-9.23865e-06
3.83923e-05
1.89954e-10
-1.46555e-05
4.55586e-05
5.15658e-10
-2.06898e-05
5.01624e-05
5.27256e-10
-2.71527e-05
5.27182e-05
6.86334e-10
-3.38322e-05
5.31601e-05
1.03821e-09
-4.03542e-05
5.08229e-05
3.15504e-09
-4.59489e-05
4.44738e-05
5.87138e-10
3.17494e-05
-2.14044e-08
-4.85546e-05
-1.14744e-06
1.59793e-09
1.28101e-05
-3.85353e-06
-1.58929e-09
3.03242e-05
-7.60193e-06
4.6431e-11
4.21407e-05
-1.20107e-05
3.25876e-10
4.9967e-05
-1.67852e-05
4.54099e-10
5.49365e-05
-2.16612e-05
8.98468e-10
5.75933e-05
-2.63412e-05
2.11945e-09
5.78379e-05
-3.03794e-05
9.26058e-09
5.48518e-05
-3.29458e-05
2.00763e-08
4.70201e-05
-3.44714e-09
-3.2478e-05
3.1285e-05
-6.08526e-08
6.08306e-08
-7.17494e-07
6.55198e-07
-1.8593e-06
1.13998e-06
-3.2901e-06
1.4286e-06
-4.86673e-06
1.57425e-06
-6.4892e-06
1.62002e-06
-8.08094e-06
1.58934e-06
-9.5738e-06
1.49057e-06
-1.09031e-05
1.32729e-06
1.11031e-06
-1.20151e-05
-6.67788e-07
7.29966e-07
-2.54141e-06
2.52872e-06
-5.30294e-06
3.90278e-06
-8.64657e-06
4.77395e-06
-1.23139e-05
5.2434e-06
-1.60967e-05
5.40483e-06
-1.98181e-05
5.31268e-06
-2.33142e-05
4.98843e-06
-2.64315e-05
4.4462e-06
3.726e-06
-2.90458e-05
-1.18723e-06
1.91903e-06
-4.00346e-06
5.34354e-06
-7.94242e-06
7.84174e-06
-1.26165e-05
9.44817e-06
-1.77128e-05
1.03396e-05
-2.29705e-05
1.06624e-05
-2.81527e-05
1.04947e-05
-3.30253e-05
9.86086e-06
-3.73582e-05
8.77899e-06
7.32564e-06
-4.09579e-05
-1.51843e-06
3.43976e-06
-4.98699e-06
8.81002e-06
-9.73865e-06
1.25934e-05
-1.53221e-05
1.50317e-05
-2.13967e-05
1.64141e-05
-2.76784e-05
1.69439e-05
-3.3893e-05
1.67091e-05
-3.9746e-05
1.57135e-05
-4.49222e-05
1.39548e-05
1.15376e-05
-4.91344e-05
-1.69922e-06
5.14153e-06
-5.55374e-06
1.26625e-05
-1.08026e-05
1.78425e-05
-1.69589e-05
2.11884e-05
-2.36754e-05
2.31307e-05
-3.06639e-05
2.39325e-05
-3.76277e-05
2.36729e-05
-4.42119e-05
2.22977e-05
-4.99932e-05
1.97356e-05
1.6081e-05
-5.4537e-05
-1.76327e-06
6.9074e-06
-5.77301e-06
1.66701e-05
-1.12404e-05
2.33101e-05
-1.7676e-05
2.76245e-05
-2.47465e-05
3.02015e-05
-3.21781e-05
3.13643e-05
-3.96667e-05
3.11616e-05
-4.68018e-05
2.94328e-05
-5.30229e-05
2.59561e-05
2.07136e-05
-5.76566e-05
-1.73055e-06
8.64051e-06
-5.68887e-06
2.06263e-05
-1.1112e-05
2.87335e-05
-1.7536e-05
3.4049e-05
-2.46586e-05
3.73244e-05
-3.22377e-05
3.89436e-05
-3.9985e-05
3.89093e-05
-4.7456e-05
3.69043e-05
-5.39439e-05
3.24433e-05
2.51727e-05
-5.84057e-05
-1.61019e-06
1.02531e-05
-5.3223e-06
2.43364e-05
-1.04373e-05
3.38488e-05
-1.65312e-05
4.01434e-05
-2.33367e-05
4.41304e-05
-3.06507e-05
4.62581e-05
-3.82259e-05
4.6485e-05
-4.56322e-05
4.43114e-05
-5.20667e-05
3.88759e-05
2.90641e-05
-5.59677e-05
-1.40926e-06
1.16644e-05
-4.69349e-06
2.76188e-05
-9.23804e-06
3.83935e-05
-1.46535e-05
4.55594e-05
-2.06861e-05
5.01635e-05
-2.71469e-05
5.27195e-05
-3.38232e-05
5.31623e-05
-4.03434e-05
5.08348e-05
-4.59677e-05
4.45008e-05
3.16643e-05
-4.85893e-05
-1.14421e-06
1.28102e-05
-3.85362e-06
3.03267e-05
-7.60175e-06
4.21417e-05
-1.20092e-05
4.99672e-05
-1.67812e-05
5.49359e-05
-2.16521e-05
5.75914e-05
-2.63201e-05
5.78324e-05
-3.03192e-05
5.48431e-05
-3.28527e-05
4.70543e-05
-3.26356e-05
3.14438e-05
-1.28831e-05
8.66644e-07
1.24141e-09
-1.35182e-05
6.34266e-07
8.41062e-10
-1.3958e-05
4.39306e-07
5.37013e-10
-1.42492e-05
2.9086e-07
3.23914e-10
-1.44356e-05
1.8627e-07
1.862e-10
-1.45531e-05
1.17303e-07
1.03587e-10
-1.46278e-05
7.46564e-08
5.77568e-11
-1.46781e-05
5.02851e-08
3.53283e-11
-1.47162e-05
3.80571e-08
2.73993e-11
-1.47497e-05
3.34849e-08
2.83109e-11
-1.47828e-05
3.30443e-08
3.43297e-11
-1.48161e-05
3.33133e-08
4.21734e-11
-1.48462e-05
3.00398e-08
4.75832e-11
-1.48635e-05
1.72547e-08
4.67151e-11
-1.48486e-05
-1.49365e-08
4.03741e-11
-1.47716e-05
-7.70298e-08
-6.83521e-12
-1.45875e-05
-1.83925e-07
-1.14246e-10
-1.42393e-05
-3.47937e-07
-3.07496e-10
-1.36648e-05
-5.73893e-07
-6.16461e-10
-8.50738e-07
-1.06322e-09
-1.2813e-05
-3.1097e-05
2.91908e-06
-1.26768e-09
-3.26121e-05
2.15042e-06
-1.07153e-09
-3.36762e-05
1.50424e-06
-8.45385e-10
-3.43939e-05
1.00922e-06
-6.35349e-10
-3.48638e-05
6.56593e-07
-4.57946e-10
-3.51662e-05
4.20009e-07
-3.20157e-10
-3.53609e-05
2.69672e-07
-2.20953e-10
-3.549e-05
1.79528e-07
-1.5392e-10
-3.55812e-05
1.29297e-07
-1.10706e-10
-3.56513e-05
1.03677e-07
-8.27707e-11
-3.57084e-05
9.02749e-08
-6.14544e-11
-3.57521e-05
7.69852e-08
-3.70983e-11
-3.57711e-05
4.90987e-08
1.52092e-12
-3.57403e-05
-1.36271e-08
6.71071e-11
-3.56156e-05
-1.39779e-07
1.67245e-10
-3.53269e-05
-3.66073e-07
3.28084e-10
-3.47766e-05
-7.34781e-07
5.54095e-10
-3.38428e-05
-1.28256e-06
8.38654e-10
-3.23962e-05
-2.02173e-06
1.15519e-09
-2.91524e-06
1.4245e-09
-3.03331e-05
-4.3732e-05
5.69321e-06
-1.94226e-10
-4.57375e-05
4.15621e-06
-2.99356e-10
-4.71175e-05
2.88461e-06
-3.02789e-10
-4.80326e-05
1.92455e-06
-2.72029e-10
-4.86239e-05
1.24809e-06
-2.21731e-10
-4.90007e-05
7.96958e-07
-1.68548e-10
-4.92409e-05
5.1008e-07
-1.22655e-10
-4.93974e-05
3.36116e-07
-8.66813e-11
-4.95041e-05
2.35984e-07
-5.98051e-11
-4.95809e-05
1.8055e-07
-3.94567e-11
-4.9637e-05
1.46365e-07
-2.21351e-11
-4.96707e-05
1.10668e-07
-3.49849e-12
-4.96675e-05
4.5922e-08
2.02454e-11
-4.95957e-05
-8.55177e-08
5.10638e-11
-4.93986e-05
-3.36965e-07
9.3248e-11
-4.89862e-05
-7.7863e-07
1.5351e-10
-4.82285e-05
-1.49264e-06
2.24874e-10
-4.69572e-05
-2.55415e-06
2.96943e-10
-4.49842e-05
-3.99509e-06
3.52468e-10
-5.75096e-06
2.72635e-10
-4.21488e-05
-5.22433e-05
8.80215e-06
-2.3613e-10
-5.43714e-05
6.28472e-06
-3.73586e-10
-5.57556e-05
4.26914e-06
-3.4387e-10
-5.66258e-05
2.79507e-06
-2.93725e-10
-5.71622e-05
1.78477e-06
-2.26722e-10
-5.74908e-05
1.12568e-06
-1.62854e-10
-5.76936e-05
7.12978e-07
-1.12657e-10
-5.7822e-05
4.64615e-07
-7.57462e-11
-5.79072e-05
3.21236e-07
-4.95066e-11
-5.79669e-05
2.40266e-07
-3.0722e-11
-5.80089e-05
1.8841e-07
-1.5946e-11
-5.80321e-05
1.33817e-07
-1.34802e-12
-5.80238e-05
3.76358e-08
1.60807e-11
-5.79554e-05
-1.53927e-07
3.84116e-11
-5.77723e-05
-5.2015e-07
7.36952e-11
-5.73812e-05
-1.16988e-06
1.28368e-10
-5.66353e-05
-2.23872e-06
1.99013e-10
-5.53252e-05
-3.86454e-06
2.8684e-10
-5.31897e-05
-6.13103e-06
4.09145e-10
-8.96856e-06
3.25957e-10
-4.99724e-05
-5.76152e-05
1.18809e-05
-6.59879e-10
-5.9494e-05
8.16424e-06
-7.0193e-10
-6.05697e-05
5.34531e-06
-5.16821e-10
-6.11614e-05
3.3872e-06
-3.90202e-10
-6.14808e-05
2.10441e-06
-2.67203e-10
-6.16534e-05
1.29847e-06
-1.69692e-10
-6.1749e-05
8.08643e-07
-1.05148e-10
-6.18048e-05
5.20486e-07
-6.43098e-11
-6.18406e-05
3.57062e-07
-3.90402e-11
-6.18667e-05
2.66398e-07
-2.35322e-11
-6.1888e-05
2.09747e-07
-1.34298e-11
-6.1905e-05
1.50879e-07
-5.28717e-12
-6.19125e-05
4.51079e-08
4.70853e-12
-6.18942e-05
-1.72296e-07
2.09449e-11
-6.18128e-05
-6.01555e-07
5.42932e-11
-6.15919e-05
-1.39088e-06
1.19335e-10
-6.10884e-05
-2.74243e-06
2.14954e-10
-6.0061e-05
-4.89231e-06
3.60196e-10
-5.81527e-05
-8.04007e-06
7.0244e-10
-1.21842e-05
8.1637e-10
-5.49378e-05
-6.02826e-05
1.45083e-05
-1.56183e-09
-6.14894e-05
9.37225e-06
-1.19977e-09
-6.19379e-05
5.79453e-06
-6.58716e-10
-6.2044e-05
3.49373e-06
-4.32036e-10
-6.20224e-05
2.08303e-06
-2.51081e-10
-6.19682e-05
1.24444e-06
-1.28805e-10
-6.19167e-05
7.57153e-07
-6.32913e-11
-6.18772e-05
4.8099e-07
-2.96525e-11
-6.18501e-05
3.30044e-07
-1.29814e-11
-6.18344e-05
2.5071e-07
-5.51544e-12
-6.18303e-05
2.05631e-07
-3.07147e-12
-6.18405e-05
1.61065e-07
-3.4801e-12
-6.187e-05
7.459e-08
-4.22358e-12
-6.19231e-05
-1.19161e-07
-3.96975e-13
-6.19956e-05
-5.29064e-07
1.59426e-11
-6.2054e-05
-1.3326e-06
7.33842e-11
-6.19951e-05
-2.80143e-06
1.65545e-10
-6.15798e-05
-5.308e-06
3.3648e-10
-6.03482e-05
-9.27285e-06
1.13674e-09
-1.49448e-05
1.93269e-09
-5.75895e-05
-5.99841e-05
1.60909e-05
-4.29871e-09
-6.00069e-05
9.3976e-06
-2.55388e-09
-5.95304e-05
5.31914e-06
-1.04237e-09
-5.90151e-05
2.97896e-06
-5.51559e-10
-5.86056e-05
1.67374e-06
-2.41674e-10
-5.83172e-05
9.56144e-07
-7.7746e-11
-5.81247e-05
5.64691e-07
-1.51135e-11
-5.79982e-05
3.54465e-07
6.46433e-12
-5.79143e-05
2.46176e-07
1.18512e-11
-5.78587e-05
1.95064e-07
1.03316e-11
-5.78257e-05
1.72639e-07
5.46913e-12
-5.78191e-05
1.54491e-07
-1.99829e-12
-5.78537e-05
1.09172e-07
-1.05597e-11
-5.79567e-05
-1.61603e-08
-1.39743e-11
-5.81677e-05
-3.18051e-07
-8.63462e-12
-5.85248e-05
-9.75587e-07
7.71221e-11
-5.90229e-05
-2.30352e-06
2.37139e-10
-5.95114e-05
-4.82007e-06
5.41679e-10
-5.94911e-05
-9.29565e-06
2.46406e-09
-1.66139e-05
5.19828e-09
-5.78272e-05
-5.55292e-05
1.56599e-05
-7.50948e-09
-5.38067e-05
7.67782e-06
-2.70362e-09
-5.22546e-05
3.76748e-06
-4.24618e-10
-5.11576e-05
1.88215e-06
-2.17245e-10
-5.04513e-05
9.67475e-07
-1.1176e-11
-5.00142e-05
5.18954e-07
7.44777e-11
-4.97453e-05
2.95707e-07
7.01183e-11
-4.95758e-05
1.84885e-07
5.41206e-11
-4.94628e-05
1.33144e-07
4.18326e-11
-4.93819e-05
1.14097e-07
3.2856e-11
-4.93222e-05
1.12992e-07
2.53541e-11
-4.92861e-05
1.18304e-07
1.57838e-11
-4.92916e-05
1.14764e-07
-2.52881e-12
-4.93811e-05
7.33626e-08
-3.73554e-11
-4.96318e-05
-6.73213e-08
-4.62937e-11
-5.01642e-05
-4.43192e-07
3.70372e-11
-5.11344e-05
-1.33348e-06
9.89151e-11
-5.26364e-05
-3.31794e-06
-1.27125e-10
-5.43856e-05
-7.54881e-06
2.36395e-09
-1.61718e-05
8.63833e-09
-5.48363e-05
-4.4289e-05
1.13695e-05
-9.88761e-09
-4.05752e-05
3.96025e-06
3.7429e-09
-3.83089e-05
1.49708e-06
4.06398e-09
-3.70333e-05
6.05043e-07
1.55683e-09
-3.63289e-05
2.62279e-07
7.62965e-10
-3.59359e-05
1.25496e-07
4.43372e-10
-3.57089e-05
6.84807e-08
2.40944e-10
-3.55686e-05
4.44857e-08
1.42155e-10
-3.54716e-05
3.60585e-08
1.02882e-10
-3.53941e-05
3.64243e-08
9.15138e-11
-3.53239e-05
4.27692e-08
9.33962e-11
-3.52593e-05
5.35406e-08
9.68078e-11
-3.52112e-05
6.66053e-08
7.95032e-11
-3.52146e-05
7.67428e-08
-1.20146e-12
-3.53485e-05
6.67371e-08
-1.58965e-10
-3.57647e-05
-2.6498e-08
-4.1071e-10
-3.67736e-05
-3.23395e-07
-1.25551e-09
-3.88589e-05
-1.22793e-06
-4.64832e-09
-4.25591e-05
-3.84342e-06
-5.25131e-09
-1.16935e-05
1.08141e-08
-4.70482e-05
-2.12176e-05
-4.84545e-08
-1.7251e-05
-6.38792e-09
-1.57539e-05
-3.28028e-11
-1.51477e-05
-1.13786e-09
-1.48847e-05
-7.13338e-10
-1.47589e-05
-2.96776e-10
-1.46903e-05
-1.47906e-10
-1.46457e-05
-8.51229e-11
-1.46096e-05
-5.29109e-11
-1.45731e-05
-3.83079e-11
-1.45303e-05
-3.20927e-11
-1.44768e-05
-2.50361e-11
-1.44102e-05
-3.58781e-12
-1.43335e-05
4.07135e-11
-1.42668e-05
1.18825e-10
-1.42938e-05
4.71541e-10
-1.4618e-05
8.41093e-10
-1.58449e-05
-1.05003e-09
-1.96926e-05
4.29335e-09
5.46897e-08
-3.14408e-05
-1.28832e-05
8.69082e-07
6.68151e-14
-1.35182e-05
6.3588e-07
1.09319e-13
-1.3958e-05
4.40341e-07
1.94505e-13
-1.42492e-05
2.9149e-07
2.11008e-13
-1.44356e-05
1.86638e-07
2.00585e-13
-1.4553e-05
1.17515e-07
1.3442e-13
-1.46278e-05
7.47811e-08
3.96988e-14
-1.46781e-05
5.03678e-08
-5.01376e-14
-1.47162e-05
3.81252e-08
-8.38498e-14
-1.47497e-05
3.35548e-08
-9.38592e-14
-1.47828e-05
3.31241e-08
-1.41152e-13
-1.48162e-05
3.34048e-08
-1.80037e-13
-1.48462e-05
3.01276e-08
-8.99892e-14
-1.48635e-05
1.72767e-08
-2.18639e-15
-1.48486e-05
-1.48672e-08
5.48073e-14
-1.47715e-05
-7.71137e-08
1.27917e-13
-1.45873e-05
-1.84228e-07
3.00733e-13
-1.42391e-05
-3.4859e-07
5.47722e-13
-1.36646e-05
-5.75079e-07
8.56835e-13
-8.52785e-07
1.26073e-12
-1.28129e-05
-3.10951e-05
2.91883e-06
2.27583e-13
-3.26102e-05
2.14988e-06
2.55029e-13
-3.36744e-05
1.50377e-06
2.87204e-13
-3.43925e-05
1.00888e-06
2.21942e-13
-3.48627e-05
6.56379e-07
2.43556e-13
-3.51654e-05
4.19888e-07
2.14155e-13
-3.53604e-05
2.69607e-07
9.92894e-14
-3.54897e-05
1.79492e-07
-2.16834e-14
-3.5581e-05
1.2927e-07
-7.55449e-14
-3.56511e-05
1.03646e-07
-1.05218e-13
-3.57083e-05
9.02289e-08
-1.38012e-13
-3.57518e-05
7.69189e-08
-1.03416e-13
-3.57707e-05
4.90116e-08
-2.64229e-14
-3.57396e-05
-1.37355e-08
-2.57453e-15
-3.56145e-05
-1.39832e-07
4.35185e-15
-3.53253e-05
-3.66024e-07
7.34752e-14
-3.47744e-05
-7.3452e-07
2.46216e-13
-3.38402e-05
-1.28195e-06
4.82936e-13
-3.23934e-05
-2.0207e-06
8.09618e-13
-2.91426e-06
1.20561e-12
-3.03305e-05
-4.37311e-05
5.69215e-06
4.30064e-13
-4.57363e-05
4.1547e-06
3.81244e-13
-4.71163e-05
2.88346e-06
3.61636e-13
-4.80314e-05
1.92379e-06
3.2847e-13
-4.86229e-05
1.24765e-06
2.868e-13
-4.89999e-05
7.96727e-07
1.96803e-13
-4.92404e-05
5.09972e-07
1.23345e-13
-4.93971e-05
3.36065e-07
2.47713e-14
-4.95038e-05
2.35946e-07
-3.73962e-14
-4.95807e-05
1.80497e-07
-1.0681e-13
-4.96368e-05
1.4628e-07
-1.4156e-13
-4.96704e-05
1.10538e-07
-1.38323e-13
-4.96671e-05
4.57649e-08
-1.32358e-13
-4.95951e-05
-8.57289e-08
-1.17442e-13
-4.93977e-05
-3.37138e-07
-5.13181e-14
-4.89849e-05
-7.78632e-07
7.64855e-14
-4.82269e-05
-1.49227e-06
2.29588e-13
-4.69555e-05
-2.55312e-06
4.10536e-13
-4.49827e-05
-3.99313e-06
6.54691e-13
-5.749e-06
9.09365e-13
-4.21477e-05
-5.22427e-05
8.79967e-06
5.45951e-13
-5.43701e-05
6.28174e-06
4.45229e-13
-5.57542e-05
4.26717e-06
3.84444e-13
-5.66246e-05
2.79387e-06
3.6277e-13
-5.71613e-05
1.78411e-06
2.37157e-13
-5.74901e-05
1.12537e-06
9.95926e-14
-5.76931e-05
7.12851e-07
6.50743e-14
-5.78216e-05
4.64566e-07
-6.2053e-14
-5.79069e-05
3.21203e-07
-1.03e-13
-5.79667e-05
2.40211e-07
-6.04818e-14
-5.80087e-05
1.88309e-07
-5.49689e-14
-5.80318e-05
1.33648e-07
-5.49036e-14
-5.80235e-05
3.74502e-08
-9.40126e-14
-5.7955e-05
-1.54229e-07
-1.03262e-13
-5.77716e-05
-5.20428e-07
-3.99075e-14
-5.73801e-05
-1.16996e-06
6.45456e-14
-5.66339e-05
-2.23832e-06
1.39979e-13
-5.53236e-05
-3.8631e-06
1.91933e-13
-5.31886e-05
-6.12776e-06
3.19445e-13
-8.96504e-06
4.83457e-13
-4.99722e-05
-5.76144e-05
1.1875e-05
5.91834e-13
-5.94921e-05
8.15875e-06
4.43971e-13
-6.05678e-05
5.34234e-06
2.28358e-13
-6.11599e-05
3.3856e-06
2.15579e-13
-6.14797e-05
2.10364e-06
1.88629e-13
-6.16526e-05
1.29817e-06
1.25211e-13
-6.17485e-05
8.08553e-07
1.02128e-13
-6.18044e-05
5.2047e-07
-1.13655e-14
-6.18403e-05
3.57051e-07
-1.28828e-13
-6.18665e-05
2.66354e-07
-1.25426e-13
-6.18878e-05
2.09643e-07
-1.06641e-13
-6.19049e-05
1.50694e-07
-1.13694e-13
-6.19123e-05
4.4873e-08
-1.21409e-13
-6.18938e-05
-1.72682e-07
-1.08826e-13
-6.18122e-05
-6.01975e-07
-5.07894e-14
-6.15909e-05
-1.39113e-06
9.78334e-15
-6.10869e-05
-2.74216e-06
3.49322e-15
-6.0059e-05
-4.8906e-06
-2.71186e-14
-5.81514e-05
-8.0347e-06
1.72621e-14
-1.21772e-05
1.85493e-13
-5.49383e-05
-6.02807e-05
1.44948e-05
6.2567e-13
-6.1486e-05
9.36285e-06
4.90126e-13
-6.19352e-05
5.79092e-06
1.61008e-13
-6.20422e-05
3.4922e-06
7.10212e-14
-6.20213e-05
2.08247e-06
7.50028e-14
-6.19676e-05
1.24434e-06
3.75824e-14
-6.19163e-05
7.57198e-07
-4.59676e-15
-6.18769e-05
4.81054e-07
-4.3515e-14
-6.185e-05
3.30078e-07
-3.97463e-14
-6.18343e-05
2.50694e-07
-3.39548e-14
-6.18302e-05
2.05547e-07
-5.96381e-14
-6.18404e-05
1.60888e-07
-1.08897e-13
-6.18699e-05
7.43259e-08
-1.4898e-13
-6.19229e-05
-1.19615e-07
-1.40468e-13
-6.19952e-05
-5.29681e-07
-1.19387e-13
-6.20531e-05
-1.3332e-06
-1.70586e-13
-6.19934e-05
-2.80172e-06
-3.01339e-13
-6.15769e-05
-5.3067e-06
-4.06022e-13
-6.0346e-05
-9.26449e-06
-3.92369e-13
-1.493e-05
-1.90487e-13
-5.75913e-05
-5.99795e-05
1.60586e-05
3.74317e-13
-6.00009e-05
9.38169e-06
2.01558e-13
-5.95267e-05
5.31568e-06
1.19818e-13
-5.90132e-05
2.97817e-06
9.48002e-14
-5.86047e-05
1.67373e-06
8.80265e-14
-5.83169e-05
9.56385e-07
4.4851e-14
-5.81246e-05
5.64907e-07
-2.02682e-14
-5.79981e-05
3.54603e-07
-3.50155e-14
-5.79143e-05
2.46244e-07
-1.98798e-14
-5.78586e-05
1.9507e-07
-1.90545e-14
-5.78257e-05
1.7258e-07
-6.31257e-14
-5.78191e-05
1.54342e-07
-1.52386e-13
-5.78537e-05
1.08897e-07
-2.09283e-13
-5.79567e-05
-1.66152e-08
-2.1112e-13
-5.81675e-05
-3.18871e-07
-2.52696e-13
-5.8524e-05
-9.76616e-07
-4.36905e-13
-5.90209e-05
-2.30463e-06
-6.36937e-13
-5.95072e-05
-4.81982e-06
-6.85946e-13
-5.94872e-05
-9.28209e-06
-5.79799e-13
-1.65792e-05
-4.03891e-13
-5.78328e-05
-5.55208e-05
1.55974e-05
3.22887e-13
-5.38012e-05
7.65933e-06
1.25412e-13
-5.2253e-05
3.76709e-06
4.50716e-14
-5.11577e-05
1.88264e-06
1.9964e-14
-5.04518e-05
9.67855e-07
8.65121e-15
-5.00146e-05
5.19285e-07
1.28789e-14
-4.97456e-05
2.95908e-07
3.00595e-14
-4.95759e-05
1.84988e-07
4.50086e-14
-4.94628e-05
1.33193e-07
4.23149e-14
-4.93818e-05
1.14113e-07
-7.94909e-16
-4.93222e-05
1.12979e-07
-4.89908e-14
-4.92861e-05
1.1825e-07
-6.17167e-14
-4.92918e-05
1.14618e-07
-7.80652e-14
-4.93815e-05
7.30608e-08
-1.29425e-13
-4.96325e-05
-6.79511e-08
-3.04628e-13
-5.01653e-05
-4.43756e-07
-5.90143e-13
-5.11352e-05
-1.33468e-06
-7.72597e-13
-5.26352e-05
-3.31994e-06
-7.97043e-13
-5.4381e-05
-7.53387e-06
-7.93733e-13
-1.61065e-05
-7.38356e-13
-5.4845e-05
-4.42796e-05
1.13125e-05
2.20067e-13
-4.05814e-05
3.96487e-06
-1.409e-14
-3.83146e-05
1.50439e-06
-1.7261e-13
-3.70374e-05
6.06961e-07
-1.79435e-13
-3.63313e-05
2.62519e-07
-4.81233e-14
-3.59371e-05
1.2552e-07
3.12062e-14
-3.57094e-05
6.84923e-08
8.45127e-14
-3.55688e-05
4.45117e-08
6.19789e-14
-3.54716e-05
3.61104e-08
-1.20167e-14
-3.53939e-05
3.65097e-08
-7.58163e-14
-3.53238e-05
4.29018e-08
-8.37191e-14
-3.52592e-05
5.37464e-08
-9.30933e-14
-3.52114e-05
6.69195e-08
-1.39233e-13
-3.52154e-05
7.70263e-08
-2.39529e-13
-3.53503e-05
6.68612e-08
-4.62224e-13
-3.57691e-05
-2.53969e-08
-6.93069e-13
-3.67811e-05
-3.23962e-07
-8.13463e-13
-3.88712e-05
-1.23446e-06
-9.61592e-13
-4.25606e-05
-3.84971e-06
-1.16448e-12
-1.16424e-05
-1.30326e-12
-4.70139e-05
-2.12139e-05
-3.84984e-14
-1.72554e-05
-2.12276e-13
-1.57511e-05
-2.21654e-13
-1.51453e-05
-1.2482e-13
-1.48834e-05
-3.77793e-14
-1.47582e-05
-8.37935e-15
-1.46899e-05
4.47491e-15
-1.46455e-05
3.38189e-15
-1.46094e-05
-1.12346e-14
-1.45729e-05
-2.31527e-14
-1.45301e-05
-4.78304e-14
-1.44763e-05
-7.06193e-14
-1.44094e-05
-9.80081e-14
-1.43323e-05
-1.89394e-13
-1.42654e-05
-4.38044e-13
-1.42903e-05
-7.01245e-13
-1.46134e-05
-9.14169e-13
-1.58489e-05
-1.22393e-12
-1.96943e-05
-1.75019e-12
-2.48081e-12
-3.12821e-05
-1.28831e-05
8.69082e-07
-1.24114e-09
-1.35182e-05
6.3588e-07
-8.40824e-10
-1.3958e-05
4.40341e-07
-5.36794e-10
-1.42492e-05
2.9149e-07
-3.23644e-10
-1.44356e-05
1.86638e-07
-1.85917e-10
-1.4553e-05
1.17515e-07
-1.03392e-10
-1.46277e-05
7.47812e-08
-5.76932e-11
-1.46781e-05
5.03677e-08
-3.53149e-11
-1.47162e-05
3.81251e-08
-2.74606e-11
-1.47497e-05
3.35546e-08
-2.84422e-11
-1.47828e-05
3.31238e-08
-3.45005e-11
-1.48162e-05
3.34046e-08
-4.23549e-11
-1.48462e-05
3.01273e-08
-4.77765e-11
-1.48635e-05
1.72764e-08
-4.68566e-11
-1.48486e-05
-1.48675e-08
-4.04399e-11
-1.47714e-05
-7.71138e-08
6.8906e-12
-1.45873e-05
-1.84228e-07
1.14486e-10
-1.4239e-05
-3.48589e-07
3.08029e-10
-1.36646e-05
-5.75078e-07
6.17389e-10
-8.52783e-07
1.06459e-09
-1.28129e-05
-3.10951e-05
2.91883e-06
1.26806e-09
-3.26101e-05
2.14988e-06
1.07187e-09
-3.36744e-05
1.50377e-06
8.45712e-10
-3.43924e-05
1.00888e-06
6.35726e-10
-3.48626e-05
6.56379e-07
4.58242e-10
-3.51653e-05
4.19888e-07
3.20318e-10
-3.53604e-05
2.69607e-07
2.21038e-10
-3.54897e-05