/*--------------------------------*- C++ -*----------------------------------*\
| =========                 |                                                 |
| \\      /  F ield         | OpenFOAM: The Open Source CFD Toolbox           |
|  \\    /   O peration     | Version:  2.4.0                                 |
|   \\  /    A nd           | Web:      www.OpenFOAM.org                      |
|    \\/     M anipulation  |                                                 |
\*---------------------------------------------------------------------------*/
FoamFile
{
    version     2.0;
    format      ascii;
    class       volVectorField;
    location    "0.4";
    object      U;
}
// * * * * * * * * * * * * * * * * * * * * * * * * * * * * * * * * * * * * * //

dimensions      [0 1 -1 0 0 0 0];

internalField   nonuniform List<vector> 
4800
(
(8.84889e-05 -9.07076e-05 3.32156e-08)
(-0.000403929 0.000273703 0.000135255)
(-0.00193344 0.000581758 0.000217742)
(-0.00404828 0.00075518 0.000220208)
(-0.0064924 0.000835995 0.000121053)
(-0.00908174 0.00085849 -8.80176e-05)
(-0.0116787 0.000840325 -0.00040744)
(-0.0141699 0.000787042 -0.000833954)
(-0.0164485 0.000699532 -0.00136072)
(-0.0184156 0.000582346 -0.00197609)
(-0.000285393 0.000406731 -0.000135641)
(-0.0021359 0.00210601 4.99086e-07)
(-0.00598684 0.00345466 5.02171e-05)
(-0.0109948 0.00428875 1.44351e-05)
(-0.0166884 0.00472335 -0.000114579)
(-0.0227192 0.00486591 -0.000345269)
(-0.0287869 0.0047783 -0.000679504)
(-0.0346219 0.00448472 -0.00111543)
(-0.0399671 0.00399808 -0.00164779)
(-0.0445889 0.00335262 -0.00226723)
(-0.000617247 0.0019801 -0.00021773)
(-0.00357779 0.00598953 -4.707e-05)
(-0.00917623 0.00899513 2.15604e-06)
(-0.0162298 0.0109218 -4.41923e-05)
(-0.0241535 0.0119759 -0.000181345)
(-0.0325305 0.0123462 -0.000415606)
(-0.0409735 0.0121419 -0.000748481)
(-0.0491091 0.0114053 -0.00117893)
(-0.0565595 0.0101674 -0.00170346)
(-0.0629642 0.00851911 -0.00231503)
(-0.000819094 0.00420438 -0.000212001)
(-0.00452728 0.0111356 -3.02223e-07)
(-0.0113412 0.0161045 5.88054e-05)
(-0.0197972 0.0193059 1.24797e-05)
(-0.0292407 0.0210987 -0.000125571)
(-0.0392316 0.0217606 -0.000359832)
(-0.0493398 0.021431 -0.000691635)
(-0.0591161 0.0201435 -0.00112125)
(-0.0680643 0.0179236 -0.00164767)
(-0.0756642 0.0149209 -0.00226722)
(-0.0009222 0.00682373 -8.8814e-05)
(-0.00505803 0.0170799 0.000156726)
(-0.0126053 0.0242145 0.000224831)
(-0.0219291 0.0288138 0.000181997)
(-0.0323457 0.031445 4.69886e-05)
(-0.0434203 0.0324809 -0.000184106)
(-0.0547096 0.0320639 -0.000513659)
(-0.0657048 0.0301705 -0.000944636)
(-0.075778 0.0267656 -0.00148036)
(-0.0841786 0.022026 -0.00212391)
(-0.000954426 0.00963297 0.000165908)
(-0.00525185 0.0234466 0.000437956)
(-0.0131055 0.0328875 0.000512436)
(-0.0228267 0.0389955 0.00047546)
(-0.0337438 0.0425822 0.000347656)
(-0.0454542 0.0441175 0.000124441)
(-0.0575293 0.0437125 -0.000199163)
(-0.0694233 0.041217 -0.0006309)
(-0.0803728 0.0364357 -0.00118148)
(-0.0892897 0.0294753 -0.00186918)
(-0.00093138 0.0124633 0.000554829)
(-0.00516054 0.0298913 0.000847195)
(-0.0129284 0.0416993 0.000925114)
(-0.0225938 0.0493988 0.000896431)
(-0.0335314 0.0540625 0.000781382)
(-0.0453924 0.0562561 0.000573921)
(-0.057794 0.0560258 0.000264991)
(-0.0701977 0.053009 -0.000160325)
(-0.0817508 0.0466933 -0.000724006)
(-0.0909133 0.0368805 -0.0014784)
(-0.000859593 0.0151685 0.00107314)
(-0.00480954 0.0360948 0.0013807)
(-0.0121136 0.0502312 0.00145959)
(-0.0212525 0.0595426 0.00144249)
(-0.0316597 0.0653637 0.00134797)
(-0.043042 0.0683589 0.00116866)
(-0.0550811 0.0684932 0.000890792)
(-0.0673075 0.0651162 0.000490533)
(-0.0789304 0.0571956 -6.74557e-05)
(-0.0879183 0.0437337 -0.000906388)
(-0.000743097 0.0176126 0.00170908)
(-0.00422077 0.0417522 0.00202787)
(-0.0107022 0.0580565 0.00210602)
(-0.0188297 0.0688879 0.00210455)
(-0.0280739 0.0758266 0.00204009)
(-0.0381527 0.0796487 0.00190535)
(-0.048774 0.0802686 0.0016825)
(-0.0595489 0.0767597 0.00133751)
(-0.0700188 0.0674679 0.000824212)
(-0.0779428 0.0498871 -0.000118674)
(-0.000591168 0.0196749 0.00244364)
(-0.00344348 0.0465884 0.00277141)
(-0.00880654 0.0647626 0.0028478)
(-0.0154905 0.0768567 0.00286601)
(-0.0229432 0.0846427 0.00284196)
(-0.0307805 0.0889948 0.00277302)
(-0.0385584 0.0898175 0.00264507)
(-0.0457029 0.0860045 0.00242365)
(-0.0520975 0.0754711 0.00208931)
(-0.0566613 0.054482 0.00121533)
(9.2528e-05 -9.46221e-05 2.35352e-08)
(-0.000398817 0.000268396 1.1317e-06)
(-0.00193165 0.000571456 1.43045e-06)
(-0.00404711 0.000741946 1.71091e-06)
(-0.00649182 0.000821506 1.86246e-06)
(-0.00908167 0.000843562 1.90199e-06)
(-0.011679 0.000825658 1.87664e-06)
(-0.0141707 0.000773284 1.78231e-06)
(-0.0164501 0.00068724 1.60116e-06)
(-0.0184178 0.000571853 1.31879e-06)
(-0.000279776 0.000401499 -1.04849e-06)
(-0.00213325 0.00210338 8.75906e-08)
(-0.00599158 0.00344669 -9.81755e-07)
(-0.0109971 0.00427825 -1.33953e-06)
(-0.0166892 0.00471232 -1.45647e-06)
(-0.0227193 0.0048548 -1.52996e-06)
(-0.0287863 0.00476751 -1.50403e-06)
(-0.0346208 0.00447473 -1.39383e-06)
(-0.0399662 0.0039893 -1.23561e-06)
(-0.0445885 0.00334502 -1.08775e-06)
(-0.000606575 0.00197777 -1.42147e-06)
(-0.00357003 0.00599369 1.0962e-06)
(-0.00918033 0.00899821 9.68472e-10)
(-0.0162307 0.0109252 -7.56126e-08)
(-0.0241532 0.0119804 5.76703e-08)
(-0.0325302 0.0123513 7.01991e-08)
(-0.0409731 0.0121471 8.22801e-08)
(-0.0491086 0.0114106 1.07005e-07)
(-0.0565598 0.0101726 1.26797e-07)
(-0.0629659 0.00852346 6.28907e-08)
(-0.000805355 0.00420275 -1.79268e-06)
(-0.00451701 0.0111377 1.36612e-06)
(-0.0113459 0.0161048 3.91606e-09)
(-0.0197978 0.0193056 -7.01925e-08)
(-0.0292398 0.0210987 1.30809e-07)
(-0.0392309 0.0217609 1.70918e-07)
(-0.049339 0.0214315 2.00386e-07)
(-0.0591153 0.0201446 2.4618e-07)
(-0.0680646 0.0179258 3.19287e-07)
(-0.0756676 0.014923 2.5909e-07)
(-0.000906951 0.00682295 -1.9788e-06)
(-0.00504722 0.0170807 1.56873e-06)
(-0.0126114 0.0242138 -1.47042e-07)
(-0.0219302 0.0288123 -3.07083e-07)
(-0.0323447 0.0314432 -1.09839e-07)
(-0.0434194 0.0324791 -6.84317e-08)
(-0.0547083 0.0320622 -2.24134e-08)
(-0.0657026 0.0301694 6.78628e-08)
(-0.0757773 0.0267671 3.08421e-07)
(-0.0841844 0.0220286 3.90549e-07)
(-0.000938635 0.00963295 -2.02863e-06)
(-0.00524098 0.0234468 1.67093e-06)
(-0.0131124 0.032887 -1.70397e-07)
(-0.0228283 0.0389945 -3.7139e-07)
(-0.0337431 0.0425807 -1.88408e-07)
(-0.0454535 0.0441156 -1.57964e-07)
(-0.0575277 0.0437103 -1.25733e-07)
(-0.0694192 0.0412152 -5.16968e-08)
(-0.0803696 0.0364387 4.41726e-07)
(-0.0893008 0.0294827 8.8806e-07)
(-0.000915879 0.0124639 -1.98599e-06)
(-0.00515007 0.0298908 1.65748e-06)
(-0.0129356 0.0416989 -1.79793e-07)
(-0.0225959 0.0493981 -4.06831e-07)
(-0.0335312 0.0540611 -2.59988e-07)
(-0.0453921 0.056254 -2.55447e-07)
(-0.0577925 0.0560228 -2.73633e-07)
(-0.0701902 0.0530054 -3.4983e-07)
(-0.0817406 0.0466998 5.60441e-07)
(-0.0909352 0.0369049 2.08916e-06)
(-0.000845141 0.0151699 -1.8459e-06)
(-0.00479993 0.036094 1.55468e-06)
(-0.0121208 0.0502312 -1.78427e-07)
(-0.021255 0.0595424 -4.19433e-07)
(-0.0316603 0.0653625 -3.22063e-07)
(-0.0430427 0.0683562 -3.25297e-07)
(-0.0550808 0.0684871 -3.43975e-07)
(-0.0672933 0.0651028 -6.43026e-07)
(-0.0788977 0.0571894 1.45064e-06)
(-0.0879529 0.0437706 7.47386e-06)
(-0.000730338 0.0176148 -1.5974e-06)
(-0.00421239 0.0417515 1.39961e-06)
(-0.0107089 0.0580572 -1.45231e-07)
(-0.0188329 0.0688891 -3.98695e-07)
(-0.0280761 0.0758273 -4.07918e-07)
(-0.0381571 0.0796479 -5.31927e-07)
(-0.0487826 0.0802621 -8.05886e-07)
(-0.0595393 0.0767318 -2.45255e-06)
(-0.0699519 0.0674109 -4.55565e-07)
(-0.0779792 0.0498563 1.66486e-05)
(-0.000580514 0.0196776 -1.2422e-06)
(-0.00343635 0.0465881 1.2386e-06)
(-0.00881193 0.0647646 -3.37492e-08)
(-0.0154931 0.0768609 -2.51219e-07)
(-0.0229458 0.0846498 -3.51183e-07)
(-0.030788 0.089008 -6.97074e-07)
(-0.0385836 0.0898433 -1.64701e-06)
(-0.0457337 0.0860445 -7.20136e-06)
(-0.0520464 0.0755119 -1.56137e-05)
(-0.0567184 0.0545522 2.68206e-06)
(9.25253e-05 -9.46229e-05 -1.25532e-08)
(-0.000398819 0.000268396 -1.12816e-06)
(-0.00193165 0.000571456 -1.42756e-06)
(-0.00404711 0.000741945 -1.70861e-06)
(-0.00649182 0.000821505 -1.86089e-06)
(-0.00908166 0.000843561 -1.90079e-06)
(-0.011679 0.000825657 -1.8756e-06)
(-0.0141707 0.000773283 -1.78147e-06)
(-0.0164501 0.000687239 -1.60057e-06)
(-0.0184178 0.000571853 -1.31842e-06)
(-0.000279777 0.000401497 1.05599e-06)
(-0.00213325 0.00210337 -8.25059e-08)
(-0.00599157 0.00344669 9.85731e-07)
(-0.0109971 0.00427825 1.34253e-06)
(-0.0166892 0.00471232 1.45879e-06)
(-0.0227193 0.00485479 1.53189e-06)
(-0.0287862 0.0047675 1.5057e-06)
(-0.0346208 0.00447473 1.39519e-06)
(-0.0399662 0.00398929 1.2366e-06)
(-0.0445885 0.00334502 1.0885e-06)
(-0.000606574 0.00197777 1.42742e-06)
(-0.00357002 0.00599368 -1.09152e-06)
(-0.00918032 0.00899819 2.89916e-09)
(-0.0162307 0.0109252 7.88057e-08)
(-0.0241532 0.0119804 -5.49851e-08)
(-0.0325302 0.0123512 -6.78878e-08)
(-0.040973 0.0121471 -8.02799e-08)
(-0.0491085 0.0114106 -1.05338e-07)
(-0.0565597 0.0101726 -1.25433e-07)
(-0.0629658 0.00852345 -6.17284e-08)
(-0.000805353 0.00420274 1.79783e-06)
(-0.00451701 0.0111376 -1.36165e-06)
(-0.0113459 0.0161048 -1.39634e-10)
(-0.0197978 0.0193055 7.3456e-08)
(-0.0292398 0.0210986 -1.27937e-07)
(-0.0392309 0.0217609 -1.68392e-07)
(-0.049339 0.0214315 -1.98159e-07)
(-0.0591152 0.0201445 -2.44243e-07)
(-0.0680645 0.0179258 -3.17576e-07)
(-0.0756676 0.014923 -2.57585e-07)
(-0.000906949 0.00682294 1.98379e-06)
(-0.00504721 0.0170807 -1.56441e-06)
(-0.0126113 0.0242138 1.50739e-07)
(-0.0219302 0.0288122 3.10395e-07)
(-0.0323447 0.0314432 1.12841e-07)
(-0.0434194 0.0324791 7.11711e-08)
(-0.0547082 0.0320621 2.48985e-08)
(-0.0657026 0.0301694 -6.56581e-08)
(-0.0757772 0.0267671 -3.06455e-07)
(-0.0841844 0.0220285 -3.88836e-07)
(-0.000938632 0.00963294 2.03339e-06)
(-0.00524097 0.0234468 -1.66677e-06)
(-0.0131124 0.032887 1.74051e-07)
(-0.0228283 0.0389944 3.74789e-07)
(-0.033743 0.0425807 1.91533e-07)
(-0.0454534 0.0441156 1.60835e-07)
(-0.0575276 0.0437103 1.28343e-07)
(-0.0694192 0.0412151 5.40601e-08)
(-0.0803695 0.0364387 -4.39679e-07)
(-0.0893007 0.0294827 -8.86377e-07)
(-0.000915877 0.0124639 1.99042e-06)
(-0.00515006 0.0298908 -1.65351e-06)
(-0.0129356 0.0416989 1.83396e-07)
(-0.0225958 0.049398 4.10246e-07)
(-0.0335312 0.0540611 2.63163e-07)
(-0.0453921 0.056254 2.58364e-07)
(-0.0577925 0.0560228 2.76244e-07)
(-0.0701902 0.0530054 3.52104e-07)
(-0.0817406 0.0466998 -5.58511e-07)
(-0.0909352 0.0369049 -2.08762e-06)
(-0.000845139 0.0151699 1.85006e-06)
(-0.00479993 0.0360939 -1.55086e-06)
(-0.0121208 0.0502311 1.81992e-07)
(-0.021255 0.0595423 4.22839e-07)
(-0.0316603 0.0653624 3.2523e-07)
(-0.0430427 0.0683561 3.28102e-07)
(-0.0550807 0.0684871 3.46412e-07)
(-0.0672932 0.0651028 6.45081e-07)
(-0.0788977 0.0571894 -1.44893e-06)
(-0.0879529 0.0437706 -7.47259e-06)
(-0.000730336 0.0176147 1.60128e-06)
(-0.00421239 0.0417515 -1.39591e-06)
(-0.0107089 0.0580572 1.48706e-07)
(-0.0188329 0.0688891 4.01975e-07)
(-0.0280761 0.0758273 4.10931e-07)
(-0.0381571 0.0796478 5.34576e-07)
(-0.0487826 0.0802621 8.08115e-07)
(-0.0595393 0.0767317 2.45439e-06)
(-0.0699519 0.0674109 4.57091e-07)
(-0.0779792 0.0498563 -1.66475e-05)
(-0.000580513 0.0196776 1.24574e-06)
(-0.00343634 0.046588 -1.23514e-06)
(-0.00881192 0.0647646 3.70253e-08)
(-0.0154931 0.0768608 2.54305e-07)
(-0.0229458 0.0846497 3.53967e-07)
(-0.030788 0.089008 6.99509e-07)
(-0.0385836 0.0898433 1.64907e-06)
(-0.0457337 0.0860445 7.20316e-06)
(-0.0520464 0.0755119 1.56153e-05)
(-0.0567184 0.0545522 -2.68072e-06)
(8.84792e-05 -9.0712e-05 -4.47608e-08)
(-0.00040394 0.000273704 -0.000135259)
(-0.00193344 0.000581757 -0.000217745)
(-0.00404827 0.000755178 -0.00022021)
(-0.00649238 0.000835993 -0.000121055)
(-0.00908171 0.000858487 8.80163e-05)
(-0.0116786 0.000840323 0.000407439)
(-0.0141699 0.00078704 0.000833953)
(-0.0164485 0.00069953 0.00136072)
(-0.0184156 0.000582344 0.00197609)
(-0.000285394 0.000406724 0.000135633)
(-0.0021359 0.00210601 -5.04462e-07)
(-0.00598682 0.00345466 -5.02213e-05)
(-0.0109947 0.00428874 -1.44383e-05)
(-0.0166883 0.00472334 0.000114576)
(-0.0227192 0.0048659 0.000345267)
(-0.0287868 0.00477829 0.000679503)
(-0.0346218 0.00448471 0.00111542)
(-0.039967 0.00399807 0.00164779)
(-0.0445888 0.00335262 0.00226723)
(-0.000617246 0.0019801 0.000217724)
(-0.00357778 0.00598952 4.70651e-05)
(-0.0091762 0.00899511 -2.16012e-06)
(-0.0162297 0.0109218 4.4189e-05)
(-0.0241534 0.0119759 0.000181342)
(-0.0325304 0.0123462 0.000415604)
(-0.0409734 0.0121418 0.000748479)
(-0.0491089 0.0114053 0.00117893)
(-0.0565594 0.0101673 0.00170346)
(-0.0629641 0.0085191 0.00231503)
(-0.00081909 0.00420437 0.000211996)
(-0.00452726 0.0111356 2.97492e-07)
(-0.0113412 0.0161045 -5.88093e-05)
(-0.0197971 0.0193058 -1.24832e-05)
(-0.0292407 0.0210986 0.000125568)
(-0.0392315 0.0217606 0.00035983)
(-0.0493397 0.0214309 0.000691633)
(-0.059116 0.0201434 0.00112125)
(-0.0680641 0.0179235 0.00164767)
(-0.075664 0.0149209 0.00226722)
(-0.000922195 0.00682372 8.88087e-05)
(-0.00505801 0.0170798 -0.000156731)
(-0.0126052 0.0242145 -0.000224835)
(-0.0219291 0.0288138 -0.000182)
(-0.0323456 0.0314449 -4.69917e-05)
(-0.0434202 0.0324809 0.000184103)
(-0.0547095 0.0320638 0.000513656)
(-0.0657046 0.0301704 0.000944634)
(-0.0757779 0.0267655 0.00148035)
(-0.0841784 0.022026 0.0021239)
(-0.00095442 0.00963295 -0.000165913)
(-0.00525183 0.0234466 -0.000437961)
(-0.0131054 0.0328874 -0.000512439)
(-0.0228266 0.0389954 -0.000475463)
(-0.0337437 0.0425821 -0.000347659)
(-0.0454541 0.0441174 -0.000124444)
(-0.0575292 0.0437125 0.00019916)
(-0.0694232 0.0412169 0.000630897)
(-0.0803727 0.0364356 0.00118147)
(-0.0892896 0.0294753 0.00186918)
(-0.000931375 0.0124633 -0.000554834)
(-0.00516052 0.0298912 -0.000847199)
(-0.0129283 0.0416992 -0.000925117)
(-0.0225937 0.0493987 -0.000896435)
(-0.0335313 0.0540624 -0.000781386)
(-0.0453923 0.056256 -0.000573924)
(-0.0577938 0.0560258 -0.000264994)
(-0.0701976 0.0530089 0.000160323)
(-0.0817507 0.0466933 0.000724004)
(-0.0909132 0.0368805 0.00147839)
(-0.000859587 0.0151685 -0.00107314)
(-0.00480952 0.0360947 -0.00138071)
(-0.0121136 0.0502311 -0.00145959)
(-0.0212524 0.0595425 -0.00144249)
(-0.0316597 0.0653635 -0.00134797)
(-0.0430419 0.0683588 -0.00116866)
(-0.0550811 0.0684931 -0.000890795)
(-0.0673074 0.0651162 -0.000490536)
(-0.0789303 0.0571955 6.74539e-05)
(-0.0879182 0.0437337 0.000906386)
(-0.000743093 0.0176126 -0.00170908)
(-0.00422076 0.0417521 -0.00202788)
(-0.0107022 0.0580564 -0.00210602)
(-0.0188297 0.0688877 -0.00210455)
(-0.0280739 0.0758265 -0.00204009)
(-0.0381526 0.0796486 -0.00190535)
(-0.0487739 0.0802686 -0.0016825)
(-0.0595489 0.0767596 -0.00133751)
(-0.0700188 0.0674679 -0.000824213)
(-0.0779428 0.0498871 0.000118673)
(-0.000591164 0.0196749 -0.00244364)
(-0.00344347 0.0465883 -0.00277141)
(-0.00880652 0.0647625 -0.0028478)
(-0.0154905 0.0768565 -0.00286601)
(-0.0229432 0.0846426 -0.00284196)
(-0.0307805 0.0889947 -0.00277303)
(-0.0385584 0.0898174 -0.00264507)
(-0.0457029 0.0860045 -0.00242365)
(-0.0520975 0.0754711 -0.00208931)
(-0.0566614 0.0544821 -0.00121533)
(-0.0200021 0.000449919 -0.00266303)
(-0.0211959 0.000323917 -0.00340125)
(-0.0220412 0.000219253 -0.00417257)
(-0.0226103 0.0001409 -0.00496326)
(-0.0229787 8.7062e-05 -0.00576414)
(-0.0232111 5.28312e-05 -0.00656978)
(-0.023357 3.28329e-05 -0.00737741)
(-0.0234518 2.25694e-05 -0.00818597)
(-0.0235191 1.87591e-05 -0.00899544)
(-0.0235744 1.91416e-05 -0.0098065)
(-0.023627 2.20588e-05 -0.0106203)
(-0.0236808 2.59364e-05 -0.0114386)
(-0.0237341 2.87058e-05 -0.0122631)
(-0.0237771 2.72284e-05 -0.0130964)
(-0.0237876 1.68068e-05 -0.0139405)
(-0.023727 -1.03587e-05 -0.0147966)
(-0.0235353 -6.2546e-05 -0.0156642)
(-0.0231295 -0.000147885 -0.0165391)
(-0.02241 -0.000270387 -0.0174112)
(-0.02128 -0.000424671 -0.0182634)
(-0.0483267 0.00262822 -0.00295947)
(-0.0511557 0.00193563 -0.00370653)
(-0.0531807 0.00135138 -0.00449233)
(-0.0545666 0.000903128 -0.00530414)
(-0.0554827 0.00058429 -0.00613255)
(-0.0560744 0.000371565 -0.00697118)
(-0.0564534 0.000237974 -0.00781605)
(-0.0566999 0.000159767 -0.00866496)
(-0.056868 0.000118496 -0.00951689)
(-0.0569925 0.000100373 -0.0103717)
(-0.0570931 9.43587e-05 -0.01123)
(-0.057176 8.96934e-05 -0.0120925)
(-0.0572328 7.3141e-05 -0.0129607)
(-0.0572362 2.62012e-05 -0.0138358)
(-0.057133 -7.73563e-05 -0.0147185)
(-0.0568335 -0.000272892 -0.0156093)
(-0.0562036 -0.000599976 -0.016506)
(-0.0550644 -0.00109337 -0.0174035)
(-0.0532054 -0.00176515 -0.0182919)
(-0.050424 -0.00258171 -0.0191556)
(-0.0680679 0.00667061 -0.00300066)
(-0.0718468 0.00491336 -0.00374079)
(-0.0744921 0.00343914 -0.00451957)
(-0.0762683 0.0023109 -0.00532494)
(-0.0774251 0.00150688 -0.00614783)
(-0.0781642 0.000966248 -0.00698196)
(-0.0786336 0.000621009 -0.00782326)
(-0.0789352 0.000411939 -0.00866929)
(-0.0791358 0.000292933 -0.00951876)
(-0.0792774 0.000229088 -0.0103712)
(-0.0793824 0.000192027 -0.0112268)
(-0.0794572 0.000154047 -0.0120861)
(-0.0794903 8.16935e-05 -0.0129498)
(-0.0794467 -7.07625e-05 -0.013819)
(-0.0792592 -0.000367069 -0.0146942)
(-0.0788134 -0.000889698 -0.0155755)
(-0.0779349 -0.00173286 -0.0164612)
(-0.0763821 -0.00297869 -0.0173473)
(-0.0738574 -0.0046553 -0.0182254)
(-0.0700549 -0.00668049 -0.0190822)
(-0.0815195 0.0115382 -0.00296724)
(-0.0856277 0.00837432 -0.00372009)
(-0.0883401 0.0057803 -0.00450811)
(-0.0900629 0.00383852 -0.00531959)
(-0.0911299 0.00248027 -0.00614598)
(-0.0917832 0.0015793 -0.0069817)
(-0.0921838 0.00100796 -0.00782326)
(-0.0924338 0.000661185 -0.0086686)
(-0.0925959 0.000460122 -0.00951662)
(-0.0927072 0.00034658 -0.0103669)
(-0.0927875 0.000274057 -0.0112194)
(-0.0928422 0.000197615 -0.0120745)
(-0.0928617 6.30108e-05 -0.0129328)
(-0.0928159 -0.000204702 -0.0137952)
(-0.0926424 -0.000711298 -0.0146625)
(-0.0922287 -0.00159838 -0.0155352)
(-0.0913878 -0.00303421 -0.0164132)
(-0.0898362 -0.00517721 -0.0172948)
(-0.0871864 -0.00810275 -0.0181748)
(-0.0829819 -0.0116912 -0.0190431)
(-0.0902577 0.0166283 -0.00286385)
(-0.0940734 0.0117243 -0.00365083)
(-0.0962891 0.00786639 -0.00446401)
(-0.0975214 0.00509276 -0.00529305)
(-0.0981882 0.00322093 -0.00613069)
(-0.0985467 0.00201563 -0.00697297)
(-0.0987423 0.00126849 -0.00781785)
(-0.0988535 0.000821946 -0.00866425)
(-0.0989215 0.000564988 -0.00951167)
(-0.0989684 0.000419721 -0.0103599)
(-0.0990054 0.000326264 -0.0112091)
(-0.099037 0.000227805 -0.0120594)
(-0.0990605 5.51012e-05 -0.0129113)
(-0.0990615 -0.00029056 -0.0137656)
(-0.0990027 -0.000954681 -0.0146234)
(-0.0988019 -0.00214392 -0.0154864)
(-0.0982953 -0.00412348 -0.0163568)
(-0.0971879 -0.007176 -0.0172363)
(-0.0950018 -0.0114959 -0.0181252)
(-0.0910482 -0.0169897 -0.0190208)
(-0.095037 0.0213765 -0.00269071)
(-0.0978252 0.014369 -0.00354012)
(-0.0989327 0.0092074 -0.00439556)
(-0.0992625 0.00572141 -0.00525271)
(-0.0992773 0.00349545 -0.00610772)
(-0.0991954 0.00212763 -0.00695995)
(-0.0991041 0.00131139 -0.00780996)
(-0.0990301 0.000838373 -0.00865835)
(-0.0989773 0.000573759 -0.00950555)
(-0.0989434 0.000429467 -0.0103518)
(-0.098927 0.000341663 -0.0111974)
(-0.0989304 0.000251478 -0.0120424)
(-0.0989603 8.58637e-05 -0.0128869)
(-0.0990259 -0.000264643 -0.0137318)
(-0.0991328 -0.000973028 -0.0145781)
(-0.0992616 -0.00230639 -0.0154288)
(-0.0993228 -0.00464551 -0.0162886)
(-0.0990766 -0.00846269 -0.0171645)
(-0.0980023 -0.0142037 -0.0180649)
(-0.0950858 -0.021975 -0.0190042)
(-0.0955734 0.0250062 -0.00245711)
(-0.0963494 0.0155627 -0.00340734)
(-0.0956969 0.00928809 -0.0043212)
(-0.0948088 0.00542548 -0.00521324)
(-0.0940494 0.00314917 -0.0060875)
(-0.0934965 0.00184193 -0.00694961)
(-0.0931234 0.00110397 -0.00780418)
(-0.0928784 0.000696079 -0.00865397)
(-0.0927171 0.000478995 -0.00950055)
(-0.0926091 0.000369797 -0.0103446)
(-0.0925385 0.000313097 -0.0111864)
(-0.0925035 0.000259998 -0.0120256)
(-0.092518 0.000148283 -0.0128622)
(-0.0926155 -0.000122301 -0.0136961)
(-0.0928517 -0.000726124 -0.0145283)
(-0.0932979 -0.00196299 -0.0153621)
(-0.0940036 -0.00431954 -0.0162049)
(-0.0949069 -0.00851359 -0.0170697)
(-0.0956164 -0.015439 -0.0179769)
(-0.0947833 -0.0258065 -0.0189778)
(-0.0901733 0.0261834 -0.00218762)
(-0.0876022 0.0142771 -0.00328564)
(-0.0846853 0.0076096 -0.00426744)
(-0.0825642 0.00404609 -0.00519354)
(-0.0811675 0.0021777 -0.0060822)
(-0.0802942 0.00120431 -0.0069493)
(-0.07976 0.000696748 -0.00780488)
(-0.0794291 0.000434812 -0.00865389)
(-0.0792149 0.00030622 -0.00949865)
(-0.0790659 0.000251646 -0.01034)
(-0.0789549 0.000235714 -0.0111779)
(-0.0788745 0.000229382 -0.0120115)
(-0.0788392 0.000194536 -0.01284)
(-0.0788938 6.29732e-05 -0.0136622)
(-0.0791306 -0.000300701 -0.0144779)
(-0.0797066 -0.00116488 -0.0152898)
(-0.0808516 -0.00304032 -0.0161068)
(-0.0828387 -0.00685229 -0.016948)
(-0.0858027 -0.0141346 -0.0178461)
(-0.088451 -0.0270497 -0.0189195)
(-0.0748712 0.023156 -0.00205799)
(-0.0675221 0.00977311 -0.00330776)
(-0.0626438 0.00420782 -0.00430472)
(-0.060001 0.00187926 -0.00522871)
(-0.0585428 0.000880505 -0.00610857)
(-0.0577308 0.000442217 -0.00696674)
(-0.057272 0.000244179 -0.00781568)
(-0.056999 0.000154293 -0.00866004)
(-0.0568207 0.000117684 -0.00950132)
(-0.0566871 0.000110578 -0.0103396)
(-0.0565712 0.000121573 -0.011174)
(-0.0564615 0.00014295 -0.0120031)
(-0.0563632 0.000164094 -0.0128244)
(-0.056308 0.000161561 -0.0136351)
(-0.056378 7.73862e-05 -0.0144324)
(-0.0567423 -0.000237867 -0.0152161)
(-0.0577324 -0.00116615 -0.0159889)
(-0.0599892 -0.00358322 -0.0167685)
(-0.0647823 -0.00958023 -0.0175771)
(-0.0724468 -0.0239481 -0.0186501)
(-0.0405148 0.0147801 -0.0024253)
(-0.0300082 0.00413663 -0.00360251)
(-0.0259059 0.00121289 -0.00433974)
(-0.0245173 0.000364814 -0.00509121)
(-0.0239479 0.000110709 -0.00585662)
(-0.0236802 3.63628e-05 -0.00663228)
(-0.023543 1.62505e-05 -0.00741639)
(-0.0234614 1.25515e-05 -0.00820529)
(-0.0234014 1.46829e-05 -0.00899599)
(-0.0233459 2.02099e-05 -0.00978617)
(-0.023284 2.91698e-05 -0.0105736)
(-0.0232074 4.24545e-05 -0.0113555)
(-0.0231097 6.10688e-05 -0.0121281)
(-0.0229885 8.47447e-05 -0.0128857)
(-0.0228571 0.000107229 -0.0136187)
(-0.0227805 9.28771e-05 -0.0143124)
(-0.0229175 -0.000108266 -0.0149567)
(-0.0238016 -0.000954165 -0.0155251)
(-0.0275911 -0.00409131 -0.0159709)
(-0.0387991 -0.0156731 -0.0167261)
(-0.0200044 0.000441297 9.67049e-07)
(-0.0211977 0.000317245 6.55234e-07)
(-0.0220425 0.000214371 4.18445e-07)
(-0.0226111 0.000137478 2.52463e-07)
(-0.0229791 8.47447e-05 1.45183e-07)
(-0.0232112 5.12971e-05 8.07853e-08)
(-0.0233571 3.18222e-05 4.50184e-08)
(-0.0234517 2.18884e-05 2.74892e-08)
(-0.023519 1.82734e-05 2.12867e-08)
(-0.0235743 1.87672e-05 2.19818e-08)
(-0.0236269 2.17556e-05 2.66409e-08)
(-0.0236807 2.57085e-05 3.27294e-08)
(-0.0237339 2.86065e-05 3.69952e-08)
(-0.0237769 2.73658e-05 3.63869e-08)
(-0.0237876 1.73465e-05 3.14913e-08)
(-0.0237271 -9.08589e-06 -5.22982e-09)
(-0.0235359 -6.01209e-05 -8.87778e-08)
(-0.0231306 -0.000143829 -2.39139e-07)
(-0.0224119 -0.000264243 -4.7959e-07)
(-0.0212827 -0.00041622 -8.27317e-07)
(-0.0483263 0.00262139 -9.85797e-07)
(-0.0511547 0.00193007 -8.33223e-07)
(-0.0531794 0.00134722 -6.57318e-07)
(-0.0545652 0.000900178 -4.93991e-07)
(-0.0554815 0.000582279 -3.56011e-07)
(-0.0560733 0.000370234 -2.48873e-07)
(-0.0564526 0.000237102 -1.71787e-07)
(-0.0566993 0.000159188 -1.19733e-07)
(-0.0568675 0.000118094 -8.61549e-08)
(-0.0569922 0.000100073 -6.4458e-08)
(-0.0570927 9.41207e-05 -4.79006e-08)
(-0.0571755 8.95136e-05 -2.89386e-08)
(-0.0572321 7.30496e-05 1.1618e-09)
(-0.0572353 2.6263e-05 5.21923e-08)
(-0.0571317 -7.70162e-05 1.3008e-07)
(-0.0568317 -0.000272004 2.55238e-07)
(-0.0562016 -0.000598192 4.31142e-07)
(-0.0550623 -0.00109028 6.52629e-07)
(-0.0532039 -0.00176039 8.99046e-07)
(-0.0504234 -0.00257545 1.10877e-06)
(-0.0680696 0.00667243 -1.5076e-07)
(-0.0718471 0.00491412 -2.32562e-07)
(-0.0744915 0.00343964 -2.35252e-07)
(-0.0762674 0.00231128 -2.11352e-07)
(-0.0774241 0.00150719 -1.72265e-07)
(-0.0781633 0.000966514 -1.30962e-07)
(-0.0786329 0.000621231 -9.53177e-08)
(-0.0789346 0.000412124 -6.74053e-08)
(-0.0791354 0.000293089 -4.65457e-08)
(-0.079277 0.000229219 -3.07676e-08)
(-0.079382 0.000192125 -1.731e-08)
(-0.0794568 0.000154094 -2.81271e-09)
(-0.0794897 8.16523e-05 1.5657e-08)
(-0.079446 -7.09525e-05 3.96346e-08)
(-0.0792581 -0.000367449 7.24886e-08)
(-0.0788121 -0.000890315 1.19451e-07)
(-0.0779335 -0.00173374 1.75067e-07)
(-0.0763808 -0.0029798 2.31248e-07)
(-0.0738572 -0.00465661 2.746e-07)
(-0.0700566 -0.00668294 2.12683e-07)
(-0.081523 0.0115364 -1.83275e-07)
(-0.0856283 0.00837216 -2.90256e-07)
(-0.0883393 0.00577909 -2.67192e-07)
(-0.0900617 0.00383796 -2.28214e-07)
(-0.0911288 0.00248014 -1.76174e-07)
(-0.0917822 0.00157939 -1.26572e-07)
(-0.092183 0.00100814 -8.7569e-08)
(-0.0924332 0.000661374 -5.89535e-08)
(-0.0925954 0.000460282 -3.85794e-08)
(-0.0927068 0.000346694 -2.39535e-08)
(-0.0927871 0.000274109 -1.24464e-08)
(-0.0928417 0.000197585 -1.1026e-09)
(-0.0928612 6.28756e-05 1.24361e-08)
(-0.0928152 -0.000204948 2.98054e-08)
(-0.0926415 -0.00071163 5.72903e-08)
(-0.0922274 -0.00159871 9.98866e-08)
(-0.0913863 -0.00303433 1.54893e-07)
(-0.0898347 -0.00517671 2.23253e-07)
(-0.0871864 -0.00810092 3.18467e-07)
(-0.0829856 -0.0116894 2.53881e-07)
(-0.0902637 0.0166221 -5.12824e-07)
(-0.094073 0.0117192 -5.45638e-07)
(-0.0962869 0.00786408 -4.01789e-07)
(-0.0975194 0.0050919 -3.03337e-07)
(-0.0981866 0.00322083 -2.0769e-07)
(-0.0985455 0.00201587 -1.31888e-07)
(-0.0987415 0.00126882 -8.16998e-08)
(-0.0988528 0.000822248 -5.00367e-08)
(-0.0989211 0.000565221 -3.04528e-08)
(-0.098968 0.000419873 -1.83869e-08)
(-0.0990051 0.000326327 -1.05154e-08)
(-0.0990366 0.000227759 -4.1862e-09)
(-0.09906 5.49249e-05 3.58069e-09)
(-0.0990609 -0.000290863 1.62154e-08)
(-0.0990017 -0.000955076 4.21878e-08)
(-0.0988004 -0.00214424 9.28159e-08)
(-0.098293 -0.00412339 1.67186e-07)
(-0.0971848 -0.00717457 2.80131e-07)
(-0.0950005 -0.0114909 5.46356e-07)
(-0.0910545 -0.0169828 6.35083e-07)
(-0.0950481 0.0213631 -1.21433e-06)
(-0.0978219 0.0143601 -9.32837e-07)
(-0.0989276 0.00920466 -5.12201e-07)
(-0.0992592 0.00572091 -3.35968e-07)
(-0.0992751 0.00349582 -1.95222e-07)
(-0.099194 0.00212826 -1.00145e-07)
(-0.0991033 0.00131197 -4.92251e-08)
(-0.0990296 0.000838819 -2.30945e-08)
(-0.098977 0.000574075 -1.01297e-08)
(-0.0989432 0.000429672 -4.31855e-09)
(-0.0989268 0.000341766 -2.43161e-09)
(-0.0989302 0.000251468 -2.78126e-09)
(-0.09896 8.57133e-05 -3.38715e-09)
(-0.0990255 -0.00026496 -4.11367e-10)
(-0.0991319 -0.000973498 1.23071e-08)
(-0.0992599 -0.00230681 5.69503e-08)
(-0.0993196 -0.00464548 1.2855e-07)
(-0.0990703 -0.00846072 2.61438e-07)
(-0.097997 -0.0141945 8.83877e-07)
(-0.0950971 -0.02196 1.50308e-06)
(-0.0955954 0.0249869 -3.34316e-06)
(-0.0963385 0.015556 -1.9862e-06)
(-0.0956866 0.00928985 -8.10646e-07)
(-0.0948038 0.0054277 -4.28915e-07)
(-0.0940467 0.00315096 -1.87898e-07)
(-0.0934951 0.00184325 -6.04332e-08)
(-0.0931228 0.00110483 -1.17627e-08)
(-0.0928781 0.000696627 4.9998e-09)
(-0.0927169 0.000479354 9.20616e-09)
(-0.092609 0.000370046 8.02901e-09)
(-0.0925385 0.000313272 4.20327e-09)
(-0.0925034 0.000260093 -1.65881e-09)
(-0.092518 0.000148241 -8.34641e-09)
(-0.0926152 -0.000122592 -1.101e-08)
(-0.0928509 -0.000726738 -6.89812e-09)
(-0.093296 -0.00196399 5.96844e-08)
(-0.0939992 -0.00432131 1.84017e-07)
(-0.0948951 -0.0085157 4.20846e-07)
(-0.0956026 -0.0154321 1.9161e-06)
(-0.0948059 -0.0257855 4.04282e-06)
(-0.0902143 0.0261511 -5.84048e-06)
(-0.0875788 0.0142826 -2.10272e-06)
(-0.0846723 0.00762325 -3.30227e-07)
(-0.0825613 0.0040535 -1.68963e-07)
(-0.0811664 0.00218136 -8.69151e-09)
(-0.0802939 0.00120622 5.79373e-08)
(-0.07976 0.000697721 5.45532e-08)
(-0.0794292 0.000435331 4.212e-08)
(-0.079215 0.000306554 3.25603e-08)
(-0.0790659 0.000251927 2.55497e-08)
(-0.0789549 0.000236001 1.96787e-08)
(-0.0788746 0.000229679 1.22213e-08)
(-0.0788394 0.000194759 -2.03158e-09)
(-0.0788941 6.28852e-05 -2.91666e-08)
(-0.0791306 -0.000301471 -3.62408e-08)
(-0.0797065 -0.00116715 2.8398e-08)
(-0.0808504 -0.00304649 7.64084e-08)
(-0.0828253 -0.00686604 -9.94254e-08)
(-0.0857761 -0.0141404 1.83807e-06)
(-0.0884933 -0.0270128 6.71818e-06)
(-0.0749187 0.0230194 -7.69021e-06)
(-0.0674719 0.00973593 2.91114e-06)
(-0.0626357 0.00420201 3.16077e-06)
(-0.0600075 0.00187525 1.21076e-06)
(-0.0585462 0.000877593 5.93376e-07)
(-0.0577325 0.000440548 3.4487e-07)
(-0.057273 0.0002432 1.87453e-07)
(-0.0569995 0.000153678 1.10602e-07)
(-0.0568209 0.000117274 8.00094e-08)
(-0.0566872 0.000110288 7.11276e-08)
(-0.0565712 0.000121367 7.25729e-08)
(-0.0564617 0.000142849 7.52079e-08)
(-0.0563636 0.000164184 6.1716e-08)
(-0.056309 0.00016198 -1.12067e-09)
(-0.0563797 7.83119e-05 -1.23964e-07)
(-0.0567467 -0.000235828 -3.19919e-07)
(-0.057742 -0.00116272 -9.77074e-07)
(-0.0599833 -0.00357755 -3.61603e-06)
(-0.064726 -0.00953961 -4.08517e-06)
(-0.0724888 -0.0237905 8.41001e-06)
(-0.0405334 0.0146807 -3.77435e-05)
(-0.0298951 0.00409414 -4.97599e-06)
(-0.0258777 0.00119659 -2.57029e-08)
(-0.0245156 0.000355644 -8.86425e-07)
(-0.0239462 0.000105552 -5.55682e-07)
(-0.0236789 3.36609e-05 -2.31178e-07)
(-0.0235425 1.48056e-05 -1.15207e-07)
(-0.0234612 1.17117e-05 -6.63036e-08)
(-0.0234013 1.41272e-05 -4.12213e-08)
(-0.0233459 1.97784e-05 -2.98584e-08)
(-0.023284 2.87933e-05 -2.50387e-08)
(-0.0232073 4.21447e-05 -1.95638e-08)
(-0.0231095 6.09524e-05 -2.87438e-09)
(-0.0229883 8.50986e-05 3.1556e-08)
(-0.0228563 0.000108516 9.22441e-08)
(-0.0227795 9.63216e-05 3.66819e-07)
(-0.022918 -0.000100636 6.54533e-07)
(-0.0237741 -0.000938559 -8.18778e-07)
(-0.0274595 -0.00404644 3.34306e-06)
(-0.0387997 -0.0155565 4.25987e-05)
(-0.0200044 0.000441297 -9.6673e-07)
(-0.0211977 0.000317245 -6.54867e-07)
(-0.0220424 0.000214371 -4.17994e-07)
(-0.0226111 0.000137478 -2.5195e-07)
(-0.0229791 8.47449e-05 -1.44677e-07)
(-0.0232112 5.12973e-05 -8.04403e-08)