/*--------------------------------*- C++ -*----------------------------------*\
| =========                 |                                                 |
| \\      /  F ield         | OpenFOAM: The Open Source CFD Toolbox           |
|  \\    /   O peration     | Version:  2.4.0                                 |
|   \\  /    A nd           | Web:      www.OpenFOAM.org                      |
|    \\/     M anipulation  |                                                 |
\*---------------------------------------------------------------------------*/
FoamFile
{
    version     2.0;
    format      ascii;
    class       volScalarField;
    location    "0.0091";
    object      T;
}
// * * * * * * * * * * * * * * * * * * * * * * * * * * * * * * * * * * * * * //

dimensions      [0 0 0 1 0 0 0];

internalField   nonuniform List<scalar> 
4800
(
100.194
100.581
100.968
101.354
101.738
102.117
102.487
102.844
103.182
103.493
100.581
101.742
102.903
104.063
105.217
106.359
107.475
108.552
109.571
110.511
100.968
102.903
104.841
106.779
108.71
110.625
112.503
114.319
116.039
117.626
101.354
104.063
106.779
109.5
112.22
114.927
117.594
120.182
122.64
124.908
101.738
105.218
108.711
112.221
115.745
119.269
122.762
126.174
129.431
132.439
102.117
106.359
110.625
114.928
119.269
123.641
128.012
132.323
136.471
140.314
102.488
107.476
112.504
117.595
122.764
128.013
133.323
138.633
143.817
148.66
102.845
108.554
114.321
120.184
126.177
132.325
138.634
145.068
151.502
157.641
103.182
109.573
116.042
122.644
129.435
136.475
143.82
151.504
159.482
167.46
103.494
110.514
117.631
124.915
132.445
140.321
148.666
157.645
167.462
178.222
100.194
100.581
100.968
101.354
101.738
102.117
102.487
102.844
103.182
103.493
100.581
101.742
102.903
104.063
105.217
106.359
107.475
108.552
109.571
110.511
100.968
102.903
104.841
106.779
108.71
110.625
112.503
114.319
116.039
117.626
101.354
104.063
106.779
109.5
112.22
114.927
117.594
120.182
122.64
124.908
101.738
105.218
108.711
112.221
115.745
119.269
122.762
126.174
129.431
132.438
102.117
106.359
110.625
114.928
119.269
123.641
128.012
132.323
136.471
140.314
102.488
107.476
112.505
117.595
122.764
128.013
133.323
138.633
143.817
148.66
102.845
108.554
114.321
120.185
126.177
132.325
138.634
145.068
151.502
157.641
103.183
109.573
116.043
122.644
129.436
136.476
143.82
151.504
159.482
167.46
103.494
110.515
117.631
124.915
132.446
140.321
148.667
157.646
167.463
178.223
100.194
100.581
100.968
101.354
101.738
102.117
102.487
102.844
103.182
103.493
100.581
101.742
102.903
104.063
105.217
106.359
107.475
108.552
109.571
110.511
100.968
102.903
104.841
106.779
108.71
110.625
112.503
114.319
116.039
117.626
101.354
104.063
106.779
109.5
112.22
114.927
117.594
120.182
122.64
124.908
101.738
105.218
108.711
112.221
115.745
119.269
122.762
126.174
129.431
132.438
102.117
106.359
110.625
114.928
119.269
123.641
128.012
132.323
136.471
140.314
102.488
107.476
112.505
117.595
122.764
128.013
133.323
138.633
143.817
148.66
102.845
108.554
114.321
120.185
126.177
132.325
138.634
145.068
151.502
157.641
103.183
109.573
116.043
122.644
129.436
136.476
143.82
151.504
159.482
167.46
103.494
110.515
117.631
124.915
132.446
140.321
148.667
157.646
167.463
178.223
100.194
100.581
100.968
101.354
101.738
102.117
102.487
102.844
103.182
103.493
100.581
101.742
102.903
104.063
105.217
106.359
107.475
108.552
109.571
110.511
100.968
102.903
104.841
106.779
108.71
110.625
112.503
114.319
116.039
117.626
101.354
104.063
106.779
109.5
112.22
114.927
117.594
120.182
122.64
124.908
101.738
105.218
108.711
112.221
115.745
119.269
122.762
126.174
129.431
132.439
102.117
106.359
110.625
114.928
119.269
123.641
128.012
132.323
136.471
140.314
102.488
107.476
112.504
117.595
122.764
128.013
133.323
138.633
143.817
148.66
102.845
108.554
114.321
120.184
126.177
132.325
138.634
145.068
151.502
157.641
103.182
109.573
116.042
122.644
129.435
136.475
143.82
151.504
159.482
167.46
103.494
110.514
117.631
124.915
132.445
140.321
148.666
157.645
167.462
178.222
103.773
104.016
104.222
104.391
104.526
104.63
104.707
104.762
104.796
104.813
104.813
104.796
104.761
104.707
104.63
104.526
104.391
104.222
104.016
103.773
111.354
112.087
112.704
113.208
113.609
113.916
114.144
114.304
114.405
114.454
114.454
114.405
114.304
114.144
113.916
113.608
113.208
112.703
112.086
111.353
119.045
120.272
121.298
122.13
122.784
123.283
123.65
123.906
124.067
124.145
124.145
124.067
123.905
123.649
123.281
122.782
122.128
121.297
120.271
119.044
126.928
128.659
130.088
131.229
132.114
132.78
133.266
133.602
133.812
133.914
133.913
133.812
133.601
133.265
132.779
132.112
131.227
130.086
128.657
126.927
135.1
137.347
139.164
140.584
141.662
142.459
143.032
143.423
143.667
143.783
143.783
143.666
143.422
143.03
142.457
141.66
140.581
139.162
137.345
135.098
143.687
146.465
148.638
150.28
151.49
152.363
152.978
153.393
153.649
153.77
153.77
153.648
153.392
152.977
152.361
151.488
150.278
148.636
146.462
143.685
152.869
156.186
158.644
160.408
161.655
162.526
163.125
163.522
163.764
163.879
163.878
163.763
163.521
163.123
162.524
161.653
160.406
158.641
156.184
152.867
162.943
166.766
169.342
171.053
172.195
172.96
173.473
173.806
174.007
174.102
174.101
174.007
173.806
173.472
172.959
172.193
171.052
169.34
166.764
162.941
174.495
178.591
180.906
182.268
183.11
183.649
183.999
184.223
184.357
184.419
184.419
184.356
184.223
183.998
183.648
183.109
182.267
180.905
178.591
174.494
188.984
192.199
193.422
194.004
194.328
194.526
194.651
194.73
194.777
194.799
194.799
194.777
194.73
194.651
194.525
194.328
194.003
193.422
192.199
188.983
103.773
104.016
104.222
104.391
104.526
104.63
104.707
104.761
104.796
104.812
104.812
104.796
104.761
104.707
104.629
104.525
104.391
104.222
104.016
103.772
111.354
112.086
112.704
113.208
113.608
113.916
114.144
114.304
114.405
114.454
114.454
114.405
114.303
114.143
113.915
113.607
113.207
112.702
112.085
111.352
119.045
120.272
121.298
122.13
122.783
123.282
123.649
123.905
124.067
124.144
124.144
124.066
123.904
123.648
123.28
122.781
122.127
121.296
120.27
119.043
126.928
128.659
130.087
131.228
132.113
132.78
133.265
133.601
133.812
133.913
133.913
133.811
133.6
133.264
132.778
132.111
131.226
130.084
128.656
126.925
135.1
137.347
139.164
140.583
141.661
142.459
143.031
143.423
143.666
143.783
143.782
143.665
143.421
143.029
142.456
141.658
140.58
139.16
137.343
135.097
143.687
146.464
148.638
150.28
151.489
152.363
152.978
153.392
153.648
153.769
153.769
153.647
153.391
152.976
152.36
151.486
150.276
148.634
146.461
143.684
152.869
156.186
158.643
160.407
161.654
162.525
163.124
163.521
163.763
163.878
163.877
163.762
163.52
163.122
162.523
161.651
160.404
158.64
156.182
152.866
162.943
166.765
169.342
171.053
172.194
172.96
173.472
173.805
174.006
174.101
174.1
174.006
173.804
173.47
172.958
172.192
171.05
169.339
166.762
162.94
174.495
178.591
180.906
182.268
183.109
183.648
183.998
184.222
184.356
184.418
184.418
184.355
184.222
183.997
183.647
183.108
182.266
180.904
178.589
174.492
188.984
192.199
193.422
194.003
194.328
194.525
194.651
194.73
194.777
194.799
194.799
194.777
194.73
194.65
194.525
194.327
194.003
193.421
192.198
188.982
103.773
104.016
104.222
104.391
104.526
104.63
104.707
104.761
104.796
104.812
104.812
104.796
104.761
104.707
104.629
104.525
104.391
104.222
104.016
103.772
111.354
112.086
112.704
113.208
113.608
113.916
114.144
114.304
114.405
114.454
114.454
114.405
114.303
114.143
113.915
113.607
113.207
112.702
112.085
111.352
119.045
120.272
121.298
122.13
122.783
123.282
123.649
123.905
124.067
124.144
124.144
124.066
123.904
123.648
123.28
122.781
122.127
121.296
120.27
119.043
126.928
128.659
130.087
131.228
132.113
132.78
133.265
133.601
133.812
133.913
133.913
133.811
133.6
133.264
132.778
132.111
131.226
130.084
128.656
126.925
135.1
137.347
139.164
140.583
141.661
142.459
143.031
143.423
143.666
143.783
143.782
143.665
143.421
143.029
142.456
141.658
140.58
139.16
137.343
135.097
143.687
146.464
148.638
150.28
151.489
152.363
152.978
153.392
153.648
153.769
153.769
153.647
153.391
152.976
152.36
151.486
150.276
148.634
146.461
143.684
152.869
156.186
158.643
160.407
161.654
162.525
163.124
163.521
163.763
163.878
163.877
163.762
163.52
163.122
162.523
161.651
160.404
158.64
156.182
152.866
162.943
166.765
169.342
171.053
172.194
172.96
173.472
173.805
174.006
174.101
174.1
174.006
173.804
173.47
172.958
172.192
171.05
169.339
166.762
162.94
174.495
178.591
180.906
182.268
183.109
183.648
183.998
184.222
184.356
184.418
184.418
184.355
184.222
183.997
183.647
183.108
182.266
180.904
178.589
174.492
188.984
192.199
193.422
194.003
194.328
194.525
194.651
194.73
194.777
194.799
194.799
194.777
194.73
194.65
194.525
194.327
194.003
193.421
192.198
188.982
103.773
104.016
104.222
104.391
104.526
104.63
104.707
104.762
104.796
104.813
104.813
104.796
104.761
104.707
104.63
104.526
104.391
104.222
104.016
103.773
111.354
112.087
112.704
113.208
113.609
113.916
114.144
114.304
114.405
114.454
114.454
114.405
114.304
114.144
113.916
113.608
113.208
112.703
112.086
111.353
119.045
120.272
121.298
122.13
122.784
123.283
123.65
123.906
124.067
124.145
124.145
124.067
123.905
123.649
123.281
122.782
122.128
121.297
120.271
119.044
126.928
128.659
130.088
131.229
132.114
132.78
133.266
133.602
133.812
133.914
133.913
133.812
133.601
133.265
132.779
132.112
131.227
130.086
128.657
126.927
135.1
137.347
139.164
140.584
141.662
142.459
143.032
143.423
143.667
143.783
143.783
143.666
143.422
143.03
142.457
141.66
140.581
139.162
137.345
135.098
143.687
146.465
148.638
150.28
151.49
152.363
152.978
153.393
153.649
153.77
153.77
153.648
153.392
152.977
152.361
151.488
150.278
148.636
146.462
143.685
152.869
156.186
158.644
160.408
161.655
162.526
163.125
163.522
163.764
163.879
163.878
163.763
163.521
163.123
162.524
161.653
160.406
158.641
156.184
152.867
162.943
166.766
169.342
171.053
172.195
172.96
173.473
173.806
174.007
174.102
174.101
174.007
173.806
173.472
172.959
172.193
171.052
169.34
166.764
162.941
174.495
178.591
180.906
182.268
183.11
183.649
183.999
184.223
184.357
184.419
184.419
184.356
184.223
183.998
183.648
183.109
182.267
180.905
178.591
174.494
188.984
192.199
193.422
194.004
194.328
194.526
194.651
194.73
194.777
194.799
194.799
194.777
194.73
194.651
194.525
194.328
194.003
193.422
192.199
188.983
103.493
103.182
102.845
102.488
102.117
101.738
101.354
100.968
100.581
100.194
110.511
109.571
108.553
107.476
106.359
105.218
104.064
102.904
101.743
100.581
117.625
116.039
114.319
112.503
110.625
108.711
106.779
104.842
102.904
100.968
124.907
122.639
120.182
117.594
114.927
112.221
109.5
106.779
104.064
101.354
132.437
129.43
126.174
122.762
119.269
115.746
112.222
108.711
105.218
101.738
140.313
136.471
132.323
128.013
123.642
119.27
114.929
110.627
106.36
102.117
148.659
143.816
138.633
133.324
128.014
122.765
117.597
112.506
107.477
102.488
157.641
151.503
145.069
138.636
132.327
126.179
120.186
114.323
108.555
102.845
167.461
159.483
151.506
143.822
136.478
129.438
122.647
116.045
109.575
103.183
178.224
167.464
157.648
148.669
140.324
132.449
124.918
117.634
110.516
103.495
103.492
103.181
102.844
102.487
102.116
101.737
101.353
100.967
100.58
100.193
110.509
109.57
108.551
107.474
106.358
105.217
104.063
102.903
101.741
100.58
117.624
116.037
114.318
112.502
110.624
108.709
106.778
104.84
102.903
100.967
124.905
122.638
120.18
117.592
114.926
112.219
109.499
106.778
104.063
101.353
132.436
129.429
126.173
122.761
119.268
115.744
112.22
108.71
105.217
101.737
140.311
136.469
132.321
128.011
123.64
119.269
114.927
110.625
106.359
102.117
148.658
143.815
138.631
133.322
128.013
122.763
117.595
112.504
107.476
102.487
157.639
151.501
145.067
138.634
132.325
126.177
120.185
114.321
108.554
102.845
167.459
159.481
151.504
143.82
136.476
129.436
122.645
116.043
109.573
103.182
178.222
167.462
157.646
148.667
140.322
132.447
124.916
117.632
110.515
103.494
103.492
103.181
102.844
102.487
102.116
101.737
101.353
100.967
100.58
100.193
110.509
109.57
108.551
107.474
106.358
105.217
104.063
102.903
101.741
100.58
117.624
116.037
114.318
112.502
110.624
108.709
106.778
104.84
102.903
100.967
124.905
122.638
120.18
117.592
114.926
112.219
109.499
106.778
104.063
101.353
132.436
129.429
126.173
122.761
119.268
115.744
112.22
108.71
105.217
101.737
140.311
136.469
132.321
128.011
123.64
119.269
114.927
110.625
106.359
102.117
148.658
143.815
138.631
133.322
128.013
122.763
117.595
112.504
107.476
102.487
157.639
151.501
145.067
138.634
132.325
126.177
120.185
114.321
108.554
102.845
167.459
159.481
151.504
143.82
136.476
129.436
122.645
116.043
109.573
103.182
178.222
167.462
157.646
148.667
140.322
132.447
124.916
117.632
110.515
103.494
103.493
103.182
102.845
102.488
102.117
101.738
101.354
100.968
100.581
100.194
110.511
109.571
108.553
107.476
106.359
105.218
104.064
102.904
101.743
100.581
117.625
116.039
114.319
112.503
110.625
108.711
106.779
104.842
102.904
100.968
124.907
122.639
120.182
117.594
114.927
112.221
109.5
106.779
104.064
101.354
132.437
129.43
126.174
122.762
119.269
115.746
112.222
108.711
105.218
101.738
140.313
136.471
132.323
128.013
123.642
119.27
114.929
110.627
106.36
102.117
148.659
143.816
138.633
133.324
128.014
122.765
117.597
112.506
107.477
102.488
157.641
151.503
145.069
138.636
132.327
126.179
120.186
114.323
108.555
102.845
167.461
159.483
151.506
143.822
136.478
129.438
122.647
116.045
109.575
103.183
178.224
167.464
157.648
148.669
140.324
132.449
124.918
117.634
110.516
103.495
188.986
174.501
162.953
152.882
143.702
135.115
126.941
119.056
111.361
103.775
192.203
178.601
166.78
156.204
146.485
137.367
128.677
120.287
112.096
104.02
193.427
180.919
169.362
158.669
148.666
139.192
130.113
121.318
112.717
104.227
194.01
182.286
171.081
160.442
150.318
140.622
131.263
122.157
113.226
104.398
194.337
183.134
172.232
161.702
151.542
141.714
132.16
122.821
113.633
104.534
194.537
183.682
173.012
162.59
152.434
142.53
132.844
123.333
113.949
104.641
194.667
184.044
173.543
163.212
153.075
143.128
133.353
123.718
114.189
104.723
194.752
184.285
173.902
163.642
153.525
143.555
133.72
123.999
114.364
104.782
194.807
184.441
174.138
163.927
153.828
143.846
133.973
124.194
114.487
104.824
194.839
184.535
174.28
164.101
154.015
144.027
134.132
124.317
114.565
104.851
194.854
184.578
174.346
164.183
154.105
144.115
134.209
124.378
114.603
104.864
194.853
184.575
174.343
164.182
154.105
144.117
134.214
124.383
114.607
104.865
194.835
184.525
174.269
164.095
154.017
144.036
134.146
124.332
114.575
104.855
194.798
184.419
174.114
163.914
153.831
143.864
134.001
124.223
114.508
104.832
194.732
184.238
173.854
163.615
153.529
143.588
133.771
124.052
114.403
104.797
194.625
183.948
173.448
163.162
153.084
143.189
133.443
123.809
114.255
104.747
194.441
183.48
172.828
162.5
152.457
142.643
133.002
123.488
114.06
104.682
194.1
182.704
171.883
161.555
151.603
141.922
132.435
123.082
113.817
104.6
193.352
181.355
170.444
160.236
150.477
141.009
131.735
122.588
113.523
104.503
191.304
178.92
168.302
158.471
149.061
139.904
130.907
122.014
113.185
104.392
188.985
174.499
162.951
152.88
143.699
135.113
126.939
119.054
111.359
103.774
192.201
178.599
166.778
156.202
146.482
137.365
128.675
120.285
112.095
104.019
193.425
180.917
169.36
158.666
148.664
139.19
130.111
121.317
112.715
104.226
194.008
182.284
171.078
160.44
150.316
140.619
131.261
122.155
113.225
104.397
194.335
183.132
172.229
161.699
151.539
141.711
132.158
122.819
113.631
104.533
194.536
183.679
173.009
162.587
152.432
142.527
132.842
123.331
113.947
104.64
194.665
184.041
173.539
163.209
153.072
143.125
133.35
123.716
114.187
104.722
194.75
184.282
173.898
163.638
153.522
143.552
133.717
123.997
114.362
104.781
194.805
184.438
174.134
163.924
153.825
143.843
133.97
124.192
114.485
104.823
194.837
184.531
174.277
164.098
154.012
144.024
134.129
124.315
114.563
104.849
194.852
184.574
174.343
164.18
154.101
144.112
134.207
124.376
114.601
104.863
194.851
184.571
174.339
164.178
154.102
144.114
134.211
124.38
114.605
104.864
194.833
184.521
174.266
164.092
154.013
144.033
134.143
124.329
114.573
104.853
194.795
184.415
174.11
163.91
153.828
143.861
133.998
124.221
114.506
104.831
194.73
184.235
173.85
163.611
153.526
143.585
133.768
124.049
114.401
104.795
194.622
183.944
173.444
163.158
153.081
143.186
133.44
123.807
114.253
104.745
194.439
183.476
172.824
162.496
152.454
142.639
132.999
123.486
114.058
104.68
194.097
182.7
171.878
161.551
151.599
141.919
132.432
123.079
113.814
104.599
193.349
181.351
170.439
160.232
150.473
141.006
131.732
122.585
113.521
104.502
191.301
178.916
168.298
158.467
149.058
139.901
130.904
122.011
113.183
104.39
188.985
174.499
162.951
152.88
143.699
135.113
126.939
119.054
111.359
103.774
192.201
178.599
166.778
156.202
146.482
137.365
128.675
120.285
112.095
104.019
193.425
180.917
169.36
158.666
148.664
139.19
130.111
121.317
112.715
104.226
194.008
182.284
171.078
160.44
150.316
140.619
131.261
122.155
113.225
104.397
194.335
183.132
172.229
161.699
151.539
141.711
132.158
122.819
113.631
104.533
194.536
183.679
173.009
162.587
152.432
142.527
132.842
123.331
113.947
104.64
194.665
184.041
173.539
163.209
153.072
143.125
133.35
123.716
114.187
104.722
194.75
184.282
173.898
163.638
153.522
143.552
133.717
123.997
114.362
104.781
194.805
184.438
174.134
163.924
153.825
143.843
133.97
124.192
114.485
104.823
194.837
184.531
174.277
164.098
154.012
144.024
134.129
124.315
114.563
104.849
194.852
184.574
174.343
164.18
154.101
144.112
134.207
124.376
114.601
104.863
194.851
184.571
174.339
164.178
154.102
144.114
134.211
124.38
114.605
104.864
194.833
184.521
174.266
164.092
154.013
144.033
134.143
124.329
114.573
104.853
194.795
184.415
174.11
163.91
153.828
143.861
133.998
124.221
114.506
104.831
194.73
184.235
173.85
163.611
153.526
143.585
133.768
124.049
114.401
104.795
194.622
183.944
173.444
163.158
153.081
143.186
133.44
123.807
114.253
104.745
194.439
183.476
172.824
162.496
152.454
142.639
132.999
123.486
114.058
104.68
194.097
182.7
171.878
161.551
151.599
141.919
132.432
123.079
113.814
104.599
193.349
181.351
170.439
160.232
150.473
141.006
131.732
122.585
113.521
104.502
191.301
178.916
168.298
158.467
149.058
139.901
130.904
122.011
113.183
104.39
188.986
174.501
162.953
152.882
143.702
135.115
126.941
119.056
111.361
103.775
192.203
178.601
166.78
156.204
146.485
137.367
128.677
120.287
112.096
104.02
193.427
180.919
169.362
158.669
148.666
139.192
130.113
121.318
112.717
104.227
194.01
182.286
171.081
160.442
150.318
140.622
131.263
122.157
113.226
104.398
194.337
183.134
172.232
161.702
151.542
141.714
132.16
122.821
113.633
104.534
194.537
183.682
173.012
162.59
152.434
142.53
132.844
123.333
113.949
104.641
194.667
184.044
173.543
163.212
153.075
143.128
133.353
123.718
114.189
104.723
194.752
184.285
173.902
163.642
153.525
143.555
133.72
123.999
114.364
104.782
194.807
184.441
174.138
163.927
153.828
143.846
133.973
124.194
114.487
104.824
194.839
184.535
174.28
164.101
154.015
144.027
134.132
124.317
114.565
104.851
194.854
184.578
174.346
164.183
154.105
144.115
134.209
124.378
114.603
104.864
194.853
184.575
174.343
164.182
154.105
144.117
134.214
124.383
114.607
104.865
194.835
184.525
174.269
164.095
154.017
144.036
134.146
124.332
114.575
104.855
194.798
184.419
174.114
163.914
153.831
143.864
134.001
124.223
114.508
104.832
194.732
184.238
173.854
163.614
153.529
143.588
133.771
124.052
114.403
104.797
194.625
183.948
173.448
163.162
153.084
143.189
133.443
123.809
114.255
104.747
194.441
183.48
172.828
162.5
152.457
142.643
133.002
123.488
114.06
104.682
194.1
182.704
171.883
161.555
151.603
141.922
132.435
123.082
113.817
104.6
193.352
181.355
170.444
160.236
150.477
141.009
131.735
122.588
113.523
104.503
191.304
178.92
168.302
158.471
149.061
139.904
130.907
122.014
113.185
104.392
184.243
174.719
165.374
156.286
147.395
138.64
129.977
121.376
112.812
104.269
178.057
170.342
162.191
153.907
145.595
137.287
128.988
120.7
112.418
104.139
173.078
166.404
159.144
151.559
143.794
135.925
127.992
120.019
112.021
104.009
169.106
163.056
156.423
149.394
142.1
134.629
127.037
119.364
111.639
103.883
165.945
160.293
154.1
147.496
140.587
133.457
126.166
118.764
111.287
103.767
163.456
158.072
152.191
145.904
139.298
132.446
125.41
118.239
110.979
103.666
161.549
156.349
150.688
144.634
138.257
131.622
124.788
117.807
110.724
103.582
160.164
155.089
149.578
143.686
137.474
130.998
124.315
117.476
110.528
103.517
159.261
154.264
148.847
143.059
136.953
130.582
123.999
117.255
110.396
103.474
158.816
153.856
148.485
142.747
136.693
130.373
123.84
117.144
110.331
103.457
184.239
174.715
165.37
156.282
147.392
138.637
129.974
121.373
112.809
104.267
178.053
170.338
162.187
153.904
145.592
137.283
128.985
120.697
112.415
104.138
173.075
166.401
159.14
151.556
143.791
135.921
127.989
120.016
112.019
104.007
169.103
163.053
156.42
149.391
142.097
134.626
127.034
119.361
111.636
103.881
165.942
160.29
154.097
147.493
140.584
133.453
126.163
118.76
111.284
103.765
163.453
158.069
152.188
145.901
139.295
132.443
125.406
118.236
110.975
103.664
161.546
156.347
150.685
144.631
138.254
131.619
124.784
117.802
110.72
103.579
160.161
155.086
149.575
143.683
137.47
130.995
124.311
117.471
110.523
103.514
159.258
154.261
148.844
143.056
136.949
130.578
123.994
117.249
110.39
103.469
158.813
153.853
148.482
142.744
136.689
130.369
123.836
117.138
110.324
103.451
184.239
174.715
165.37
156.282
147.392
138.637
129.974
121.373
112.809
104.267
178.053
170.338
162.187
153.903
145.592
137.283
128.985
120.697
112.415
104.138
173.075
166.401
159.14
151.556
143.791
135.921
127.989
120.016
112.019
104.007
169.103
163.053
156.42
149.391
142.097
134.626
127.034
119.361
111.636
103.881
165.942
160.29
154.097
147.493
140.584
133.453
126.163
118.761
111.284
103.765
163.453
158.069
152.188
145.901
139.295
132.443
125.406
118.236
110.976
103.664
161.546
156.347
150.685
144.631
138.254
131.619
124.784
117.802
110.72
103.579
160.161
155.086
149.575
143.683
137.47
130.995
124.311
117.471
110.523
103.514
159.258
154.261
148.844
143.056
136.949
130.578
123.994
117.249
110.39
103.469
158.813
153.854
148.482
142.744
136.689
130.369
123.836
117.138
110.324
103.451
184.243
174.719
165.374
156.286
147.395
138.64
129.977
121.376
112.812
104.269
178.057
170.342
162.191
153.907
145.595
137.287
128.989
120.7
112.418
104.139
173.078
166.404
159.144
151.559
143.794
135.925
127.992
120.019
112.021
104.009
169.106
163.056
156.423
149.394
142.1
134.629
127.037
119.365
111.639
103.883
165.945
160.293
154.1
147.496
140.587
133.457
126.166
118.764
111.287
103.767
163.456
158.072
152.191
145.904
139.298
132.446
125.41
118.239
110.979
103.666
161.549
156.349
150.688
144.634
138.257
131.622
124.788
117.807
110.724
103.582
160.164
155.089
149.578
143.686
137.474
130.999
124.315
117.476
110.528
103.517
159.261
154.264
148.847
143.059
136.953
130.582
123.999
117.255
110.396
103.474
158.816
153.856
148.485
142.747
136.693
130.373
123.841
117.144
110.331
103.457
192.89
195.654
196.827
197.465
197.87
198.148
198.342
198.476
198.56
198.601
198.601
198.561
198.477
198.344
198.15
197.873
197.468
196.83
195.657
192.893
184.559
188.555
191.018
192.628
193.738
194.526
195.089
195.478
195.724
195.844
195.845
195.726
195.482
195.094
194.532
193.745
192.636
191.026
188.562
184.564
178.737
182.988
186.063
188.293
189.927
191.132
192.009
192.624
193.015
193.206
193.207
193.019
192.629
192.017
191.141
189.938
188.305
186.076
183
178.747
174.331
178.599
181.955
184.553
186.548
188.065
189.193
189.993
190.507
190.76
190.761
190.512
190.001
189.204
188.079
186.564
184.57
181.973
178.618
174.349
170.897
175.122
178.604
181.415
183.648
185.388
186.704
187.65
188.263
188.564
188.567
188.27
187.662
186.72
185.407
183.671
181.441
178.631
175.15
170.925
168.219
172.39
175.925
178.858
181.242
183.135
184.588
185.643
186.33
186.67
186.673
186.339
185.657
184.608
183.161
181.272
178.892
175.962
172.429
168.259
166.174
170.296
173.85
176.851
179.33
181.325
182.872
184.004
184.746
185.115
185.119
184.757
184.023
182.898
181.357
179.368
176.894
173.897
170.347
166.228
164.69
168.772
172.329
175.367
177.904
179.964
181.574
182.758
183.538
183.926
183.931
183.551
182.78
181.604
180.002
177.95
175.42
172.388
168.835
164.756
163.72
167.775
171.331
174.388
176.957
179.055
180.703
181.92
182.723
183.124
183.129
182.738
181.945
180.738
179.099
177.01
174.449
171.399
167.849
163.799
163.241
167.283
170.837
173.902
176.485
178.601
180.267
181.499
182.313
182.72
182.726
182.329
181.526
180.304
178.648
176.542
173.968
170.91
167.363
163.327
192.893
195.656
196.829
197.466
197.871
198.148
198.343
198.476
198.56
198.601
198.601
198.561
198.477
198.344
198.149
197.872
197.467
196.829
195.655
192.891
184.562
188.558
191.021
192.63
193.74
194.528
195.09
195.479
195.724
195.844
195.844
195.726
195.481
195.092
194.531
193.743
192.634
191.024
188.559
184.561
178.74
182.991
186.066
188.295
189.929
191.133
192.01
192.624
193.015
193.206
193.207
193.018
192.628
192.016
191.14
189.937
188.303
186.073
182.998
178.744
174.334
178.602
181.957
184.555
186.55
188.066
189.194
189.994
190.508
190.759
190.761
190.512
190.001
189.203
188.077
186.562
184.568
181.971
178.615
174.346
170.9
175.125
178.607
181.418
183.65
185.389
186.706
187.651
188.263
188.564
188.566
188.269
187.661
186.719
185.406
183.669
181.439
178.629
175.148
170.923
168.222
172.393
175.928
178.86
181.244
183.137
184.589
185.644
186.33
186.67
186.673
186.338
185.657
184.607
183.159
181.271
178.89
175.96
172.427
168.257
166.177
170.299
173.852
176.853
179.332
181.326
182.873
184.005
184.747
185.115
185.118
184.757
184.022
182.896
181.355
179.366
176.892
173.895
170.345
166.225
164.693
168.774
172.332
175.369
177.906
179.965
181.575
182.759
183.538
183.926
183.93
183.551
182.779
181.603
180.001
177.948
175.418
172.386
168.833
164.754
163.723
167.778
171.334
174.391
176.959
179.057
180.704
181.921
182.724
183.124
183.129
182.738
181.944
180.737
179.098
177.008
174.447
171.397
167.847
163.796
163.244
167.285
170.839
173.904
176.487
178.603
180.268
181.5
182.314
182.72
182.725
182.329
181.525
180.303
178.647
176.541
173.966
170.908
167.361
163.324
192.893
195.656
196.829
197.466
197.871
198.148
198.343
198.476
198.56
198.601
198.601
198.561
198.477
198.344
198.149
197.872
197.467
196.829
195.655
192.891
184.562
188.558
191.021
192.63
193.74
194.528
195.09
195.479
195.724
195.844
195.844
195.726
195.481
195.092
194.531
193.743
192.634
191.024
188.559
184.561
178.74
182.991
186.066
188.295
189.929
191.133
192.01
192.624
193.015
193.206
193.207
193.018
192.628
192.016
191.14
189.937
188.303
186.073
182.998
178.744
174.334
178.602
181.957
184.555
186.55
188.066
189.194
189.994
190.508
190.759
190.761
190.512
190.001
189.203
188.077
186.562
184.568
181.971
178.615
174.346
170.9
175.125
178.607
181.418
183.65
185.389
186.706
187.651
188.263
188.564
188.566
188.269
187.661
186.719
185.406
183.669
181.439
178.629
175.148
170.923
168.222
172.393
175.928
178.86
181.244
183.137
184.589
185.644
186.33
186.67
186.673
186.338
185.657
184.607
183.159
181.271
178.89
175.96
172.427
168.257
166.177
170.299
173.852
176.853
179.332
181.326
182.873
184.005
184.747
185.115
185.118
184.757
184.022
182.896
181.355
179.366
176.892
173.895
170.345
166.225
164.693
168.774
172.332
175.369
177.906
179.965
181.575
182.759
183.538
183.926
183.931
183.551
182.779
181.603
180.001
177.948
175.418
172.386
168.833
164.754
163.723
167.778
171.334
174.391
176.959
179.057
180.704
181.921
182.724
183.124
183.129
182.738
181.944
180.737
179.098
177.008
174.447
171.397
167.847
163.796
163.244
167.285
170.839
173.904
176.487
178.603
180.268
181.5
182.314
182.72
182.725
182.329
181.525
180.303
178.647
176.541
173.966
170.909
167.361
163.324
192.89
195.654
196.827
197.465
197.87
198.147
198.342
198.476
198.56
198.601
198.601
198.561
198.477
198.344
198.15
197.873
197.468
196.83
195.657
192.893
184.559
188.555
191.018
192.628
193.738
194.526
195.089
195.478
195.724
195.844
195.845
195.726
195.482
195.094
194.532
193.745
192.636
191.026
188.562
184.564
178.737
182.988
186.063
188.293
189.927
191.132
192.009
192.624
193.015
193.206
193.207
193.019
192.629
192.017
191.141
189.938
188.305
186.076
183
178.747
174.33
178.599
181.955
184.553
186.548
188.065
189.193
189.993
190.507
190.759
190.761
190.512
190.001
189.204
188.079
186.564
184.57
181.973
178.618
174.349
170.897
175.122
178.604
181.415
183.648
185.388
186.704
187.65
188.263
188.564
188.567
188.27
187.662
186.72
185.407
183.671
181.441
178.631
175.151
170.925
168.219
172.39
175.925
178.858
181.242
183.135
184.588
185.643
186.33
186.67
186.673
186.339
185.658
184.609
183.161
181.272
178.892
175.962
172.429
168.259
166.174
170.296
173.85
176.851
179.33
181.325
182.872
184.004
184.746
185.115
185.119
184.757
184.023
182.898
181.357
179.368
176.894
173.898
170.347
166.228
164.69
168.772
172.329
175.367
177.904
179.964
181.574
182.759
183.538
183.927
183.931
183.551
182.781
181.604
180.002
177.95
175.42
172.388
168.835
164.757
163.72
167.775
171.332
174.389
176.957
179.056
180.703
181.92
182.723
183.124
183.129
182.739
181.945
180.738
179.1
177.01
174.449
171.4
167.849
163.799
163.242
167.283
170.837
173.902
176.485
178.601
180.267
181.499
182.313
182.72
182.726
182.33
181.526
180.304
178.649
176.542
173.968
170.911
167.363
163.327
104.269
112.813
121.379
129.982
138.646
147.401
156.292
165.378
174.72
184.241
104.139
112.419
120.702
128.992
137.291
145.599
153.91
162.192
170.341
178.053
104.008
112.02
120.019
127.993
135.926
143.794
151.557
159.14
166.398
173.069
103.882
111.636
119.362
127.034
134.625
142.094
149.385
156.411
163.041
169.09
103.765
111.282
118.757
126.157
133.444
140.571
147.476
154.077
160.267
165.917
103.662
110.97
118.226
125.392
132.424
139.27
145.872
152.155
158.033
163.416
103.576
110.711
117.787
124.761
131.587
138.215
144.587
150.637
156.296
161.495
103.51
110.511
117.448
124.277
130.95
137.418
143.624
149.511
155.02
160.095
103.465
110.375
117.217
123.948
130.52
136.882
142.983