/*--------------------------------*- C++ -*----------------------------------*\
| =========                 |                                                 |
| \\      /  F ield         | OpenFOAM: The Open Source CFD Toolbox           |
|  \\    /   O peration     | Version:  2.4.0                                 |
|   \\  /    A nd           | Web:      www.OpenFOAM.org                      |
|    \\/     M anipulation  |                                                 |
\*---------------------------------------------------------------------------*/
FoamFile
{
    version     2.0;
    format      ascii;
    class       volScalarField;
    location    "4.5";
    object      p;
}
// * * * * * * * * * * * * * * * * * * * * * * * * * * * * * * * * * * * * * //

dimensions      [0 2 -2 0 0 0 0];

internalField   nonuniform List<scalar> 
4800
(
-2.35471e-06
-0.00160678
-0.00329294
-0.00454342
-0.00503374
-0.00461244
-0.00323222
-0.000896775
0.00234926
0.00641013
0.00159253
-4.18276e-05
-0.00123984
-0.00195468
-0.00206264
-0.00145355
-7.96761e-05
0.00207558
0.00500274
0.00865537
0.00331611
0.00110526
-0.000100434
-0.000659352
-0.000640866
1.35084e-05
0.00133545
0.00335224
0.00608616
0.00953426
0.00448501
0.00161659
0.000236175
-0.000338124
-0.00033512
0.000259484
0.00146587
0.00332998
0.0059186
0.00928904
0.004545
0.00115452
-0.000411506
-0.00107553
-0.00118253
-0.000744353
0.00026551
0.00193204
0.00439461
0.00781838
0.0031276
-0.000574341
-0.00229298
-0.00309769
-0.00340286
-0.00322684
-0.00251414
-0.00111357
0.00122872
0.00489083
5.39898e-05
-0.00371867
-0.00553458
-0.00651616
-0.00710384
-0.00730717
-0.00702121
-0.00600237
-0.00383593
0.000288727
-0.00468007
-0.0082822
-0.010131
-0.0113142
-0.012263
-0.012973
-0.0132801
-0.0128367
-0.0110516
-0.00626566
-0.010909
-0.0141275
-0.0159435
-0.017336
-0.0187024
-0.0200329
-0.0211106
-0.0214885
-0.020479
-0.0148606
-0.0183177
-0.020994
-0.022713
-0.0242927
-0.0260871
-0.0281167
-0.0301793
-0.0318326
-0.0328354
-0.0284543
-6.04639e-06
-0.00162894
-0.00332482
-0.004584
-0.00507958
-0.00466044
-0.00328035
-0.000942995
0.00230727
0.00637501
0.00160906
-4.70624e-05
-0.00122278
-0.0019273
-0.00203008
-0.00141774
-4.37473e-05
0.00210899
0.00503204
0.00868064
0.00334617
0.00107889
-0.000101821
-0.000658381
-0.000642302
1.2205e-05
0.00133401
0.00335013
0.00608326
0.00953247
0.0045292
0.00157968
0.000236272
-0.000334873
-0.000336114
0.000258015
0.00146393
0.00332681
0.00591311
0.0092842
0.00459921
0.00111121
-0.000406545
-0.0010648
-0.00117602
-0.000738149
0.000271053
0.00193531
0.00439117
0.00781159
0.00318675
-0.000622228
-0.00228645
-0.00308403
-0.00339337
-0.00321741
-0.00250493
-0.00110615
0.00122277
0.00487194
0.000112911
-0.00376781
-0.00552756
-0.00650119
-0.00709242
-0.00729533
-0.00700811
-0.00598668
-0.00384374
0.000240717
-0.00462539
-0.00832934
-0.0101246
-0.0112997
-0.0122511
-0.0129609
-0.0132664
-0.0128124
-0.0110747
-0.00643277
-0.0108634
-0.0141702
-0.015939
-0.0173239
-0.0186912
-0.0200209
-0.0210944
-0.0214318
-0.0204621
-0.0152357
-0.0182847
-0.0210309
-0.0227122
-0.0242857
-0.0260797
-0.028106
-0.0301565
-0.0316918
-0.0325059
-0.0285677
-7.09795e-06
-0.00162948
-0.00332508
-0.00458411
-0.00507961
-0.00466043
-0.00328034
-0.000942989
0.00230727
0.00637501
0.00160852
-4.74019e-05
-0.00122296
-0.00192738
-0.00203011
-0.00141774
-4.37455e-05
0.00210899
0.00503205
0.00868065
0.00334592
0.00107871
-0.000101932
-0.000658436
-0.000642312
1.22198e-05
0.00133402
0.00335014
0.00608327
0.00953248
0.00452908
0.00157961
0.000236232
-0.000334887
-0.000336106
0.000258028
0.00146394
0.00332682
0.00591312
0.0092842
0.00459917
0.0011112
-0.000406549
-0.00106481
-0.00117602
-0.000738143
0.000271061
0.00193532
0.00439117
0.0078116
0.00318674
-0.000622231
-0.00228644
-0.00308402
-0.00339337
-0.0032174
-0.00250492
-0.00110615
0.00122278
0.00487194
0.000112915
-0.00376782
-0.00552755
-0.00650118
-0.00709241
-0.00729532
-0.0070081
-0.00598667
-0.00384374
0.000240718
-0.00462538
-0.00832933
-0.0101246
-0.0112997
-0.0122511
-0.0129609
-0.0132664
-0.0128124
-0.0110747
-0.00643277
-0.0108634
-0.0141702
-0.015939
-0.0173238
-0.0186912
-0.0200209
-0.0210944
-0.0214318
-0.0204621
-0.0152357
-0.0182847
-0.0210309
-0.0227122
-0.0242857
-0.0260797
-0.028106
-0.0301565
-0.0316918
-0.0325059
-0.0285677
-6.2451e-06
-0.00160832
-0.00329359
-0.00454368
-0.00503381
-0.00461243
-0.0032322
-0.000896738
0.00234928
0.00641014
0.001591
-4.27275e-05
-0.00124027
-0.00195487
-0.00206269
-0.00145354
-7.96605e-05
0.0020756
0.00500276
0.00865539
0.00331546
0.00110482
-0.000100671
-0.000659457
-0.000640885
1.35407e-05
0.00133547
0.00335227
0.00608619
0.00953428
0.00448474
0.0016164
0.000236079
-0.000338136
-0.0003351
0.000259514
0.0014659
0.00333001
0.00591862
0.00928905
0.00454492
0.00115447
-0.000411513
-0.00107551
-0.0011825
-0.000744333
0.000265534
0.00193206
0.00439463
0.00781839
0.00312759
-0.000574352
-0.00229298
-0.00309767
-0.00340284
-0.00322681
-0.00251411
-0.00111355
0.00122874
0.00489084
5.40313e-05
-0.00371865
-0.00553456
-0.00651613
-0.00710381
-0.00730714
-0.00702119
-0.00600236
-0.00383592
0.000288732
-0.00468003
-0.00828216
-0.010131
-0.0113142
-0.012263
-0.012973
-0.01328
-0.0128367
-0.0110516
-0.00626566
-0.0109089
-0.0141275
-0.0159434
-0.017336
-0.0187023
-0.0200329
-0.0211105
-0.0214885
-0.020479
-0.0148606
-0.0183177
-0.020994
-0.022713
-0.0242927
-0.0260871
-0.0281167
-0.0301793
-0.0318326
-0.0328354
-0.0284544
0.0111329
0.0163303
0.021833
0.027513
0.0332855
0.039101
0.0449358
0.0507841
0.0566542
0.0625662
0.0685527
0.0746597
0.0809468
0.0874853
0.0943518
0.101615
0.109314
0.117432
0.125849
0.134327
0.0129369
0.0177094
0.0228432
0.0282305
0.0337884
0.0394593
0.0452067
0.0510123
0.0568723
0.0627962
0.0688054
0.0749326
0.0812204
0.0877183
0.0944766
0.101537
0.108915
0.116579
0.124431
0.132278
0.0136316
0.0182399
0.0232359
0.0285166
0.0339976
0.039617
0.0453329
0.0511208
0.0569707
0.0628851
0.0688776
0.0749715
0.0811983
0.0875958
0.0942039
0.101058
0.108179
0.115553
0.123116
0.130722
0.0134014
0.018054
0.0231009
0.0284303
0.0339527
0.0396043
0.0453431
0.0511439
0.0569948
0.0628942
0.0688491
0.0748742
0.0809915
0.0872296
0.0936236
0.100214
0.10704
0.114131
0.121485
0.12903
0.0122025
0.0171489
0.0224555
0.0279968
0.033679
0.0394442
0.0452587
0.0511042
0.0569714
0.0628575
0.0687641
0.0746972
0.0806675
0.0866929
0.0928027
0.099044
0.105484
0.112213
0.119325
0.126889
0.00998454
0.0155784
0.0213913
0.0273103
0.0332565
0.0391977
0.0451243
0.0510343
0.0569272
0.0628017
0.068655
0.0744831
0.0802832
0.0860584
0.091826
0.0976332
0.103575
0.109809
0.116564
0.124187
0.00687925
0.0136105
0.0201801
0.0265963
0.0328516
0.0389794
0.0450159
0.0509855
0.0569004
0.0627619
0.0685622
0.0742862
0.0799142
0.0854282
0.0908225
0.0961282
0.101456
0.107019
0.113214
0.120897
0.00330312
0.011774
0.0192546
0.026165
0.0326667
0.0389135
0.0450084
0.0510044
0.056924
0.0627685
0.068523
0.074159
0.0796373
0.0849124
0.0899437
0.0947257
0.0993631
0.104083
0.109408
0.117005
0.00130734
0.0117547
0.0195578
0.0264983
0.0329396
0.0391161
0.0451617
0.0511292
0.0570327
0.0628636
0.0685952
0.0741832
0.0795653
0.0846611
0.0893756
0.0936312
0.0974781
0.100935
0.104355
0.110659
0.0058585
0.0170889
0.0227356
0.0282684
0.0339323
0.0396912
0.0455262
0.0514005
0.0572774
0.0631199
0.0688819
0.0744996
0.0798819
0.0848979
0.0893601
0.0930057
0.0954796
0.0964867
0.0952221
0.0967551
0.0111065
0.0163118
0.0218207
0.0275052
0.0332807
0.039098
0.0449337
0.0507824
0.0566523
0.0625638
0.0685496
0.0746557
0.0809417
0.0874793
0.0943454
0.101609
0.109311
0.117433
0.125857
0.134346
0.0129592
0.0177281
0.022858
0.0282418
0.0337969
0.0394657
0.0452118
0.0510167
0.0568766
0.0628007
0.0688104
0.0749381
0.0812261
0.0877234
0.09448
0.101537
0.108909
0.116566
0.124409
0.132247
0.0136344
0.0182446
0.0232412
0.0285216
0.0340019
0.0396205
0.0453356
0.0511228
0.0569723
0.0628864
0.0688787
0.0749724
0.0811989
0.0875961
0.0942035
0.101057
0.108176
0.115549
0.12311
0.130716
0.0134058
0.0180611
0.0231079
0.0284366
0.0339577
0.039608
0.0453457
0.0511458
0.0569961
0.062895
0.0688496
0.0748746
0.0809918
0.0872299
0.0936235
0.100213
0.107038
0.114128
0.121479
0.129024
0.0122144
0.0171623
0.0224663
0.0280053
0.033685
0.0394481
0.0452612
0.0511058
0.0569724
0.0628582
0.0687647
0.0746978
0.0806683
0.0866939
0.0928036
0.0990441
0.105484
0.11221
0.119315
0.126874
0.01001
0.0156002
0.0214049
0.0273194
0.0332619
0.0392005
0.0451257
0.0510349
0.0569274
0.0628018
0.0686551
0.0744833
0.0802838
0.0860593
0.0918271
0.0976338
0.103576
0.109807
0.116546
0.124149
0.00694688
0.0136552
0.0202008
0.0266071
0.0328562
0.0389808
0.0450161
0.0509853
0.0569001
0.0627617
0.0685623
0.0742866
0.079915
0.0854295
0.0908243
0.0961291
0.101455
0.107014
0.113171
0.120793
0.00341798
0.0118208
0.0192642
0.0261686
0.0326663
0.0389116
0.0450066
0.0510029
0.0569228
0.0627675
0.0685221
0.0741583
0.0796369
0.0849128
0.0899452
0.0947261
0.0993616
0.104088
0.10937
0.11684
0.0014508
0.0116911
0.0194865
0.0264678
0.0329238
0.0391065
0.0451557
0.0511246
0.0570283
0.0628586
0.0685892
0.074176
0.0795572
0.0846535
0.0893713
0.0936322
0.0974972
0.101023
0.104475
0.11048
0.00669945
0.0172323
0.022746
0.0282914
0.0339472
0.0396982
0.0455302
0.0514033
0.05728
0.0631227
0.0688853
0.0745039
0.0798872
0.0849037
0.0893645
0.0930032
0.0954702
0.0965179
0.0951604
0.0956902
0.0111065
0.0163118
0.0218207
0.0275052
0.0332807
0.039098
0.0449337
0.0507824
0.0566523
0.0625638
0.0685496
0.0746557
0.0809417
0.0874793
0.0943454
0.101609
0.109311
0.117433
0.125857
0.134346
0.0129593
0.0177281
0.022858
0.0282418
0.0337969
0.0394657
0.0452118
0.0510167
0.0568766
0.0628007
0.0688104
0.0749381
0.0812261
0.0877234
0.09448
0.101537
0.108909
0.116566
0.124409
0.132247
0.0136344
0.0182447
0.0232412
0.0285216
0.0340019
0.0396205
0.0453356
0.0511228
0.0569723
0.0628864
0.0688787
0.0749724
0.0811989
0.0875961
0.0942035
0.101057
0.108176
0.115549
0.12311
0.130716
0.0134058
0.0180611
0.0231079
0.0284366
0.0339577
0.039608
0.0453457
0.0511458
0.0569961
0.062895
0.0688496
0.0748746
0.0809918
0.0872299
0.0936235
0.100213
0.107038
0.114128
0.121479
0.129024
0.0122144
0.0171623
0.0224663
0.0280053
0.033685
0.0394481
0.0452612
0.0511058
0.0569724
0.0628582
0.0687647
0.0746978
0.0806683
0.0866939
0.0928036
0.0990441
0.105484
0.11221
0.119315
0.126874
0.01001
0.0156002
0.0214049
0.0273194
0.0332619
0.0392005
0.0451257
0.0510349
0.0569274
0.0628018
0.0686551
0.0744833
0.0802838
0.0860593
0.0918271
0.0976339
0.103576
0.109807
0.116546
0.124149
0.00694688
0.0136552
0.0202008
0.0266071
0.0328562
0.0389808
0.0450161
0.0509853
0.0569001
0.0627617
0.0685623
0.0742866
0.079915
0.0854295
0.0908243
0.0961291
0.101455
0.107014
0.113171
0.120793
0.00341798
0.0118208
0.0192642
0.0261686
0.0326663
0.0389116
0.0450066
0.0510029
0.0569228
0.0627675
0.0685221
0.0741583
0.0796369
0.0849128
0.0899452
0.0947261
0.0993616
0.104088
0.10937
0.11684
0.0014508
0.0116911
0.0194865
0.0264678
0.0329238
0.0391065
0.0451557
0.0511246
0.0570283
0.0628586
0.0685892
0.074176
0.0795572
0.0846535
0.0893713
0.0936322
0.0974972
0.101023
0.104475
0.11048
0.00669945
0.0172323
0.022746
0.0282914
0.0339472
0.0396982
0.0455302
0.0514033
0.05728
0.0631227
0.0688853
0.0745039
0.0798872
0.0849037
0.0893646
0.0930032
0.0954702
0.0965179
0.0951604
0.0956902
0.0111329
0.0163303
0.021833
0.027513
0.0332855
0.039101
0.0449358
0.0507841
0.0566542
0.0625662
0.0685527
0.0746597
0.0809468
0.0874853
0.0943518
0.101615
0.109314
0.117432
0.125849
0.134327
0.0129369
0.0177094
0.0228432
0.0282305
0.0337884
0.0394593
0.0452067
0.0510123
0.0568723
0.0627962
0.0688054
0.0749326
0.0812204
0.0877183
0.0944766
0.101537
0.108915
0.116579
0.124431
0.132278
0.0136316
0.0182399
0.0232359
0.0285166
0.0339976
0.039617
0.0453329
0.0511208
0.0569707
0.0628851
0.0688776
0.0749715
0.0811983
0.0875958
0.0942039
0.101058
0.108179
0.115553
0.123116
0.130722
0.0134014
0.018054
0.0231009
0.0284303
0.0339527
0.0396043
0.0453431
0.0511439
0.0569948
0.0628942
0.0688491
0.0748742
0.0809915
0.0872296
0.0936236
0.100214
0.10704
0.114131
0.121485
0.12903
0.0122025
0.0171489
0.0224555
0.0279968
0.033679
0.0394442
0.0452587
0.0511042
0.0569714
0.0628575
0.0687641
0.0746972
0.0806675
0.0866929
0.0928027
0.099044
0.105484
0.112213
0.119325
0.126889
0.00998454
0.0155784
0.0213913
0.0273103
0.0332565
0.0391977
0.0451243
0.0510343
0.0569272
0.0628017
0.068655
0.0744831
0.0802832
0.0860584
0.091826
0.0976332
0.103575
0.109809
0.116564
0.124187
0.00687925
0.0136105
0.02018
0.0265963
0.0328516
0.0389794
0.0450159
0.0509855
0.0569004
0.0627619
0.0685622
0.0742862
0.0799142
0.0854282
0.0908225
0.0961282
0.101456
0.107019
0.113214
0.120897
0.00330312
0.011774
0.0192546
0.026165
0.0326667
0.0389135
0.0450084
0.0510044
0.056924
0.0627685
0.068523
0.074159
0.0796373
0.0849124
0.0899437
0.0947257
0.0993631
0.104083
0.109408
0.117005
0.00130733
0.0117547
0.0195578
0.0264983
0.0329396
0.0391161
0.0451617
0.0511292
0.0570327
0.0628636
0.0685952
0.0741832
0.0795653
0.0846611
0.0893756
0.0936312
0.0974781
0.100935
0.104355
0.110659
0.00585849
0.0170889
0.0227356
0.0282684
0.0339323
0.0396912
0.0455262
0.0514005
0.0572774
0.0631199
0.0688819
0.0744996
0.0798819
0.0848979
0.0893601
0.0930057
0.0954796
0.0964867
0.0952221
0.0967551
0.142495
0.149905
0.156137
0.160874
0.163952
0.165373
0.165315
0.164146
0.162421
0.160822
0.13982
0.146688
0.152535
0.157102
0.160249
0.161981
0.162445
0.161934
0.160786
0.159219
0.138102
0.144872
0.150687
0.155286
0.158531
0.160415
0.161065
0.160729
0.159588
0.157533
0.136522
0.143479
0.149503
0.154304
0.157726
0.159751
0.160491
0.160171
0.158875
0.156283
0.134727
0.142112
0.148553
0.153715
0.15742
0.159645
0.160495
0.160191
0.158769
0.155794
0.132697
0.140779
0.147841
0.15351
0.157596
0.160084
0.161092
0.160849
0.159382
0.156218
0.130633
0.139699
0.14753
0.153794
0.158308
0.161095
0.162302
0.162176
0.160761
0.157604
0.128978
0.139317
0.147969
0.154809
0.159707
0.162763
0.164171
0.1642
0.162926
0.159949
0.127974
0.14032
0.149747
0.156971
0.162048
0.165229
0.166766
0.166944
0.165866
0.16321
0.132349
0.145926
0.154521
0.161088
0.165708
0.168656
0.170146
0.170407
0.169538
0.167294
0.142528
0.14995
0.156191
0.160933
0.164011
0.165427
0.165359
0.164177
0.162439
0.160821
0.139783
0.146645
0.152488
0.157053
0.160201
0.161938
0.162408
0.161908
0.160781
0.159197
0.138102
0.144877
0.150693
0.155293
0.158537
0.16042
0.161065
0.160727
0.159606
0.157501
0.136529
0.143491
0.149517
0.154319
0.157739
0.159762
0.160494
0.160172
0.158902
0.156242
0.134734
0.142123
0.148565
0.153726
0.15743
0.159651
0.160494
0.16019
0.158801
0.155748
0.132707
0.140791
0.147853
0.153522
0.157605
0.16009
0.161091
0.160848
0.159417
0.15617
0.130656
0.139715
0.147544
0.153807
0.158317
0.1611
0.1623
0.162174
0.160797
0.157556
0.129119
0.139374
0.147993
0.154825
0.159715
0.162767
0.164168
0.164198
0.162959
0.159903
0.128303
0.140337
0.149724
0.156963
0.162042
0.165225
0.166761
0.166942
0.165896
0.163168
0.132236
0.145551
0.154354
0.16104
0.165689
0.16865
0.170142
0.170405
0.169563
0.167258
0.142528
0.14995
0.156191
0.160933
0.164011
0.165427
0.165359
0.164177
0.162439
0.160821
0.139783
0.146645
0.152488
0.157053
0.160201
0.161938
0.162408
0.161908
0.160781
0.159197
0.138102
0.144877
0.150693
0.155293
0.158537
0.16042
0.161065
0.160727
0.159606
0.157501
0.136529
0.143491
0.149517
0.154319
0.157739
0.159762
0.160494
0.160172
0.158902
0.156242
0.134734
0.142123
0.148565
0.153726
0.15743
0.159651
0.160494
0.16019
0.158801
0.155748
0.132707
0.140791
0.147853
0.153522
0.157605
0.16009
0.161091
0.160848
0.159417
0.15617
0.130656
0.139715
0.147544
0.153807
0.158317
0.1611
0.1623
0.162174
0.160797
0.157556
0.129119
0.139374
0.147993
0.154825
0.159715
0.162767
0.164168
0.164198
0.162959
0.159903
0.128303
0.140337
0.149724
0.156963
0.162042
0.165225
0.166761
0.166942
0.165896
0.163168
0.132236
0.145551
0.154354
0.16104
0.165689
0.16865
0.170142
0.170405
0.169563
0.167258
0.142495
0.149905
0.156137
0.160874
0.163952
0.165373
0.165315
0.164146
0.162421
0.160822
0.13982
0.146688
0.152535
0.157102
0.160249
0.161981
0.162445
0.161934
0.160786
0.159219
0.138102
0.144872
0.150687
0.155286
0.158531
0.160415
0.161065
0.160729
0.159588
0.157533
0.136522
0.143479
0.149503
0.154304
0.157726
0.159751
0.160491
0.160171
0.158875
0.156283
0.134727
0.142112
0.148553
0.153715
0.15742
0.159645
0.160495
0.160191
0.158769
0.155794
0.132697
0.140779
0.147841
0.15351
0.157596
0.160084
0.161092
0.160849
0.159382
0.156218
0.130633
0.139699
0.14753
0.153794
0.158308
0.161095
0.162302
0.162176
0.160761
0.157604
0.128978
0.139317
0.147969
0.154809
0.159707
0.162763
0.164171
0.1642
0.162926
0.159949
0.127974
0.14032
0.149747
0.156971
0.162048
0.165229
0.166766
0.166944
0.165866
0.16321
0.132349
0.145926
0.154521
0.161088
0.165708
0.168656
0.170146
0.170407
0.169538
0.167294
0.166614
0.162062
0.164068
0.167665
0.170798
0.173045
0.174271
0.174524
0.173845
0.172048
0.177783
0.172467
0.172511
0.17438
0.176387
0.177998
0.178939
0.179156
0.178649
0.17729
0.183364
0.180225
0.179961
0.180932
0.182195
0.18331
0.184003
0.184179
0.183822
0.182849
0.188824
0.18712
0.186841
0.187331
0.188109
0.188858
0.189349
0.189486
0.189251
0.188596
0.194411
0.193521
0.193322
0.193576
0.194052
0.194544
0.194882
0.194988
0.194846
0.194443
0.200099
0.199675
0.199566
0.199706
0.199995
0.200308
0.200532
0.20061
0.200538
0.200327
0.205891
0.205737
0.205695
0.20577
0.205932
0.206113
0.206245
0.206294
0.20627
0.206205
0.211775
0.211796
0.211788
0.211809
0.211867
0.211934
0.211979
0.21199
0.211991
0.21204
0.217778
0.217907
0.217904
0.217858
0.217807
0.217753
0.217699
0.217653
0.217656
0.217787
0.223937
0.224128
0.224094
0.22395
0.223761
0.223557
0.223373
0.223241
0.223215
0.223396
0.23032
0.230521
0.230406
0.230115
0.229735
0.229332
0.228971
0.228708
0.228614
0.228803
0.237018
0.237152
0.236888
0.236378
0.235737
0.235065
0.234463
0.234014
0.233798
0.233932
0.244149
0.244092
0.24358
0.242761
0.241769
0.240743
0.239824
0.23912
0.238713
0.238697
0.251856
0.251398
0.250505
0.249266
0.247822
0.246355
0.245041
0.244006
0.243319
0.243015
0.260318
0.259083
0.257637
0.255861
0.253873
0.251892
0.250115
0.248676
0.247605
0.246816
0.269645
0.267113
0.264863
0.262437
0.259852
0.257335
0.255073
0.253181
0.251605
0.250085
0.279894
0.275157
0.271837
0.26873
0.265599
0.262639
0.259968
0.257631
0.255441
0.252869
0.290744
0.282453
0.277857
0.274217
0.270797
0.267694
0.264866
0.262215
0.25934
0.25534
0.302185
0.288018
0.28175
0.277952
0.274835
0.272236
0.269809
0.267197
0.263679
0.257846
0.313165
0.288264
0.280318
0.277767
0.276454
0.275697
0.274753
0.27292
0.269027
0.260991
0.167454
0.162205
0.164183
0.167733
0.170824
0.173057
0.174276
0.174526
0.173867
0.172022
0.177926
0.172404
0.172558
0.174425
0.176409
0.178011
0.178946
0.17916
0.178668
0.177271
0.183374
0.180154
0.17997
0.180953
0.182209
0.183321
0.18401
0.184184
0.183836
0.182836
0.188847
0.18709
0.186845
0.187342
0.188118
0.188866
0.189355
0.189491
0.189261
0.188589
0.194425
0.193507
0.193321
0.19358
0.194057
0.194549
0.194887
0.194992
0.194853
0.194439
0.200105
0.199669
0.199565
0.199707
0.199998
0.200312
0.200535
0.200613
0.200542
0.200325
0.205893
0.205735
0.205694
0.20577
0.205933
0.206115
0.206247
0.206296
0.206271
0.206205
0.211774
0.211797
0.211787
0.211808
0.211867
0.211935
0.21198
0.211991
0.21199
0.212041
0.217776
0.21791
0.217903
0.217858
0.217807
0.217754
0.2177
0.217654
0.217653
0.217789
0.223934
0.224132
0.224093
0.22395
0.223761
0.223557
0.223374
0.223241
0.223211
0.2234
0.230315
0.230526
0.230406
0.230114
0.229735
0.229332
0.228971
0.228708
0.22861
0.228808
0.237013
0.237157
0.236887
0.236377
0.235737
0.235064
0.234463
0.234014
0.233794
0.233937
0.244144
0.244093
0.243578
0.242759
0.241767
0.240742
0.239825
0.239121
0.238711
0.238702
0.251852
0.251393
0.250501
0.249263
0.24782
0.246354
0.245041
0.244007
0.243321
0.243019
0.260317
0.259064
0.257631
0.255857
0.253869
0.25189
0.250115
0.248679
0.247615
0.246817
0.269657
0.267075
0.264855
0.262434
0.259848
0.257333
0.255073
0.253186
0.251627
0.25008
0.279946
0.275087
0.271831
0.268729
0.265594
0.262638
0.259968
0.257639
0.25548
0.252854
0.290809
0.282279
0.277833
0.274215
0.27079
0.267694
0.264868
0.262228
0.259405
0.255311
0.3023
0.287694
0.281756
0.277995
0.274849
0.272249
0.269817
0.267218
0.263778
0.257797
0.314495
0.288373
0.280613
0.27795
0.276522
0.275731
0.274769
0.27295
0.26917
0.260914
0.167454
0.162205
0.164183
0.167733
0.170824
0.173057
0.174276
0.174526
0.173867
0.172022
0.177926
0.172404
0.172558
0.174425
0.176409
0.178011
0.178946
0.17916
0.178668
0.177271
0.183374
0.180154
0.17997
0.180953
0.182209
0.183321
0.18401
0.184184
0.183836
0.182836
0.188847
0.18709
0.186845
0.187342
0.188118
0.188866
0.189355
0.189491
0.189261
0.188589
0.194425
0.193507
0.193321
0.19358
0.194057
0.194549
0.194887
0.194992
0.194853
0.194439
0.200105
0.199669
0.199565
0.199707
0.199998
0.200312
0.200535
0.200613
0.200542
0.200325
0.205893
0.205735
0.205694
0.20577
0.205933
0.206115
0.206247
0.206296
0.206271
0.206205
0.211774
0.211797
0.211787
0.211808
0.211867
0.211935
0.21198
0.211991
0.21199
0.212041
0.217776
0.21791
0.217903
0.217858
0.217807
0.217754
0.2177
0.217654
0.217653
0.217789
0.223934
0.224132
0.224093
0.22395
0.223761
0.223557
0.223374
0.223241
0.223211
0.2234
0.230315
0.230526
0.230406
0.230114
0.229735
0.229332
0.228971
0.228708
0.22861
0.228808
0.237013
0.237157
0.236887
0.236377
0.235737
0.235064
0.234463
0.234014
0.233794
0.233937
0.244144
0.244093
0.243578
0.242759
0.241767
0.240742
0.239825
0.239121
0.238711
0.238702
0.251852
0.251393
0.250501
0.249263
0.24782
0.246354
0.245041
0.244007
0.243321
0.243019
0.260317
0.259064
0.257631
0.255857
0.253869
0.25189
0.250115
0.248679
0.247615
0.246817
0.269657
0.267075
0.264855
0.262434
0.259848
0.257333
0.255073
0.253186
0.251627
0.25008
0.279946
0.275087
0.271831
0.268729
0.265594
0.262638
0.259968
0.257639
0.25548
0.252854
0.290809
0.282279
0.277833
0.274215
0.27079
0.267694
0.264868
0.262228
0.259405
0.255311
0.3023
0.287694
0.281756
0.277995
0.274849
0.272249
0.269817
0.267218
0.263778
0.257797
0.314495
0.288373
0.280613
0.27795
0.276522
0.275731
0.274769
0.27295
0.26917
0.260914
0.166614
0.162062
0.164068
0.167665
0.170798
0.173045
0.174271
0.174524
0.173845
0.172048
0.177783
0.172467
0.172511
0.17438
0.176387
0.177998
0.178939
0.179156
0.178649
0.17729
0.183364
0.180225
0.179961
0.180932
0.182195
0.18331
0.184003
0.184179
0.183822
0.182849
0.188824
0.18712
0.186841
0.187331
0.188109
0.188858
0.189349
0.189486
0.189251
0.188596
0.194411
0.193521
0.193322
0.193576
0.194052
0.194544
0.194882
0.194988
0.194846
0.194443
0.200099
0.199675
0.199566
0.199706
0.199995
0.200308
0.200532
0.20061
0.200538
0.200327
0.205891
0.205737
0.205695
0.20577
0.205932
0.206113
0.206245
0.206294
0.20627
0.206205
0.211775
0.211796
0.211788
0.211809
0.211867
0.211934
0.211979
0.21199
0.211991
0.21204
0.217778
0.217907
0.217904
0.217858
0.217807
0.217753
0.217699
0.217653
0.217656
0.217787
0.223937
0.224128
0.224094
0.22395
0.223761
0.223557
0.223373
0.223241
0.223215
0.223396
0.23032
0.230521
0.230406
0.230115
0.229735
0.229332
0.228971
0.228708
0.228614
0.228803
0.237018
0.237152
0.236888
0.236378
0.235737
0.235065
0.234463
0.234014
0.233798
0.233932
0.244149
0.244092
0.24358
0.242761
0.241769
0.240743
0.239824
0.23912
0.238713
0.238697
0.251856
0.251398
0.250504
0.249266
0.247822
0.246355
0.245041
0.244006
0.243319
0.243015
0.260318
0.259083
0.257637
0.255861
0.253873
0.251892
0.250115
0.248676
0.247605
0.246816
0.269645
0.267113
0.264863
0.262437
0.259852
0.257335
0.255073
0.253181
0.251605
0.250085
0.279894
0.275157
0.271837
0.26873
0.265599
0.262639
0.259968
0.257631
0.255441
0.252869
0.290744
0.282453
0.277857
0.274217
0.270797
0.267694
0.264866
0.262215
0.25934
0.25534
0.302185
0.288018
0.28175
0.277952
0.274835
0.272236
0.269809
0.267197
0.263679
0.257846
0.313165
0.288264
0.280318
0.277767
0.276454
0.275697
0.274753
0.27292
0.269027
0.260991
0.252742
0.261349
0.266572
0.27067
0.274231
0.277478
0.279693
0.279876
0.276237
0.265765
0.223618
0.23942
0.25064
0.26019
0.269275
0.277931
0.285013
0.288854
0.286577
0.27374
0.206138
0.221459
0.234818
0.248322
0.26279
0.277769
0.291425
0.301011
0.301884
0.287373
0.192629
0.206467
0.220666
0.2371
0.256548
0.278383
0.30024
0.318114
0.324853
0.310608
0.182805
0.195466
0.210151
0.228925
0.252939
0.281909
0.31351
0.342737
0.359463
0.349907
0.176914
0.18927
0.204792
0.225895
0.25436
0.290766
0.33371
0.378171
0.411297
0.415377
0.174769
0.187873
0.204991
0.22891
0.262173
0.306647
0.362898
0.427619
0.486854
0.521332
0.17548
0.190067
0.209347
0.2365
0.274982
0.32843
0.400507
0.491293
0.591076
0.694941
0.177422
0.193128
0.213846
0.243047
0.285149
0.346045
0.434044
0.557372
0.726213
1.00607
0.178773
0.193986
0.213517
0.240738
0.28034
0.339674
0.43273
0.58703
0.873395
1.49052
0.253082
0.260887
0.266445
0.27066
0.274229
0.277487
0.279698
0.279909
0.276433
0.265653
0.224037
0.239344
0.250575
0.260156
0.269253
0.277925
0.285005
0.28889
0.28684
0.273587
0.206393
0.221476
0.234786
0.24828
0.26275
0.277742
0.291394
0.301045
0.302224
0.287177
0.192719
0.206451
0.220614
0.237031
0.256474
0.278315
0.300166
0.31813
0.325264
0.310369
0.182831
0.195433
0.210081
0.228828
0.252824
0.281787
0.313371
0.342713
0.359896
0.349653
0.176922
0.189233
0.204712
0.225775
0.254202
0.290566
0.333468
0.378053
0.411651
0.415329
0.174784
0.187851
0.204923
0.228787
0.261976
0.306334
0.362467
0.427284
0.486831
0.521822
0.175524
0.190101
0.209368
0.236501
0.274929
0.328229
0.400129
0.490945
0.589781
0.694623
0.17749
0.19324
0.21403
0.243338
0.28558
0.346605
0.434786
0.557975
0.722982
1.00378
0.178823
0.194025
0.213535
0.240741
0.280353
0.339749
0.433087
0.587464
0.869706
1.49977
0.253082
0.260887
0.266445
0.27066
0.274229
0.277487
0.279698
0.279909
0.276433
0.265653
0.224037
0.239344
0.250575
0.260156
0.269253
0.277925
0.285005
0.28889
0.28684
0.273587
0.206393
0.221476
0.234786
0.24828
0.26275
0.277742
0.291394
0.301045
0.302224
0.287177
0.192719
0.206451
0.220614
0.237031
0.256474
0.278315
0.300166
0.31813
0.325264
0.310369
0.182831
0.195433
0.210081
0.228828
0.252824
0.281787
0.313371
0.342713
0.359896
0.349653
0.176922
0.189233
0.204712
0.225775
0.254202
0.290566
0.333468
0.378053
0.411651
0.415329
0.174784
0.187851
0.204923
0.228787
0.261976
0.306334
0.362467
0.427284
0.486831
0.521822
0.175524
0.190101
0.209368
0.236501
0.274929
0.328229
0.400129
0.490945
0.589781
0.694623
0.17749
0.19324
0.21403
0.243338
0.28558
0.346605
0.434786
0.557975
0.722982
1.00378
0.178823
0.194025
0.213535
0.240741
0.280353
0.339749
0.433087
0.587464
0.869706
1.49977
0.252742
0.261349
0.266572
0.27067
0.274231
0.277478
0.279693
0.279876
0.276237
0.265765
0.223618
0.23942
0.25064
0.26019
0.269275
0.277931
0.285013
0.288854
0.286577
0.27374
0.206138
0.221459
0.234818
0.248322
0.26279
0.277769
0.291425
0.301011
0.301884
0.287373
0.192629
0.206467
0.220666
0.2371
0.256548
0.278383
0.30024
0.318114
0.324853
0.310608
0.182805
0.195466
0.210151
0.228925
0.252939
0.281909
0.31351
0.342737
0.359463
0.349907
0.176914
0.18927
0.204792
0.225895
0.25436
0.290766
0.33371
0.378171
0.411297
0.415377
0.174769
0.187873
0.204991
0.22891
0.262173
0.306647
0.362898
0.427619
0.486854
0.521332
0.17548
0.190067
0.209347
0.2365
0.274982
0.32843
0.400507
0.491293
0.591076
0.694941
0.177422
0.193128
0.213846
0.243047
0.285149
0.346045
0.434044
0.557372
0.726213
1.00607
0.178773
0.193986
0.213517
0.240738
0.28034
0.339674
0.43273
0.58703
0.873395
1.49052
-0.1538
-0.13313
-0.115084
-0.0984407
-0.0818225
-0.0650215
-0.048029
-0.0308802
-0.0136354
0.00363439
0.0208529
0.0379479
0.0548539
0.071522
0.0879791
0.104414
0.121308
0.139704
0.162901
0.200665
-0.139832
-0.126348
-0.111825
-0.0965735
-0.0806419
-0.0642407
-0.0475051
-0.0305319
-0.0134055
0.00379958
0.0210181
0.0381917
0.0552809
0.0722891
0.0892883
0.106485
0.124276
0.143284
0.165017
0.19292
-0.136618
-0.124625
-0.110925
-0.096067
-0.0803711
-0.0641016
-0.0474319
-0.030484
-0.0133518
0.00388985
0.0211803
0.0384705
0.0557273
0.0729442
0.0901598
0.107491
0.12515
0.143431
0.162887
0.18442
-0.137805
-0.125505
-0.111629
-0.0966375
-0.0808386
-0.0644726
-0.047709
-0.0306683
-0.0134384
0.00391396
0.0213358
0.0387819
0.0562121
0.0735908
0.0908907
0.108101
0.125221
0.142251
0.15925
0.176318
-0.140497
-0.127522
-0.113157
-0.0977867
-0.0816957
-0.0651002
-0.0481524
-0.0309571
-0.0135876
0.00390264
0.0214698
0.0390702
0.0566516
0.0741431
0.0914454
0.108434
0.124927
0.140726
0.155659
0.169687
-0.14292
-0.12933
-0.114499
-0.0987675
-0.0824013
-0.0655963
-0.0484865
-0.0311609
-0.0136789
0.00391681
0.021588
0.0392889
0.056953
0.0744759
0.0916978
0.108442
0.124379
0.139252
0.152848
0.165227
-0.143415
-0.129588
-0.114623
-0.098814
-0.0824025
-0.0655698
-0.0484406
-0.0310979
-0.0135972
0.00401987
0.021713
0.0394292
0.0570879
0.0745634
0.0916703
0.108166
0.123745
0.138132
0.151184
0.163121
-0.141107
-0.127638
-0.113058
-0.0975991
-0.081482
-0.0648827
-0.0479316
-0.0307213
-0.0133182
0.00422481
0.0218562
0.0395105
0.0570948
0.0744726
0.0914523
0.107791
0.123218
0.137515
0.150648
0.162976
-0.136006
-0.123672
-0.110068
-0.0954019
-0.0798985
-0.0637586
-0.0471433
-0.0301754
-0.0129477
0.00446569
0.0219978
0.0395677
0.0570733
0.0743765
0.0912933
0.1076
0.123064
0.137523
0.151013
0.163962
-0.127744
-0.117707
-0.105862
-0.0924988
-0.0779319
-0.0624485
-0.0462846
-0.0296228
-0.0126006
0.00467557
0.0221156
0.0396373
0.0571374
0.0744806
0.0914927
0.107961
0.123661
0.138414
0.152212
0.165377
-0.154183
-0.133013
-0.115069
-0.0984631
-0.0818352
-0.065029
-0.0480343
-0.0308835
-0.0136371
0.00363403
0.0208534
0.0379487
0.0548538
0.071519
0.0879694
0.104393
0.121286
0.139655
0.162571
0.200066
-0.139774
-0.126177
-0.111748
-0.0965366
-0.0806155
-0.0642222
-0.0474925
-0.0305234
-0.0133999
0.003803
0.0210204
0.0381946
0.0552862
0.0722999
0.0893075
0.106517
0.124336
0.143355
0.164916
0.192664
-0.136678
-0.124599
-0.110901
-0.0960488
-0.0803562
-0.064091
-0.0474245
-0.0304788
-0.0133482
0.00389225
0.0211818
0.0384714
0.055728
0.0729445
0.0901585
0.107486