/*--------------------------------*- C++ -*----------------------------------*\
| =========                 |                                                 |
| \\      /  F ield         | OpenFOAM: The Open Source CFD Toolbox           |
|  \\    /   O peration     | Version:  2.4.0                                 |
|   \\  /    A nd           | Web:      www.OpenFOAM.org                      |
|    \\/     M anipulation  |                                                 |
\*---------------------------------------------------------------------------*/
FoamFile
{
    version     2.0;
    format      ascii;
    class       surfaceScalarField;
    location    "4.5";
    object      phi;
}
// * * * * * * * * * * * * * * * * * * * * * * * * * * * * * * * * * * * * * //

dimensions      [0 3 -1 0 0 0 0];

internalField   nonuniform List<scalar> 
12720
(
1.55616e-07
-1.55368e-07
3.21345e-10
-5.40066e-07
6.93853e-07
1.8237e-09
-2.06834e-06
1.52566e-06
2.62404e-09
-4.18217e-06
2.11049e-06
3.33955e-09
-6.64502e-06
2.45907e-06
3.77198e-09
-9.26192e-06
2.61294e-06
3.95045e-09
-1.18723e-05
2.60644e-06
3.96066e-09
-1.43371e-05
2.46101e-06
3.80362e-09
-1.65349e-05
2.19429e-06
3.4558e-09
1.83511e-06
2.89045e-09
-1.83729e-05
-7.2537e-07
5.71357e-07
-1.36045e-09
-3.29703e-06
3.26507e-06
4.54759e-10
-7.50421e-06
5.73431e-06
-1.48237e-09
-1.29222e-05
7.53086e-06
-2.37858e-09
-1.91019e-05
8.64156e-06
-2.82838e-09
-2.56234e-05
9.13763e-06
-3.11109e-09
-3.21065e-05
9.0926e-06
-3.12122e-09
-3.82078e-05
8.56527e-06
-2.90244e-09
-4.36317e-05
7.62073e-06
-2.54539e-09
6.36751e-06
-2.196e-09
-4.81619e-05
-1.69442e-06
2.26826e-06
-2.47381e-09
-6.13811e-06
7.70646e-06
2.29124e-09
-1.27352e-05
1.23312e-05
1.20482e-10
-2.08891e-05
1.56849e-05
-8.43542e-11
-3.00123e-05
1.77647e-05
1.24776e-10
-3.95455e-05
1.86707e-05
1.13226e-10
-4.896e-05
1.8507e-05
1.24948e-10
-5.77614e-05
1.73664e-05
1.83464e-10
-6.5514e-05
1.53731e-05
2.52161e-10
1.27509e-05
1.55504e-10
-7.18976e-05
-2.49131e-06
4.7632e-06
-3.63649e-09
-8.52132e-06
1.37333e-05
3.20613e-09
-1.71034e-05
2.09133e-05
-8.45699e-12
-2.74519e-05
2.60336e-05
-2.8243e-10
-3.88645e-05
2.91773e-05
8.64304e-11
-5.06848e-05
3.04909e-05
1.27665e-10
-6.22777e-05
3.00997e-05
1.68746e-10
-7.30265e-05
2.81149e-05
2.75472e-10
-8.23631e-05
2.47092e-05
4.76717e-10
2.02375e-05
4.20403e-10
-8.985e-05
-3.05545e-06
7.82311e-06
-4.46122e-09
-1.02462e-05
2.09203e-05
3.76226e-09
-2.02812e-05
3.09488e-05
-4.31e-10
-3.22158e-05
3.79691e-05
-9.31696e-10
-4.52583e-05
4.22203e-05
-5.64963e-10
-5.86841e-05
4.39171e-05
-5.38953e-10
-7.17802e-05
4.31963e-05
-4.81519e-10
-8.38224e-05
4.01574e-05
-2.83832e-10
-9.40959e-05
3.49824e-05
2.99371e-10
2.81334e-05
5.89292e-10
-0.000101992
-3.36225e-06
1.11902e-05
-4.86792e-09
-1.12057e-05
2.87596e-05
4.16007e-09
-2.20652e-05
4.18088e-05
-5.67973e-10
-3.48972e-05
5.08024e-05
-1.18657e-09
-4.88563e-05
5.61803e-05
-8.24669e-10
-6.3181e-05
5.82426e-05
-8.18937e-10
-7.71103e-05
5.71265e-05
-8.00517e-10
-8.98296e-05
5.28773e-05
-6.44289e-10
-0.000100455
4.56072e-05
5.16749e-10
3.57762e-05
1.64135e-09
-0.000108099
-3.40228e-06
1.45973e-05
-4.7531e-09
-1.13489e-05
3.67019e-05
4.26938e-09
-2.23404e-05
5.28009e-05
-6.09805e-10
-3.53052e-05
6.37685e-05
-1.30061e-09
-4.93844e-05
7.02604e-05
-9.91794e-10
-6.38144e-05
7.26736e-05
-1.02809e-09
-7.78264e-05
7.11396e-05
-1.13808e-09
-9.05553e-05
6.56076e-05
-1.36314e-09
-0.000100951
5.60026e-05
6.78446e-10
4.2508e-05
4.17073e-09
-0.000107687
-3.18198e-06
1.77837e-05
-4.50022e-09
-1.06816e-05
4.41975e-05
4.0955e-09
-2.10912e-05
6.3211e-05
-5.5734e-10
-3.33723e-05
7.60508e-05
-1.26349e-09
-4.66814e-05
8.35706e-05
-1.03343e-09
-6.02779e-05
8.62712e-05
-1.05034e-09
-7.34282e-05
8.42911e-05
-1.18904e-09
-8.52894e-05
7.74709e-05
-2.10707e-09
-9.47328e-05
6.54439e-05
2.00464e-09
4.75739e-05
1.45169e-08
-9.98132e-05
-2.73245e-06
2.05199e-05
-3.75019e-09
-9.28892e-06
5.07503e-05
3.71283e-09
-1.84478e-05
7.23703e-05
-3.86201e-10
-2.92379e-05
8.6842e-05
-1.05795e-09
-4.08302e-05
9.51639e-05
-9.69787e-10
-5.24898e-05
9.79319e-05
-1.04829e-09
-6.35179e-05
9.53205e-05
-1.40598e-09
-7.31469e-05
8.71049e-05
-4.92e-09
-8.03891e-05
7.26876e-05
-1.46638e-09
4.98762e-05
3.25873e-08
-8.2724e-05
-2.11822e-06
-2.72078e-09
2.26409e-05
-7.36072e-06
3.20728e-09
5.59895e-05
-1.4744e-05
-7.11752e-11
7.97536e-05
-2.33683e-05
-6.044e-10
9.5467e-05
-3.23745e-05
-6.39777e-10
0.000104171
-4.09308e-05
-9.34089e-10
0.000106489
-4.82132e-05
-1.97981e-09
0.000102605
-5.33006e-05
-1.22354e-08
9.22044e-05
-5.50806e-05
-2.86256e-08
7.44963e-05
9.8432e-09
-5.23807e-05
4.71665e-05
1.56825e-07
-1.56597e-07
7.97987e-11
-5.40731e-07
6.99336e-07
4.69505e-11
-2.0691e-06
1.53097e-06
2.11505e-11
-4.18231e-06
2.11654e-06
8.35894e-12
-6.64488e-06
2.46634e-06
2.55551e-12
-9.26177e-06
2.62084e-06
-7.30706e-13
-1.18723e-05
2.61448e-06
-7.66144e-13
-1.43373e-05
2.4688e-06
-6.22776e-13
-1.65353e-05
2.20146e-06
-4.36277e-13
1.84112e-06
-6.35292e-13
-1.83735e-05
-7.301e-07
5.72099e-07
4.64995e-11
-3.3027e-06
3.27236e-06
2.9981e-11
-7.50922e-06
5.736e-06
1.54455e-11
-1.29257e-05
7.53059e-06
6.53475e-12
-1.91035e-05
8.64139e-06
2.38889e-12
-2.56236e-05
9.13776e-06
-1.30577e-13
-3.21054e-05
9.09315e-06
-4.52934e-13
-3.82059e-05
8.5664e-06
-5.7673e-13
-4.36294e-05
7.62247e-06
-6.42154e-13
6.36912e-06
-7.78708e-13
-4.81596e-05
-1.69985e-06
2.26945e-06
2.08121e-11
-6.13888e-06
7.71367e-06
1.50148e-11
-1.2736e-05
1.23332e-05
9.01651e-12
-2.08901e-05
1.56846e-05
4.15853e-12
-3.00129e-05
1.77643e-05
3.85185e-13
-3.95456e-05
1.86706e-05
-1.57378e-12
-4.89597e-05
1.85073e-05
-1.16864e-12
-5.77608e-05
1.73677e-05
-8.41142e-13
-6.55137e-05
1.53756e-05
-8.11323e-13
1.27532e-05
-7.79993e-13
-7.18976e-05
-2.49815e-06
4.76396e-06
9.10835e-12
-8.52019e-06
1.37389e-05
6.18164e-12
-1.71022e-05
2.09152e-05
2.73949e-12
-2.74516e-05
2.60337e-05
6.55708e-13
-3.88645e-05
2.91773e-05
-1.04897e-12
-5.06848e-05
3.0491e-05
-1.3354e-12
-6.22776e-05
3.01003e-05
-1.1583e-12
-7.30263e-05
2.81167e-05
-9.43994e-13
-8.23635e-05
2.47133e-05
-8.07299e-13
2.02415e-05
-6.26396e-13
-8.98514e-05
-3.06399e-06
7.82348e-06
3.43097e-12
-1.02448e-05
2.09234e-05
-6.16484e-15
-2.02796e-05
3.09496e-05
-1.33811e-13
-3.22155e-05
3.79687e-05
1.5415e-13
-4.52583e-05
4.22196e-05
-8.01425e-13
-5.86842e-05
4.39163e-05
-7.35015e-13
-7.17802e-05
4.31958e-05
-8.65348e-13
-8.3822e-05
4.01582e-05
-8.07309e-13
-9.40963e-05
3.49879e-05
-6.70115e-13
2.81406e-05
-4.82672e-13
-0.000101995
-3.37166e-06
1.11903e-05
8.54868e-13
-1.12042e-05
2.87601e-05
-1.2299e-13
-2.20635e-05
4.18084e-05
-9.01585e-13
-3.48971e-05
5.08011e-05
-8.07495e-13
-4.88569e-05
5.61785e-05
-6.2278e-13
-6.31819e-05
5.82406e-05
-7.74995e-13
-7.7111e-05
5.71241e-05
-8.60527e-13
-8.98292e-05
5.28758e-05
-7.25713e-13
-0.000100455
4.56144e-05
-5.39323e-13
3.57909e-05
-3.13809e-13
-0.000108104
-3.41173e-06
1.45973e-05
-7.01595e-13
-1.13474e-05
3.67e-05
2.82652e-13
-2.23389e-05
5.27993e-05
-9.48648e-13
-3.53057e-05
6.37666e-05
-1.21065e-12
-4.9386e-05
7.02577e-05
-1.02797e-12
-6.38167e-05
7.26703e-05
-9.87109e-13
-7.78287e-05
7.1135e-05
-7.97845e-13
-9.05555e-05
6.56012e-05
-5.54348e-13
-0.00010095
5.60099e-05
-3.31585e-13
4.25404e-05
-1.16213e-13
-0.000107696
-3.1908e-06
1.77836e-05
-5.95979e-13
-1.06802e-05
4.41935e-05
-9.55249e-13
-2.10902e-05
6.32087e-05
-1.50257e-12
-3.33734e-05
7.60486e-05
-1.08167e-12
-4.66842e-05
8.35675e-05
-9.50974e-13
-6.02821e-05
8.62671e-05
-7.78735e-13
-7.34328e-05
8.42846e-05
-5.34138e-13
-8.52897e-05
7.74559e-05
-3.41e-13
-9.47202e-05
6.54424e-05
-1.68004e-13
4.76569e-05
-9.42584e-15
-9.98221e-05
-2.73988e-06
2.05197e-05
-8.77936e-13
-9.28759e-06
5.0745e-05
-1.11892e-12
-1.8447e-05
7.23677e-05
-6.71169e-13
-2.92397e-05
8.68403e-05
-6.31433e-13
-4.0835e-05
9.51617e-05
-6.15378e-13
-5.24984e-05
9.79295e-05
-4.40733e-13
-6.35324e-05
9.53172e-05
-2.96952e-13
-7.31668e-05
8.70854e-05
-1.46331e-13
-8.03653e-05
7.26395e-05
2.0551e-14
4.99941e-05
4.60743e-14
-8.26699e-05
-2.12363e-06
-5.19994e-13
2.26406e-05
-7.35911e-06
-2.52738e-13
5.59836e-05
-1.47426e-05
-2.61716e-13
7.97511e-05
-2.33692e-05
-3.821e-13
9.54663e-05
-3.23793e-05
-3.27593e-13
0.000104171
-4.09427e-05
-2.15769e-13
0.000106492
-4.82421e-05
-1.13386e-13
0.000102615
-5.33893e-05
7.35866e-14
9.22203e-05
-5.52221e-05
2.55409e-13
7.44437e-05
1.96544e-13
-5.21516e-05
4.69335e-05
1.56785e-07
-1.56637e-07
-6.66701e-11
-5.40749e-07
6.99324e-07
-1.74176e-09
-2.0691e-06
1.53097e-06
-2.59113e-09
-4.1823e-06
2.11654e-06
-3.32742e-09
-6.64488e-06
2.46634e-06
-3.76928e-09
-9.26177e-06
2.62084e-06
-3.95046e-09
-1.18723e-05
2.61448e-06
-3.96135e-09
-1.43373e-05
2.4688e-06
-3.8062e-09
-1.65353e-05
2.20146e-06
-3.45716e-09
1.84112e-06
-2.8908e-09
-1.83735e-05
-7.30112e-07
5.72081e-07
1.44187e-09
-3.3027e-06
3.27235e-06
-4.06071e-10
-7.50922e-06
5.736e-06
1.50415e-09
-1.29257e-05
7.53059e-06
2.38795e-09
-1.91035e-05
8.64139e-06
2.83032e-09
-2.56236e-05
9.13776e-06
3.10938e-09
-3.21054e-05
9.09315e-06
3.12003e-09
-3.82059e-05
8.5664e-06
2.90096e-09
-4.36294e-05
7.62247e-06
2.54427e-09
6.36912e-06
2.19499e-09
-4.81596e-05
-1.69985e-06
2.26945e-06
2.50683e-09
-6.13888e-06
7.71367e-06
-2.26883e-09
-1.2736e-05
1.23332e-05
-1.09538e-10
-2.08901e-05
1.56846e-05
8.86658e-11
-3.00129e-05
1.77643e-05
-1.23949e-10
-3.95456e-05
1.86706e-05
-1.1475e-10
-4.89597e-05
1.85073e-05
-1.25992e-10
-5.77608e-05
1.73677e-05
-1.85105e-10
-6.55137e-05
1.53756e-05
-2.53581e-10
1.27532e-05
-1.56485e-10
-7.18976e-05
-2.49815e-06
4.76396e-06
3.64916e-09
-8.52019e-06
1.37389e-05
-3.19608e-09
-1.71022e-05
2.09152e-05
1.32558e-11
-2.74516e-05
2.60337e-05
2.82281e-10
-3.88645e-05
2.91773e-05
-8.73961e-11
-5.06848e-05
3.0491e-05
-1.29158e-10
-6.22776e-05
3.01003e-05
-1.70255e-10
-7.30263e-05
2.81167e-05
-2.77019e-10
-8.23635e-05
2.47133e-05
-4.7792e-10
2.02415e-05
-4.21265e-10
-8.98514e-05
-3.06399e-06
7.82349e-06
4.46401e-09
-1.02448e-05
2.09234e-05
-3.75879e-09
-2.02796e-05
3.09496e-05
4.31226e-10
-3.22155e-05
3.79687e-05
9.2917e-10
-4.52583e-05
4.22196e-05
5.62942e-10
-5.86842e-05
4.39163e-05
5.37723e-10
-7.17802e-05
4.31958e-05
4.80118e-10
-8.3822e-05
4.01582e-05
2.82553e-10
-9.40963e-05
3.49879e-05
-3.00321e-10
2.81406e-05
-5.89991e-10
-0.000101995
-3.37166e-06
1.11903e-05
4.8672e-09
-1.12042e-05
2.87601e-05
-4.15939e-09
-2.20635e-05
4.18084e-05
5.67947e-10
-3.48971e-05
5.08011e-05
1.18564e-09
-4.88569e-05
5.61785e-05
8.23392e-10
-6.31819e-05
5.82406e-05
8.1743e-10
-7.7111e-05
5.71241e-05
7.98972e-10
-8.98292e-05
5.28758e-05
6.43159e-10
-0.000100455
4.56144e-05
-5.17513e-10
3.57909e-05
-1.64187e-09
-0.000108104
-3.41173e-06
1.45973e-05
4.74686e-09
-1.13474e-05
3.67e-05
-4.27117e-09
-2.23389e-05
5.27993e-05
6.0879e-10
-3.53057e-05
6.37666e-05
1.29912e-09
-4.9386e-05
7.02577e-05
9.90544e-10
-6.38167e-05
7.26703e-05
1.02659e-09
-7.78287e-05
7.1135e-05
1.13677e-09
-9.05555e-05
6.56012e-05
1.3623e-09
-0.00010095
5.60099e-05
-6.78998e-10
4.25404e-05
-4.17102e-09
-0.000107696
-3.1908e-06
1.77836e-05
4.49729e-09
-1.06802e-05
4.41935e-05
-4.09746e-09
-2.10902e-05
6.32087e-05
5.56283e-10
-3.33734e-05
7.60486e-05
1.26306e-09
-4.66842e-05
8.35675e-05
1.0326e-09
-6.02821e-05
8.62671e-05
1.04923e-09
-7.34328e-05
8.42846e-05
1.18819e-09
-8.52897e-05
7.74559e-05
2.10651e-09
-9.47202e-05
6.54424e-05
-2.005e-09
4.76569e-05
-1.45169e-08
-9.98221e-05
-2.73988e-06
2.05197e-05
3.74954e-09
-9.28759e-06
5.0745e-05
-3.71397e-09
-1.8447e-05
7.23677e-05
3.85654e-10
-2.92397e-05
8.68403e-05
1.05736e-09
-4.0835e-05
9.51617e-05
9.68937e-10
-5.24984e-05
9.79295e-05
1.04756e-09
-6.35324e-05
9.53172e-05
1.40544e-09
-7.31668e-05
8.70854e-05
4.91956e-09
-8.03653e-05
7.26395e-05
1.46615e-09
4.99941e-05
-3.25872e-08
-8.26699e-05
-2.12363e-06
2.72018e-09
2.26406e-05
-7.35911e-06
-3.20811e-09
5.59836e-05
-1.47426e-05
7.03886e-11
7.97511e-05
-2.33692e-05
6.0357e-10
9.54663e-05
-3.23793e-05
6.39118e-10
0.000104171
-4.09427e-05
9.33652e-10
0.000106492
-4.82421e-05
1.97944e-09
0.000102615
-5.33893e-05
1.22351e-08
9.22203e-05
-5.52221e-05
2.86254e-08
7.44437e-05
-9.84307e-09
-5.21516e-05
4.69335e-05
1.5546e-07
-1.55524e-07
-5.40104e-07
6.93826e-07
-2.06835e-06
1.52565e-06
-4.18217e-06
2.1105e-06
-6.64501e-06
2.45908e-06
-9.26191e-06
2.61294e-06
-1.18723e-05
2.60644e-06
-1.43371e-05
2.46101e-06
-1.65349e-05
2.19429e-06
1.83511e-06
-1.83729e-05
-7.25399e-07
5.71318e-07
-3.29704e-06
3.26506e-06
-7.5042e-06
5.73432e-06
-1.29222e-05
7.53087e-06
-1.91018e-05
8.64157e-06
-2.56234e-05
9.13764e-06
-3.21065e-05
9.0926e-06
-3.82078e-05
8.56527e-06
-4.36317e-05
7.62073e-06
6.36751e-06
-4.81619e-05
-1.69443e-06
2.26825e-06
-6.13811e-06
7.70647e-06
-1.27352e-05
1.23313e-05
-2.08891e-05
1.56849e-05
-3.00123e-05
1.77647e-05
-3.95455e-05
1.86708e-05
-4.896e-05
1.8507e-05
-5.77614e-05
1.73664e-05
-6.5514e-05
1.53731e-05
1.27509e-05
-7.18976e-05
-2.4913e-06
4.76321e-06
-8.52132e-06
1.37333e-05
-1.71034e-05
2.09134e-05
-2.74518e-05
2.60336e-05
-3.88645e-05
2.91773e-05
-5.06848e-05
3.04909e-05
-6.22777e-05
3.00997e-05
-7.30265e-05
2.81149e-05
-8.23631e-05
2.47092e-05
2.02375e-05
-8.985e-05
-3.05545e-06
7.82312e-06
-1.02462e-05
2.09203e-05
-2.02812e-05
3.09488e-05
-3.22158e-05
3.79691e-05
-4.52583e-05
4.22204e-05
-5.86841e-05
4.39171e-05
-7.17802e-05
4.31963e-05
-8.38224e-05
4.01574e-05
-9.40959e-05
3.49824e-05
2.81334e-05
-0.000101992
-3.36224e-06
1.11902e-05
-1.12057e-05
2.87596e-05
-2.20652e-05
4.18088e-05
-3.48972e-05
5.08024e-05
-4.88563e-05
5.61803e-05
-6.3181e-05
5.82426e-05
-7.71103e-05
5.71265e-05
-8.98296e-05
5.28773e-05
-0.000100455
4.56072e-05
3.57762e-05
-0.000108099
-3.40227e-06
1.45973e-05
-1.13489e-05
3.6702e-05
-2.23404e-05
5.28009e-05
-3.53052e-05
6.37685e-05
-4.93844e-05
7.02604e-05
-6.38143e-05
7.26736e-05
-7.78264e-05
7.11396e-05
-9.05553e-05
6.56076e-05
-0.000100951
5.60026e-05
4.2508e-05
-0.000107687
-3.18198e-06
1.77837e-05
-1.06816e-05
4.41975e-05
-2.10912e-05
6.3211e-05
-3.33723e-05
7.60508e-05
-4.66814e-05
8.35706e-05
-6.02779e-05
8.62712e-05
-7.34282e-05
8.42911e-05
-8.52894e-05
7.74709e-05
-9.47328e-05
6.54439e-05
4.75739e-05
-9.98132e-05
-2.73245e-06
2.05199e-05
-9.28892e-06
5.07503e-05
-1.84478e-05
7.23703e-05
-2.92379e-05
8.6842e-05
-4.08302e-05
9.51639e-05
-5.24898e-05
9.79319e-05
-6.35179e-05
9.53205e-05
-7.31469e-05
8.71049e-05
-8.03891e-05
7.26876e-05
4.98762e-05
-8.2724e-05
-2.11822e-06
2.26409e-05
-7.36072e-06
5.59895e-05
-1.4744e-05
7.97536e-05
-2.33683e-05
9.5467e-05
-3.23745e-05
0.000104171
-4.09308e-05
0.000106489
-4.82132e-05
0.000102605
-5.33006e-05
9.22044e-05
-5.50806e-05
7.44963e-05
-5.23807e-05
4.71665e-05
-1.98094e-05
1.43437e-06
2.17551e-09
-2.08658e-05
1.05481e-06
1.52376e-09
-2.16048e-05
7.37971e-07
1.01077e-09
-2.21037e-05
4.98276e-07
6.39835e-10
-2.2436e-05
3.31934e-07
3.94152e-10
-2.26631e-05
2.26841e-07
2.46273e-10
-2.28329e-05
1.69613e-07
1.69378e-10
-2.2982e-05
1.48998e-07
1.43377e-10
-2.31388e-05
1.56587e-07
1.5461e-10
-2.33249e-05
1.8597e-07
1.94296e-10
-2.35563e-05
2.31126e-07
2.56408e-10
-2.38411e-05
2.84425e-07
3.34415e-10
-2.41759e-05
3.34421e-07
4.185e-10
-2.45401e-05
3.63733e-07
4.92344e-10
-2.48882e-05
3.47549e-07
5.28954e-10
-2.51426e-05
2.53856e-07
4.84796e-10
-2.5191e-05
4.80962e-08
3.05333e-10
-2.48883e-05
-3.02637e-07
-4.32853e-11
-2.40815e-05
-8.06137e-07
-6.56618e-10
-1.43681e-06
-1.58022e-09
-2.26431e-05
-5.17096e-05
4.98403e-06
-1.94271e-09
-5.43349e-05
3.68171e-06
-1.62237e-09
-5.61921e-05
2.5964e-06
-1.28417e-09
-5.74658e-05
1.77301e-06
-9.82379e-10
-5.83301e-05
1.197e-06
-7.36149e-10
-5.893e-05
8.27218e-07
-5.55086e-10
-5.93782e-05
6.18298e-07
-4.38893e-10
-5.97602e-05
5.31374e-07
-3.80117e-10
-6.01394e-05
5.36201e-07
-3.68336e-10
-6.05616e-05
6.08528e-07
-3.91437e-10
-6.10552e-05
7.25096e-07
-4.34416e-10
-6.16278e-05
8.57519e-07
-4.77655e-10
-6.22586e-05
9.65789e-07
-4.94328e-10
-6.28868e-05
9.92369e-07
-4.48891e-10
-6.33976e-05
8.58664e-07
-2.97584e-10
-6.36109e-05
4.67104e-07
5.48107e-12
-6.32769e-05
-2.86411e-07
4.90283e-10
-6.20941e-05
-1.48652e-06
1.14582e-09
-5.97486e-05
-3.15356e-06
1.93119e-09
-5.19279e-06
2.67002e-09
-5.59953e-05
-7.67944e-05
9.88108e-06
-2.38809e-10
-8.03366e-05
7.22432e-06
-4.16869e-10
-8.27903e-05
5.05052e-06
-4.57785e-10
-8.44439e-05
3.42709e-06
-4.35887e-10
-8.55506e-05
2.30408e-06
-3.73107e-10
-8.63095e-05
1.58638e-06
-2.98453e-10
-8.68685e-05
1.1775e-06
-2.30657e-10
-8.73347e-05
9.97767e-07
-1.76997e-10
-8.77846e-05
9.86246e-07
-1.38298e-10
-8.82705e-05
1.09451e-06
-1.12046e-10
-8.88221e-05
1.27678e-06
-9.37667e-11
-8.94429e-05
1.47848e-06
-7.7763e-11
-9.01015e-05
1.62441e-06
-5.72529e-11
-9.07171e-05
1.60799e-06
-2.38743e-11
-9.11429e-05
1.28443e-06
3.35991e-11
-9.11494e-05
4.73449e-07
1.2459e-10
-9.04162e-05
-1.01983e-06
2.43955e-10
-8.85455e-05
-3.35756e-06
3.83865e-10
-8.51111e-05
-6.58857e-06
5.28097e-10
-1.05425e-05
4.49357e-10
-7.97618e-05
-9.53414e-05
1.53729e-05
-3.80787e-10
-9.91061e-05
1.09896e-05
-6.14279e-10
-0.000101576
7.52107e-06
-6.10962e-10
-0.000103158
5.00979e-06
-5.43775e-10
-0.00010417
3.3164e-06
-4.33338e-10
-0.000104837
2.25357e-06
-3.21097e-10
-0.000105311
1.65225e-06
-2.27849e-10
-0.000105696
1.38231e-06
-1.57101e-10
-0.000106059
1.34905e-06
-1.06729e-10
-0.000106444
1.48027e-06
-7.27039e-11
-0.000106877
1.71005e-06
-5.08297e-11
-0.00010736
1.96153e-06
-3.73429e-11
-0.000107865
2.12929e-06
-2.86432e-11
-0.00010832
2.06258e-06
-1.91078e-11
-0.000108588
1.55234e-06
5.43256e-12
-0.000108444
3.29107e-07
6.06786e-11
-0.00010755
-1.9135e-06
1.29722e-10
-0.000105449
-5.45834e-06
2.60055e-10
-0.000101597
-1.04414e-05
5.09667e-10
-1.66638e-05
4.50145e-10
-9.54763e-05
-0.000107302
2.06837e-05
-1.03577e-09
-0.000110555
1.4244e-05
-1.16202e-09
-0.000112443
9.40928e-06
-9.42808e-10
-0.000113507
6.07508e-06
-7.37814e-10
-0.000114107
3.91681e-06
-5.20057e-10
-0.000114457
2.6041e-06
-3.422e-10
-0.000114681
1.87621e-06
-2.18867e-10
-0.000114849
1.55007e-06
-1.39111e-10
-0.000115001
1.50196e-06
-9.10783e-11
-0.000115165
1.6436e-06
-6.54876e-11
-0.000115353
1.89867e-06
-5.58894e-11
-0.000115572
2.18031e-06
-5.80057e-11
-0.000115811
2.36845e-06
-6.87623e-11
-0.000116035
2.28634e-06
-8.18947e-11
-0.00011616
1.67801e-06
-7.28814e-11
-0.000116023
1.91622e-07
-7.20226e-12
-0.000115329
-2.60764e-06
6.23652e-11
-0.0001136
-7.18747e-06
2.56263e-10
-0.000110151
-1.3891e-05
8.97912e-10
-2.26369e-05
1.28921e-09
-0.000104179
-0.000112367
2.49538e-05
-2.20949e-09
-0.000114316
1.61943e-05
-1.88844e-09
-0.000115036
1.01306e-05
-1.18547e-09
-0.000115201
6.24092e-06
-7.94296e-10
-0.000115154
3.86998e-06
-4.67747e-10
-0.000115044
2.49443e-06
-2.46932e-10
-0.000114925
1.75749e-06
-1.22424e-10
-0.00011481
1.43489e-06
-5.63424e-11
-0.000114696
1.38869e-06
-2.40613e-11
-0.000114582
1.52885e-06
-1.16655e-11
-0.000114466
1.78323e-06
-1.23443e-11
-0.000114358
2.07227e-06
-2.37132e-11
-0.000114273
2.28373e-06
-4.59849e-11
-0.000114231
2.24446e-06
-7.82419e-11
-0.00011424
1.68658e-06
-9.75066e-11
-0.000114255
2.07292e-07
-5.8973e-11
-0.00011411
-2.75345e-06
-3.21351e-11
-0.000113386
-7.91139e-06
1.41238e-10
-0.00011127
-1.60079e-05
1.5462e-09
-2.74157e-05
3.27637e-09
-0.000106495
-0.000109858
2.71308e-05
-5.87545e-09
-0.000109647
1.59869e-05
-3.88562e-09
-0.00010871
9.19574e-06
-1.79912e-09
-0.000107754
5.28546e-06
-9.38116e-10
-0.000106985
3.10097e-06
-3.98914e-10
-0.000106408
1.91757e-06
-1.23475e-10
-0.000105966
1.31609e-06
-1.51746e-11
-0.000105597
1.06549e-06
2.03844e-11
-0.000105247
1.03919e-06
2.48038e-11
-0.000104882
1.1634e-06
1.49477e-11
-0.000104484
1.38485e-06
-3.51196e-12
-0.000104058
1.64721e-06
-3.00648e-11
-0.000103643
1.86854e-06
-6.60698e-11
-0.000103312
1.91352e-06
-1.14832e-10
-0.000103178
1.55306e-06
-1.51809e-10
-0.000103372
4.0092e-07
-7.73923e-11
-0.000103956
-2.16972e-06
9.32278e-11
-0.000104743
-7.12432e-06
4.6738e-10
-0.000104934
-1.58215e-05
3.74053e-09
-2.97526e-05
9.00472e-09
-0.000102606
-9.8407e-05
2.57346e-05
-9.97818e-09
-9.52304e-05
1.28143e-05
-4.06216e-09
-9.24631e-05
6.4293e-06
-8.27515e-10
-9.04971e-05
3.31977e-06
-3.13608e-10
-8.91917e-05
1.79558e-06
4.09828e-11
-8.83252e-05
1.05088e-06
1.65734e-10
-8.77117e-05
7.0237e-07
1.56894e-10
-8.72169e-05
5.70605e-07
1.29169e-10
-8.67487e-05
5.70884e-07
1.0718e-10
-8.62461e-05
6.6072e-07
9.18134e-11
-8.56751e-05
8.13744e-07
7.92253e-11
-8.50318e-05
1.00389e-06
6.33397e-11
-8.43546e-05
1.19122e-06
3.47214e-11
-8.37438e-05
1.3028e-06
-3.29737e-11
-8.33896e-05
1.19896e-06
-1.31843e-10
-8.35937e-05
6.05034e-07
-4.23801e-11
-8.47333e-05
-1.03015e-06
1.24983e-10
-8.71243e-05
-4.73287e-06
-4.63955e-10
-9.04334e-05
-1.25157e-05
3.30459e-09
-2.80025e-05
1.43817e-08
-9.21979e-05
-7.51505e-05
1.81735e-05
-1.24633e-08
-6.88257e-05
6.484e-06
5.5248e-09
-6.49308e-05
2.5282e-06
6.19245e-09
-6.26855e-05
1.07183e-06
2.64966e-09
-6.1391e-05
4.99635e-07
1.373e-09
-6.06091e-05
2.68146e-07
8.34574e-10
-6.00842e-05
1.76925e-07
5.26123e-10
-5.96653e-05
1.51335e-07
3.997e-10
-5.92585e-05
1.63691e-07
3.84688e-10
-5.88017e-05
2.03507e-07
4.3304e-10
-5.82547e-05
2.66266e-07
5.19518e-10
-5.75998e-05
3.48317e-07
6.2225e-10
-5.68523e-05
4.4299e-07
7.02978e-10
-5.60847e-05
5.34528e-07
6.63441e-10
-5.54706e-05
5.84475e-07
3.78117e-10
-5.53691e-05
5.03617e-07
-8.72218e-11
-5.63648e-05
-3.27448e-08
-1.6645e-09
-5.95025e-05
-1.58747e-06
-7.69671e-09
-6.58771e-05
-6.13068e-06
-1.04585e-08
-1.94133e-05
1.55296e-08
-7.44817e-05
-3.4138e-05
-6.92049e-08
-2.76422e-05
-1.18033e-08
-2.51131e-05
-8.62833e-10
-2.40394e-05
-1.89579e-09
-2.35385e-05
-1.23283e-09
-2.32698e-05
-5.80568e-10
-2.30925e-05
-3.29508e-10
-2.2941e-05
-2.34325e-10
-2.27771e-05
-2.08181e-10
-2.25733e-05
-2.29192e-10
-2.23068e-05
-2.83575e-10
-2.19581e-05
-3.5783e-10
-2.15147e-05
-4.32787e-10
-2.09797e-05
-4.74705e-10
-2.03949e-05
-3.67034e-10
-1.98914e-05
2.06984e-10
-1.9925e-05
7.71925e-10
-2.15099e-05
-2.56419e-09
-2.76456e-05
5.07772e-09
8.7632e-08
-4.71466e-05
-1.981e-05
1.43871e-06
-6.30292e-13
-2.08663e-05
1.05775e-06
-2.91601e-13
-2.16051e-05
7.39868e-07
-6.33926e-14
-2.21039e-05
4.99441e-07
-5.67807e-14
-2.24362e-05
3.32633e-07
-5.41807e-14
-2.26632e-05
2.27278e-07
-4.05953e-14
-2.2833e-05
1.69929e-07
-3.09892e-14
-2.29821e-05
1.49292e-07
-3.26077e-14
-2.31389e-05
1.56929e-07
-5.79164e-15
-2.33251e-05
1.86409e-07
-1.85558e-14
-2.35565e-05
2.31698e-07
-1.99594e-14
-2.38414e-05
2.85146e-07
1.13113e-15
-2.41762e-05
3.35286e-07
1.08811e-14
-2.45404e-05
3.64695e-07
-1.47515e-14
-2.48884e-05
3.48518e-07
-4.32754e-14
-2.51426e-05
2.54691e-07
-4.73074e-14
-2.51907e-05
4.83492e-08
-3.87964e-14
-2.48879e-05
-3.02851e-07
-1.90637e-14
-2.40811e-05
-8.07451e-07
3.54058e-15
-1.43985e-06
2.9895e-14
-2.26428e-05
-5.17072e-05
4.98431e-06
-6.25562e-13
-5.43324e-05
3.68138e-06
-2.69085e-13
-5.61898e-05
2.59596e-06
-6.62754e-14
-5.74639e-05
1.77261e-06
-2.26372e-14
-5.83287e-05
1.19671e-06
-2.83531e-14
-5.8929e-05
8.27024e-07
-4.72084e-14
-5.93777e-05
6.18177e-07
-2.09401e-14
-5.97601e-05
5.3129e-07
-1.96936e-14
-6.01397e-05
5.36116e-07
-2.25874e-14
-6.05621e-05
6.08403e-07
-4.33145e-14
-6.10557e-05
7.24893e-07
-3.61337e-14
-6.16282e-05
8.572e-07
-2.76996e-14
-6.22588e-05
9.6533e-07
-2.64408e-14
-6.28863e-05
9.91779e-07
-4.32074e-14
-6.33961e-05
8.58024e-07
-5.2558e-14
-6.3608e-05
4.66587e-07
-5.99861e-14
-6.32726e-05
-2.86562e-07
-4.41397e-14
-6.20885e-05
-1.48575e-06
-1.11115e-14
-5.97425e-05
-3.15156e-06
3.21374e-14
-5.19024e-06
6.74245e-14
-5.59894e-05
-7.67937e-05
9.88019e-06
-5.09834e-13
-8.03352e-05
7.22247e-06
-1.53177e-13
-8.27886e-05
5.04888e-06
3.11368e-15
-8.44423e-05
3.42587e-06
-3.85076e-15
-8.55493e-05
2.30329e-06
1.96183e-15
-8.63085e-05
1.58593e-06
-6.63963e-15
-8.68678e-05
1.17727e-06
4.28682e-16
-8.73343e-05
9.97645e-07
-2.01093e-14
-8.77845e-05
9.86147e-07
-4.4302e-14
-8.82706e-05
1.09436e-06
-5.41552e-14
-8.88223e-05
1.2765e-06
-5.30284e-14
-8.94432e-05
1.478e-06
-3.47401e-14
-9.01016e-05
1.62368e-06
-3.47521e-14
-9.07168e-05
1.60701e-06
-5.2942e-14
-9.11421e-05
1.28329e-06
-7.49809e-14
-9.11478e-05
4.72412e-07
-8.2597e-14
-9.04137e-05
-1.02034e-06
-5.83709e-14
-8.85424e-05
-3.35671e-06
-9.42811e-15
-8.5108e-05
-6.58546e-06
4.41529e-14
-1.05384e-05
8.28969e-14
-7.97594e-05
-9.53412e-05
1.53696e-05
-3.27767e-13
-9.91046e-05
1.09852e-05
-5.34257e-14
-0.000101574
7.51774e-06
3.31475e-14
-0.000103156
5.00754e-06
5.07572e-16
-0.000104168
3.31507e-06
7.68751e-15
-0.000104836
2.25288e-06
-1.18583e-14
-0.000105311
1.65194e-06
-1.68991e-14
-0.000105695
1.38219e-06
-3.73563e-14
-0.000106058
1.34899e-06
-4.97435e-14
-0.000106444
1.48017e-06
-5.34283e-14
-0.000106878
1.70982e-06
-4.74858e-14
-0.000107361
1.96106e-06
-2.96322e-14
-0.000107866
2.12851e-06
-3.27876e-14
-0.00010832
2.06141e-06
-6.02405e-14
-0.000108588
1.55087e-06
-9.56281e-14
-0.000108443
3.27729e-07
-1.00543e-13
-0.000107548
-1.91451e-06
-6.26265e-14
-0.000105447
-5.45762e-06
1.43868e-15
-0.000101595
-1.0437e-05
5.78564e-14
-1.66576e-05
9.55192e-14
-9.54756e-05
-0.000107301
2.0675e-05
-2.12053e-13
-0.000110552
1.42352e-05
2.05615e-14
-0.000112439
9.40385e-06
7.36677e-14
-0.000113504
6.07187e-06
3.32966e-14
-0.000114105
3.91513e-06
-2.43851e-14
-0.000114456
2.60335e-06
-2.89094e-14
-0.00011468
1.87594e-06
-2.26548e-14
-0.000114848
1.55001e-06
-3.12195e-14
-0.000115001
1.50196e-06
-4.13855e-14
-0.000115165
1.64355e-06
-3.7686e-14
-0.000115353
1.89846e-06
-2.39001e-14
-0.000115572
2.17985e-06
-1.79424e-14
-0.000115811
2.36761e-06
-4.32767e-14
-0.000116035
2.285e-06
-8.99766e-14
-0.00011616
1.67618e-06
-1.22209e-13
-0.000116023
1.89949e-07
-1.12522e-13
-0.000115328
-2.60947e-06
-6.05191e-14
-0.000113598
-7.1873e-06
6.44333e-15
-0.000110149
-1.38843e-05
7.75356e-14
-2.26258e-05
9.93969e-14
-0.00010418
-0.000112365
2.49335e-05
-6.35891e-14
-0.00011431
1.61789e-05
7.97848e-14
-0.000115031
1.01236e-05
3.50803e-14
-0.000115198
6.23764e-06
1.96813e-14
-0.000115152
3.86863e-06
-2.32395e-14
-0.000115043
2.49404e-06
-2.05758e-15
-0.000114924
1.75748e-06
-2.8202e-14
-0.000114809
1.43499e-06
-5.94353e-14
-0.000114696
1.38879e-06
-5.2947e-14
-0.000114581
1.52887e-06
-3.00333e-14
-0.000114466
1.7831e-06
-1.45867e-14
-0.000114358
2.07187e-06
-2.99254e-14
-0.000114274
2.28294e-06
-6.91505e-14
-0.000114232
2.24309e-06
-1.22907e-13
-0.00011424
1.68451e-06
-1.44824e-13
-0.000114255
2.05244e-07
-1.25314e-13
-0.000114109
-2.75648e-06
-6.58756e-14
-0.000113383
-7.91276e-06
7.03534e-15
-0.000111268
-1.59978e-05
5.67628e-14
-2.73926e-05
6.68745e-14
-0.000106498
-0.000109851
2.70828e-05
7.38746e-14
-0.000109637
1.59609e-05
1.48721e-13
-0.000108704
9.18876e-06
3.82345e-14
-0.000107751
5.28353e-06
-8.57969e-15
-0.000106983
3.10069e-06
-6.07151e-14
-0.000106407
1.91784e-06
-1.95499e-14
-0.000105966
1.31641e-06
-3.13959e-14
-0.000105597
1.06573e-06
-5.2099e-14
-0.000105247
1.03933e-06
-4.28703e-14
-0.000104882
1.16343e-06
-2.1181e-14
-0.000104483
1.38472e-06
-1.78856e-14
-0.000104058
1.64684e-06
-4.55156e-14
-0.000103643
1.86779e-06
-9.82413e-14
-0.000103312
1.91215e-06
-1.45238e-13
-0.000103179
1.55084e-06
-1.56294e-13
-0.000103372
3.98244e-07
-1.26984e-13
-0.000103955
-2.17385e-06
-6.04771e-14
-0.000104739
-7.12751e-06
1.56963e-14
-0.000104929
-1.58041e-05
5.44451e-14
-2.96976e-05
5.63806e-14
-0.000102615
-9.83926e-05
2.56434e-05
1.16861e-13
-9.522e-05
1.27842e-05
1.06719e-13
-9.24597e-05
6.4277e-06
3.39111e-14
-9.0497e-05
3.32046e-06
1.67287e-14
-8.91925e-05
1.79621e-06
-3.79161e-14
-8.83259e-05
1.05143e-06
-4.19998e-14
-8.7712e-05
7.0272e-07
-6.30625e-14
-8.7217e-05
5.70796e-07
-6.30924e-14
-8.67485e-05
5.70977e-07
-4.3483e-14
-8.62457e-05
6.60738e-07
-2.25976e-14
-8.56746e-05
8.13682e-07
-3.57666e-14
-8.50314e-05
1.00371e-06
-8.23041e-14
-8.43544e-05
1.19084e-06
-1.31296e-13
-8.37443e-05
1.30203e-06
-1.63936e-13
-8.33911e-05
1.19748e-06
-1.68629e-13
-8.35957e-05
6.02813e-07
-1.32052e-13
-8.47371e-05
-1.03234e-06
-7.16559e-14
-8.71272e-05
-4.73793e-06
1.56064e-14
-9.04313e-05
-1.24967e-05
7.24383e-14
-2.79007e-05
7.12984e-14
-9.22138e-05
-7.51319e-05
1.80929e-05
4.63373e-14
-6.88334e-05
6.49122e-06
-9.20543e-14
-6.49397e-05
2.54018e-06
-5.88461e-14
-6.26921e-05
1.07548e-06
2.3026e-15
-6.13948e-05
5.00354e-07
-4.22791e-14
-6.0611e-05
2.68391e-07
-7.41362e-14
-6.00849e-05
1.77128e-07
-7.88774e-14
-5.96652e-05
1.51588e-07
-5.52645e-14
-5.92579e-05
1.6405e-07
-3.09534e-14
-5.88008e-05
2.04027e-07
-3.16057e-14
-5.82536e-05
2.67011e-07
-6.53558e-14
-5.75986e-05
3.49366e-07
-1.18938e-13
-5.68515e-05
4.44436e-07
-1.68043e-13
-5.60853e-05
5.36489e-07
-1.95548e-13
-5.54744e-05
5.86906e-07
-2.00874e-13
-5.53755e-05
5.03863e-07
-1.67311e-13
-5.638e-05
-2.9483e-08
-9.15042e-14
-5.95292e-05
-1.5965e-06
3.15553e-14
-6.58932e-05
-6.14305e-06
9.71553e-14
-1.93492e-05
1.01439e-13
-7.44292e-05
-3.41279e-05
3.00846e-13
-2.76485e-05
1.0489e-13
-2.51092e-05
-5.20604e-14
-2.40356e-05
-2.3635e-14
-2.35365e-05
-3.95237e-14
-2.32687e-05
-8.34162e-14
-2.30919e-05
-8.99556e-14
-2.29405e-05
-6.73257e-14
-2.27767e-05
-4.96372e-14
-2.25729e-05
-5.91504e-14
-2.23062e-05
-9.61779e-14
-2.19572e-05
-1.476e-13
-2.15132e-05
-1.96522e-13
-2.09771e-05
-2.26688e-13
-2.03906e-05
-2.28139e-13
-1.98865e-05
-1.8235e-13
-1.99152e-05
-7.83226e-14
-2.15143e-05
5.33669e-14
-2.76523e-05
6.41687e-14
2.2196e-14
-4.69139e-05
-1.981e-05
1.43871e-06
-2.17614e-09
-2.08663e-05
1.05775e-06
-1.52426e-09
-2.16051e-05
7.39868e-07
-1.01082e-09
-2.21039e-05
4.99441e-07
-6.39775e-10
-2.24362e-05
3.32633e-07
-3.94127e-10
-2.26632e-05
2.27278e-07
-2.46186e-10
-2.2833e-05
1.69929e-07
-1.69305e-10
-2.29821e-05
1.49292e-07
-1.43328e-10
-2.31389e-05
1.56929e-07
-1.54568e-10
-2.33251e-05
1.86409e-07
-1.94329e-10
-2.35565e-05
2.31698e-07
-2.56389e-10
-2.38414e-05
2.85146e-07
-3.34359e-10
-2.41762e-05
3.35286e-07
-4.18444e-10
-2.45404e-05
3.64695e-07
-4.92318e-10
-2.48884e-05
3.48518e-07
-5.29014e-10
-2.51426e-05
2.54691e-07
-4.84937e-10
-2.51907e-05
4.83492e-08
-3.05508e-10
-2.48879e-05
-3.02851e-07
4.31196e-11
-2.40811e-05
-8.07451e-07
6.56485e-10
-1.43984e-06
1.58015e-09
-2.26428e-05
-5.17072e-05
4.98431e-06
1.94196e-09
-5.43324e-05
3.68138e-06
1.62207e-09
-5.61898e-05
2.59596e-06
1.28412e-09
-5.74639e-05
1.77261e-06
9.82375e-10
-5.83287e-05
1.19671e-06
7.3618e-10