/*--------------------------------*- C++ -*----------------------------------*\
| =========                 |                                                 |
| \\      /  F ield         | OpenFOAM: The Open Source CFD Toolbox           |
|  \\    /   O peration     | Version:  2.4.0                                 |
|   \\  /    A nd           | Web:      www.OpenFOAM.org                      |
|    \\/     M anipulation  |                                                 |
\*---------------------------------------------------------------------------*/
FoamFile
{
    version     2.0;
    format      ascii;
    class       volVectorField;
    location    "4.5";
    object      U;
}
// * * * * * * * * * * * * * * * * * * * * * * * * * * * * * * * * * * * * * //

dimensions      [0 1 -1 0 0 0 0];

internalField   nonuniform List<vector> 
4800
(
(0.000307503 -0.000310625 5.38532e-07)
(1.92726e-05 0.00015685 0.00021863)
(-0.00184416 0.000665345 0.000447146)
(-0.00484079 0.00100916 0.000616718)
(-0.00857359 0.00120434 0.000683332)
(-0.0127003 0.00128865 0.000626546)
(-0.016937 0.00128973 0.000440038)
(-0.0210451 0.00122149 0.000124309)
(-0.0248139 0.00109131 -0.00031463)
(-0.028066 0.000911304 -0.000863861)
(-0.000182232 -2.0009e-05 -0.000216324)
(-0.00248534 0.00239517 6.34929e-06)
(-0.00807685 0.00475189 0.000175901)
(-0.0159675 0.0064519 0.000277284)
(-0.0254111 0.00748895 0.000292337)
(-0.0357268 0.00795607 0.000205092)
(-0.0462724 0.00794009 8.81595e-06)
(-0.056466 0.00750139 -0.000298898)
(-0.0657875 0.00669579 -0.00071677)
(-0.0738099 0.00561331 -0.00123829)
(-0.000779949 0.0019729 -0.000450155)
(-0.00522472 0.00810683 -0.000156011)
(-0.0143286 0.0135703 1.44468e-05)
(-0.0264066 0.0175677 9.41238e-05)
(-0.0404531 0.0200568 9.16548e-05)
(-0.0555942 0.0211678 -1.83667e-06)
(-0.0709584 0.0210441 -0.000190675)
(-0.0857193 0.0198092 -0.000478741)
(-0.0991164 0.0176114 -0.000869245)
(-0.110512 0.0147026 -0.00136191)
(-0.00125991 0.00539736 -0.000609068)
(-0.00751291 0.0166375 -0.000228305)
(-0.0195874 0.0259349 -3.37462e-05)
(-0.0350864 0.032645 4.80712e-05)
(-0.0527631 0.0367995 4.79453e-05)
(-0.0716085 0.0385857 -3.69642e-05)
(-0.0905943 0.0381897 -0.000209271)
(-0.108711 0.0357826 -0.000475485)
(-0.124988 0.0316089 -0.000845122)
(-0.138564 0.0261256 -0.00132666)
(-0.00158939 0.00992086 -0.000617853)
(-0.00915048 0.027382 -0.000161838)
(-0.0234106 0.04105 5.84322e-05)
(-0.0414033 0.0507189 0.000152881)
(-0.0616844 0.0566227 0.000168468)
(-0.0831489 0.0590421 0.000105893)
(-0.104661 0.0581914 -3.83259e-05)
(-0.12507 0.054253 -0.000276239)
(-0.143203 0.0475319 -0.000627556)
(-0.157904 0.0386921 -0.00111643)
(-0.00176199 0.0151503 -0.000426645)
(-0.0100479 0.0395999 8.54692e-05)
(-0.025548 0.0580177 0.000327102)
(-0.0449574 0.0708102 0.000441551)
(-0.0667092 0.0785093 0.000485445)
(-0.0896449 0.0815225 0.000460303)
(-0.112572 0.0800739 0.000358505)
(-0.134244 0.0742995 0.000158552)
(-0.153305 0.0644759 -0.000175107)
(-0.168179 0.051389 -0.000697341)
(-0.00177774 0.0206591 -1.12771e-05)
(-0.0101686 0.0524316 0.000534748)
(-0.0258726 0.0757691 0.000790153)
(-0.0455069 0.0917532 0.000929811)
(-0.0674674 0.101262 0.00101402)
(-0.0905888 0.104851 0.00104304)
(-0.113678 0.102737 0.00100209)
(-0.13547 0.0949334 0.000856361)
(-0.154509 0.0815302 0.000548548)
(-0.168662 0.0631641 -3.78174e-05)
(-0.00164356 0.0260179 0.000628748)
(-0.00952822 0.0649803 0.00118654)
(-0.0243863 0.0931589 0.00144683)
(-0.0429984 0.112267 0.00161528)
(-0.0637939 0.123527 0.00175101)
(-0.0856277 0.127657 0.00185242)
(-0.107349 0.124865 0.00189617)
(-0.127769 0.114979 0.00183208)
(-0.14557 0.0976931 0.00158045)
(-0.158019 0.0728834 0.000907031)
(-0.00137981 0.0308246 0.0014711)
(-0.0082162 0.0763866 0.00202127)
(-0.0212684 0.109052 0.00227732)
(-0.0376656 0.131023 0.00247571)
(-0.055898 0.143815 0.00267097)
(-0.0748128 0.148318 0.00286099)
(-0.0932662 0.144783 0.00301464)
(-0.110163 0.132897 0.00306574)
(-0.124706 0.111906 0.00292437)
(-0.134003 0.0800839 0.00214974)
(-0.00102626 0.0347518 0.00247314)
(-0.00641937 0.0859279 0.00300178)
(-0.0169347 0.122447 0.00324465)
(-0.0301579 0.146771 0.00346988)
(-0.0446156 0.160586 0.0037262)
(-0.0590333 0.164915 0.00401591)
(-0.0720554 0.160101 0.0043097)
(-0.0822872 0.145825 0.00453746)
(-0.0894381 0.121203 0.00466724)
(-0.0924993 0.0835295 0.004073)
(0.000312408 -0.000315235 2.89222e-07)
(2.63134e-05 0.000150952 1.4554e-06)
(-0.00184044 0.000651341 2.06034e-06)
(-0.00483817 0.000989396 2.60815e-06)
(-0.0085721 0.00118139 2.94048e-06)
(-0.0126998 0.00126416 3.07688e-06)
(-0.0169372 0.00126518 3.08474e-06)
(-0.0210462 0.00119824 2.96246e-06)
(-0.0248161 0.00107049 2.69161e-06)
(-0.0280694 0.000893546 2.25103e-06)
(-0.000174848 -2.74457e-05 -1.0252e-06)
(-0.00248231 0.00239316 3.76639e-07)
(-0.00808441 0.00474065 -1.14054e-06)
(-0.0159722 0.00643551 -1.84449e-06)
(-0.0254135 0.00747073 -2.19758e-06)
(-0.0357275 0.007937 -2.41951e-06)
(-0.0462715 0.00792115 -2.42774e-06)
(-0.0564639 0.00748363 -2.25778e-06)
(-0.0657855 0.00668009 -1.98018e-06)
(-0.0738087 0.00559973 -1.70854e-06)
(-0.000763904 0.00196727 -1.9107e-06)
(-0.00521343 0.0081134 1.79431e-06)
(-0.0143356 0.0135734 1.01206e-07)
(-0.0264088 0.0175709 -6.18703e-08)
(-0.0404532 0.0200619 9.77395e-08)
(-0.055594 0.0211741 8.70676e-08)
(-0.0709576 0.0210508 9.64347e-08)
(-0.0857181 0.019816 1.42169e-07)
(-0.0991163 0.0176184 1.95561e-07)
(-0.110514 0.0147083 1.20346e-07)
(-0.00123687 0.00539244 -2.82517e-06)
(-0.00749651 0.0166416 2.49897e-06)
(-0.0195966 0.025934 -3.87536e-09)
(-0.0350884 0.0326423 -2.18716e-07)
(-0.0527622 0.0367973 6.66853e-08)
(-0.0716077 0.0385839 9.84349e-08)
(-0.090593 0.0381883 1.30497e-07)
(-0.108709 0.0357823 2.13599e-07)
(-0.124988 0.0316107 3.70191e-07)
(-0.138568 0.0261277 3.26519e-07)
(-0.00156174 0.0099177 -3.472e-06)
(-0.00913184 0.0273843 2.92661e-06)
(-0.0234233 0.041048 -3.34925e-07)
(-0.0414064 0.0507147 -7.24168e-07)
(-0.0616835 0.0566181 -4.39808e-07)
(-0.0831478 0.0590375 -4.19589e-07)
(-0.104659 0.0581868 -3.75083e-07)
(-0.125066 0.0542498 -2.2133e-07)
(-0.1432 0.0475332 2.32366e-07)
(-0.157911 0.0386956 4.57983e-07)
(-0.00173176 0.0151493 -3.79091e-06)
(-0.0100282 0.0396013 3.23583e-06)
(-0.025563 0.0580166 -4.42188e-07)
(-0.0449616 0.0708077 -9.23274e-07)
(-0.0667086 0.0785062 -6.41716e-07)
(-0.089644 0.0815189 -6.37444e-07)
(-0.112569 0.0800698 -6.23238e-07)
(-0.134237 0.0742959 -5.01641e-07)
(-0.153298 0.0644805 4.01508e-07)
(-0.168194 0.0514011 1.27636e-06)
(-0.00174713 0.0206604 -3.77725e-06)
(-0.0101491 0.0524319 3.32101e-06)
(-0.0258887 0.075769 -4.74876e-07)
(-0.0455119 0.0917525 -1.0124e-06)
(-0.0674676 0.10126 -7.7209e-07)
(-0.0905887 0.104849 -8.00347e-07)
(-0.113676 0.102733 -8.85754e-07)
(-0.135457 0.0949287 -1.06064e-06)
(-0.154491 0.081541 5.27401e-07)
(-0.168691 0.0632027 3.2438e-06)
(-0.00161486 0.0260213 -3.50578e-06)
(-0.00951028 0.0649797 3.18466e-06)
(-0.0244022 0.0931599 -4.3458e-07)
(-0.043004 0.112268 -9.83478e-07)
(-0.0637948 0.123527 -8.04477e-07)
(-0.0856286 0.127656 -8.17502e-07)
(-0.107348 0.12486 -9.25202e-07)
(-0.127746 0.114963 -1.6391e-06)
(-0.145518 0.0976891 1.55903e-06)
(-0.158066 0.0729449 1.12909e-05)
(-0.00135487 0.0308298 -2.92185e-06)
(-0.00820086 0.0763856 2.88691e-06)
(-0.0212829 0.109054 -3.00835e-07)
(-0.0376714 0.131027 -8.23283e-07)
(-0.0559 0.143819 -7.54729e-07)
(-0.0748174 0.148322 -8.15661e-07)
(-0.0932773 0.144781 -1.09376e-06)
(-0.110145 0.132864 -3.82677e-06)
(-0.1246 0.111831 -1.1405e-06)
(-0.134052 0.0800536 2.53457e-05)
(-0.00100631 0.0347579 -2.11972e-06)
(-0.00640701 0.0859266 2.49438e-06)
(-0.0169461 0.122451 -5.5512e-08)
(-0.030162 0.14678 -4.70354e-07)
(-0.044617 0.160599 -4.97848e-07)
(-0.0590401 0.164938 -7.26684e-07)
(-0.0720888 0.160145 -1.53994e-06)
(-0.0823288 0.14589 -9.51636e-06)
(-0.0893482 0.121266 -2.22641e-05)
(-0.0925785 0.0836491 7.65596e-06)
(0.000312378 -0.000315265 1.21166e-08)
(2.62684e-05 0.000150946 -1.3219e-06)
(-0.00184046 0.00065134 -2.00201e-06)
(-0.00483817 0.000989397 -2.58508e-06)
(-0.00857209 0.0011814 -2.93376e-06)
(-0.0126998 0.00126416 -3.07752e-06)
(-0.0169372 0.00126518 -3.08609e-06)
(-0.0210462 0.00119824 -2.96519e-06)
(-0.0248161 0.00107049 -2.69322e-06)
(-0.0280694 0.000893546 -2.25226e-06)
(-0.000174855 -2.74911e-05 1.15765e-06)
(-0.00248232 0.00239314 -2.92896e-07)
(-0.00808442 0.00474065 1.18231e-06)
(-0.0159722 0.00643552 1.86281e-06)
(-0.0254135 0.00747074 2.20364e-06)
(-0.0357275 0.00793701 2.41864e-06)
(-0.0462715 0.00792115 2.42657e-06)
(-0.0564639 0.00748363 2.25597e-06)
(-0.0657855 0.00668009 1.97845e-06)
(-0.0738087 0.00559973 1.70667e-06)
(-0.000763905 0.00196725 1.96896e-06)
(-0.00521343 0.0081134 -1.75241e-06)
(-0.0143356 0.0135734 -7.76981e-08)
(-0.0264088 0.0175709 7.27009e-08)
(-0.0404532 0.0200619 -9.57133e-08)
(-0.055594 0.0211741 -9.02469e-08)
(-0.0709576 0.0210508 -9.87404e-08)
(-0.0857181 0.019816 -1.44496e-07)
(-0.0991163 0.0176184 -1.97794e-07)
(-0.110514 0.0147083 -1.22312e-07)
(-0.00123687 0.00539244 2.84996e-06)
(-0.00749651 0.0166416 -2.48054e-06)
(-0.0195966 0.025934 1.30124e-08)
(-0.0350883 0.0326423 2.20504e-07)
(-0.0527621 0.0367973 -6.85131e-08)
(-0.0716077 0.0385839 -1.01316e-07)
(-0.090593 0.0381883 -1.33171e-07)
(-0.108709 0.0357823 -2.16117e-07)
(-0.124988 0.0316107 -3.72305e-07)
(-0.138568 0.0261277 -3.28111e-07)
(-0.00156174 0.00991771 3.48029e-06)
(-0.00913184 0.0273843 -2.9231e-06)
(-0.0234233 0.041048 3.35695e-07)
(-0.0414064 0.0507147 7.23172e-07)
(-0.0616835 0.0566181 4.37451e-07)
(-0.0831478 0.0590375 4.17825e-07)
(-0.104659 0.0581868 3.72857e-07)
(-0.125066 0.0542498 2.19192e-07)
(-0.1432 0.0475332 -2.34061e-07)
(-0.157911 0.0386956 -4.59237e-07)
(-0.00173176 0.0151493 3.79225e-06)
(-0.0100282 0.0396013 -3.23485e-06)
(-0.025563 0.0580166 4.41306e-07)
(-0.0449616 0.0708077 9.21776e-07)
(-0.0667086 0.0785062 6.40109e-07)
(-0.089644 0.0815189 6.35286e-07)
(-0.112569 0.0800698 6.20809e-07)
(-0.134237 0.0742959 4.99708e-07)
(-0.153298 0.0644805 -4.02918e-07)
(-0.168194 0.0514011 -1.27726e-06)
(-0.00174713 0.0206604 3.77435e-06)
(-0.0101491 0.0524319 -3.32165e-06)
(-0.0258887 0.075769 4.7292e-07)
(-0.0455119 0.0917525 1.00961e-06)
(-0.0674676 0.10126 7.69729e-07)
(-0.0905887 0.104849 7.97742e-07)
(-0.113676 0.102733 8.83573e-07)
(-0.135457 0.0949287 1.05915e-06)
(-0.154491 0.081541 -5.28388e-07)
(-0.168691 0.0632027 -3.24422e-06)
(-0.00161486 0.0260213 3.50281e-06)
(-0.00951029 0.0649797 -3.18764e-06)
(-0.0244022 0.0931599 4.3157e-07)
(-0.043004 0.112268 9.81621e-07)
(-0.0637948 0.123527 8.02435e-07)
(-0.0856286 0.127656 8.15493e-07)
(-0.107348 0.12486 9.23752e-07)
(-0.127746 0.114963 1.63812e-06)
(-0.145518 0.0976891 -1.55958e-06)
(-0.158066 0.0729449 -1.1291e-05)
(-0.00135487 0.0308298 2.92005e-06)
(-0.00820086 0.0763856 -2.88949e-06)
(-0.0212829 0.109054 2.99497e-07)
(-0.0376714 0.131027 8.21956e-07)
(-0.0559 0.143819 7.53168e-07)
(-0.0748174 0.148322 8.14441e-07)
(-0.0932773 0.144781 1.0929e-06)
(-0.110145 0.132864 3.82623e-06)
(-0.1246 0.111831 1.14035e-06)
(-0.134052 0.0800536 -2.53456e-05)
(-0.00100631 0.0347579 2.1185e-06)
(-0.00640701 0.0859266 -2.49537e-06)
(-0.0169461 0.122451 5.45932e-08)
(-0.030162 0.14678 4.69178e-07)
(-0.044617 0.160599 4.96848e-07)
(-0.0590401 0.164938 7.26004e-07)
(-0.0720888 0.160145 1.53948e-06)
(-0.0823288 0.14589 9.51627e-06)
(-0.0893482 0.121266 2.22644e-05)
(-0.0925785 0.0836491 -7.65558e-06)
(0.000307396 -0.00031073 -8.55324e-07)
(1.9134e-05 0.000156841 -0.000218771)
(-0.0018442 0.000665347 -0.000447208)
(-0.00484079 0.00100917 -0.000616742)
(-0.00857358 0.00120434 -0.00068334)
(-0.0127003 0.00128865 -0.000626545)
(-0.016937 0.00128973 -0.000440037)
(-0.0210451 0.00122149 -0.000124306)
(-0.0248138 0.00109131 0.000314632)
(-0.028066 0.000911304 0.000863862)
(-0.000182243 -2.01463e-05 0.000216184)
(-0.00248535 0.00239515 -6.43781e-06)
(-0.00807685 0.0047519 -0.000175945)
(-0.0159674 0.00645191 -0.000277303)
(-0.0254111 0.00748896 -0.000292343)
(-0.0357268 0.00795607 -0.000205092)
(-0.0462724 0.00794009 -8.81472e-06)
(-0.0564659 0.00750139 0.0002989)
(-0.0657875 0.00669579 0.000716772)
(-0.0738099 0.00561331 0.00123829)
(-0.000779947 0.00197286 0.000450093)
(-0.00522472 0.00810683 0.000155967)
(-0.0143286 0.0135703 -1.44717e-05)
(-0.0264065 0.0175677 -9.41352e-05)
(-0.0404531 0.0200568 -9.1657e-05)
(-0.0555942 0.0211678 1.84003e-06)
(-0.0709584 0.0210441 0.000190678)
(-0.0857193 0.0198092 0.000478744)
(-0.0991164 0.0176114 0.000869247)
(-0.110512 0.0147026 0.00136191)
(-0.00125991 0.00539736 0.000609042)
(-0.0075129 0.0166375 0.000228286)
(-0.0195874 0.025935 3.37365e-05)
(-0.0350864 0.032645 -4.80731e-05)
(-0.0527631 0.0367995 -4.79433e-05)
(-0.0716085 0.0385857 3.69673e-05)
(-0.0905943 0.0381897 0.000209274)
(-0.108711 0.0357826 0.000475487)
(-0.124988 0.0316089 0.000845124)
(-0.138564 0.0261256 0.00132666)
(-0.00158939 0.00992087 0.000617844)
(-0.00915047 0.027382 0.000161834)
(-0.0234106 0.04105 -5.8433e-05)
(-0.0414033 0.0507189 -0.00015288)
(-0.0616844 0.0566227 -0.000168466)
(-0.0831489 0.0590422 -0.000105891)
(-0.104661 0.0581914 3.83282e-05)
(-0.12507 0.054253 0.000276241)
(-0.143203 0.0475319 0.000627557)
(-0.157904 0.0386921 0.00111643)
(-0.00176199 0.0151503 0.000426644)
(-0.0100479 0.0395999 -8.54703e-05)
(-0.0255479 0.0580177 -0.000327101)
(-0.0449574 0.0708102 -0.00044155)
(-0.0667092 0.0785094 -0.000485444)
(-0.0896449 0.0815225 -0.000460301)
(-0.112572 0.0800739 -0.000358502)
(-0.134244 0.0742995 -0.00015855)
(-0.153305 0.0644759 0.000175108)
(-0.168179 0.051389 0.000697342)
(-0.00177774 0.0206591 1.12801e-05)
(-0.0101686 0.0524316 -0.000534748)
(-0.0258726 0.0757691 -0.000790151)
(-0.0455069 0.0917532 -0.000929808)
(-0.0674674 0.101262 -0.00101402)
(-0.0905888 0.104851 -0.00104303)
(-0.113678 0.102737 -0.00100209)
(-0.13547 0.0949334 -0.000856359)
(-0.154509 0.0815302 -0.000548547)
(-0.168662 0.0631641 3.78179e-05)
(-0.00164356 0.0260179 -0.000628744)
(-0.00952822 0.0649803 -0.00118654)
(-0.0243863 0.0931589 -0.00144682)
(-0.0429984 0.112267 -0.00161528)
(-0.0637939 0.123527 -0.001751)
(-0.0856276 0.127657 -0.00185242)
(-0.107349 0.124865 -0.00189617)
(-0.127769 0.114979 -0.00183208)
(-0.14557 0.0976931 -0.00158045)
(-0.158019 0.0728834 -0.000907031)
(-0.00137981 0.0308246 -0.0014711)
(-0.0082162 0.0763866 -0.00202126)
(-0.0212684 0.109052 -0.00227732)
(-0.0376656 0.131023 -0.0024757)
(-0.055898 0.143815 -0.00267097)
(-0.0748128 0.148318 -0.00286099)
(-0.0932662 0.144783 -0.00301464)
(-0.110163 0.132897 -0.00306574)
(-0.124706 0.111906 -0.00292437)
(-0.134003 0.0800839 -0.00214974)
(-0.00102626 0.0347518 -0.00247313)
(-0.00641937 0.0859279 -0.00300178)
(-0.0169347 0.122447 -0.00324465)
(-0.0301579 0.146771 -0.00346988)
(-0.0446156 0.160587 -0.0037262)
(-0.0590333 0.164915 -0.00401591)
(-0.0720554 0.160101 -0.0043097)
(-0.0822872 0.145825 -0.00453746)
(-0.0894381 0.121203 -0.00466724)
(-0.0924993 0.0835295 -0.004073)
(-0.0306883 0.000706982 -0.00150266)
(-0.0326667 0.000512599 -0.00220555)
(-0.0340772 0.000351132 -0.00294957)
(-0.0350403 0.000230468 -0.00371745)
(-0.0356811 0.000148401 -0.00449772)
(-0.0361091 9.82416e-05 -0.00528372)
(-0.0364116 7.28172e-05 -0.00607226)
(-0.0366553 6.63987e-05 -0.0068626)
(-0.0368914 7.50681e-05 -0.00765585)
(-0.0371595 9.62221e-05 -0.00845473)
(-0.0374899 0.000127629 -0.00926367)
(-0.0379027 0.000166228 -0.0100889)
(-0.0384035 0.000206758 -0.0109384)
(-0.0389753 0.000240321 -0.0118219)
(-0.0395674 0.000253176 -0.0127498)
(-0.040083 0.000226389 -0.0137314)
(-0.0403695 0.000137701 -0.014772)
(-0.0402167 -3.26105e-05 -0.0158693)
(-0.039376 -0.000296476 -0.0170072)
(-0.0376079 -0.000641941 -0.0181535)
(-0.0802738 0.0044064 -0.00184972)
(-0.0851646 0.00326036 -0.00253125)
(-0.0886802 0.00229862 -0.00326437)
(-0.0911136 0.00156578 -0.00403373)
(-0.0927625 0.00105263 -0.00482753)
(-0.0938849 0.000724525 -0.0056375)
(-0.0946863 0.000542056 -0.00645847)
(-0.095323 0.000471258 -0.00728778)
(-0.095912 0.000486002 -0.00812492)
(-0.0965396 0.000565758 -0.00897121)
(-0.0972657 0.000690992 -0.00982971)
(-0.0981214 0.000837352 -0.0107051)
(-0.0990998 0.000969347 -0.0116033)
(-0.10014 0.00103443 -0.0125315)
(-0.101108 0.000959138 -0.0134969)
(-0.101769 0.000650538 -0.0145052)
(-0.101778 7.66287e-06 -0.0155589)
(-0.100683 -0.00105229 -0.0166533)
(-0.0979694 -0.00255569 -0.0177743)
(-0.093152 -0.00441895 -0.0188946)
(-0.119525 0.0114967 -0.00194757)
(-0.126186 0.00848823 -0.00260604)
(-0.130865 0.00598756 -0.00331979)
(-0.134042 0.00409317 -0.00407415)
(-0.136163 0.00276793 -0.00485711)
(-0.137589 0.00191509 -0.00565982)
(-0.138595 0.00142936 -0.00647632)
(-0.139381 0.00122066 -0.00730312)
(-0.14009 0.00121864 -0.00813878)
(-0.140824 0.00136651 -0.00898368)
(-0.141648 0.00160979 -0.00983974)
(-0.142591 0.00188274 -0.0107103)
(-0.143636 0.002094 -0.0115998)
(-0.144699 0.00211381 -0.0125137)
(-0.145605 0.00176657 -0.0134577)
(-0.146058 0.000835794 -0.0144368)
(-0.145617 -0.000908402 -0.0154539)
(-0.143698 -0.0036505 -0.0165073)
(-0.139611 -0.00743355 -0.0175876)
(-0.132678 -0.0120442 -0.0186741)
(-0.148906 0.0201336 -0.0019148)
(-0.15615 0.0146304 -0.00257965)
(-0.160961 0.0101698 -0.00330063)
(-0.16406 0.00686729 -0.00406193)
(-0.166031 0.00459883 -0.00485075)
(-0.167303 0.00315561 -0.00565802)
(-0.168169 0.00233331 -0.00647777)
(-0.168825 0.00196661 -0.00730641)
(-0.169402 0.00193074 -0.00814221)
(-0.169988 0.00212747 -0.00898494)
(-0.170638 0.00246488 -0.00983562)
(-0.171376 0.0028344 -0.0106963)
(-0.172185 0.00308741 -0.0115702)
(-0.172993 0.00301365 -0.0124614)
(-0.173641 0.00232702 -0.0133748)
(-0.17385 0.000669187 -0.0143162)
(-0.173177 -0.00235161 -0.0152913)
(-0.170982 -0.00706875 -0.0163043)
(-0.166438 -0.013597 -0.0173546)
(-0.158612 -0.0216141 -0.0184324)
(-0.168372 0.0290721 -0.00174407)
(-0.174944 0.020523 -0.0024508)
(-0.178802 0.0138748 -0.0032087)
(-0.180991 0.00914054 -0.00400015)
(-0.182217 0.00599375 -0.00481172)
(-0.182917 0.00404061 -0.00563516)
(-0.183342 0.00294284 -0.00646571)
(-0.183635 0.00244861 -0.00730071)
(-0.18388 0.00237953 -0.00813884)
(-0.184125 0.00260273 -0.00897969)
(-0.184403 0.00299927 -0.00982349)
(-0.18473 0.00343187 -0.0106711)
(-0.185105 0.00371214 -0.011524)
(-0.185498 0.00356852 -0.0123848)
(-0.185825 0.0026195 -0.0132576)
(-0.185905 0.000363934 -0.0141491)
(-0.185391 -0.0037872 -0.0150691)
(-0.183685 -0.0104004 -0.0160303)
(-0.179852 -0.0197979 -0.0170457)
(-0.172587 -0.0316817 -0.0181259)
(-0.177507 0.0370827 -0.00142818)
(-0.181999 0.024991 -0.00222704)
(-0.183784 0.0161673 -0.00305687)
(-0.184311 0.0102437 -0.00390212)
(-0.184324 0.00649876 -0.00475131)
(-0.184166 0.00426414 -0.00559987)
(-0.183974 0.00304217 -0.00644643)
(-0.183786 0.00249888 -0.00729065)
(-0.183605 0.00241726 -0.00813247)
(-0.183423 0.00264808 -0.00897168)
(-0.183237 0.00306636 -0.00980786)
(-0.183054 0.00353162 -0.0106405)
(-0.182893 0.00384815 -0.0114691)
(-0.182786 0.00372247 -0.0122941)
(-0.182766 0.00271834 -0.0131181)
(-0.182825 0.000216801 -0.0139476)
(-0.182831 -0.00459257 -0.0147965)
(-0.182377 -0.0126247 -0.0156869)
(-0.180544 -0.0246563 -0.0166507)
(-0.175527 -0.0407499 -0.0177383)
(-0.175359 0.0426657 -0.000987581)
(-0.176112 0.0266994 -0.00194755)
(-0.17476 0.0161433 -0.00288434)
(-0.173111 0.00965044 -0.00380024)
(-0.17171 0.00583513 -0.00469342)
(-0.17065 0.00368727 -0.00556858)
(-0.169861 0.00256326 -0.00643086)
(-0.169234 0.00208121 -0.00728363)
(-0.168676 0.00201833 -0.0081286)
(-0.168114 0.00223662 -0.00896597)
(-0.167505 0.00263075 -0.00979461)
(-0.166838 0.00308659 -0.0106123)
(-0.166145 0.0034407 -0.0114164)
(-0.165512 0.00343249 -0.0122041)
(-0.165094 0.00264154 -0.0129748)
(-0.165104 0.000404153 -0.0137327)
(-0.16574 -0.00427689 -0.0144936)
(-0.167018 -0.0127512 -0.0152881)
(-0.168374 -0.0266021 -0.0161704)
(-0.167554 -0.0469767 -0.0172636)
(-0.15993 0.0436473 -0.000480079)
(-0.154999 0.0240456 -0.00168535)
(-0.149843 0.013052 -0.00275134)
(-0.146079 0.00714461 -0.00373811)
(-0.14355 0.00402938 -0.00466664)
(-0.14189 0.00242028 -0.00555894)
(-0.140764 0.00163334 -0.00642964)
(-0.139919 0.00131885 -0.00728624)
(-0.139176 0.00129849 -0.00813191)
(-0.138416 0.00147583 -0.00896685)
(-0.137564 0.00178641 -0.00978894)
(-0.136586 0.00216426 -0.0105941)
(-0.135504 0.00251073 -0.0113767)
(-0.13442 0.00265385 -0.0121304)
(-0.133559 0.00228273 -0.0128492)
(-0.133314 0.0008317 -0.0135323)
(-0.134242 -0.00271072 -0.0141946)
(-0.137035 -0.0100302 -0.0148694)
(-0.142178 -0.0238308 -0.015627)
(-0.147732 -0.0477738 -0.0167032)
(-0.126791 0.0375052 -0.00019701)
(-0.114453 0.0161192 -0.0016747)
(-0.106232 0.00712903 -0.00278888)
(-0.101637 0.00331678 -0.00378329)
(-0.099015 0.00165274 -0.00470453)
(-0.0974695 0.000917026 -0.00558733)
(-0.0964928 0.000601847 -0.00645124)
(-0.0957801 0.000497087 -0.00730385)
(-0.0951467 0.000515814 -0.00814721)
(-0.0944737 0.000620652 -0.00898016)
(-0.0936807 0.000792393 -0.00979888)
(-0.0927189 0.00101386 -0.0105971)
(-0.0915803 0.00125657 -0.0113659)
(-0.0903232 0.00146093 -0.0120939)
(-0.0891284 0.00149575 -0.0127676)
(-0.08839 0.0010661 -0.013376)
(-0.0887956 -0.000509827 -0.0139268)
(-0.0916601 -0.00485447 -0.0144256)
(-0.0994713 -0.0155404 -0.0149164)
(-0.11332 -0.040601 -0.0157956)
(-0.0645227 0.0229788 -0.000848511)
(-0.048141 0.00662687 -0.002319)
(-0.0414245 0.00202162 -0.00307308)
(-0.0389884 0.000650105 -0.00382161)
(-0.0379301 0.000224266 -0.00458645)
(-0.0373892 9.37268e-05 -0.00536415)
(-0.0370665 5.86643e-05 -0.00615246)
(-0.036822 5.79839e-05 -0.0069462)
(-0.0365814 7.47068e-05 -0.00774037)
(-0.0362957 0.000105475 -0.00852991)
(-0.0359257 0.00015106 -0.00930859)
(-0.035437 0.000213361 -0.0100678)
(-0.0348017 0.000293798 -0.0107952)
(-0.0340064 0.000390018 -0.0114731)
(-0.033074 0.00048551 -0.012076)
(-0.0321157 0.000517793 -0.0125682)
(-0.0314756 0.000261901 -0.012902)
(-0.0321175 -0.0011399 -0.0130409)
(-0.0377384 -0.00641926 -0.0128637)
(-0.0564654 -0.0257237 -0.0130031)
(-0.030692 0.000692427 1.69416e-06)
(-0.0326698 0.000501309 1.18674e-06)
(-0.0340795 0.000342787 7.87286e-07)
(-0.0350418 0.000224507 4.98357e-07)
(-0.035682 0.000144215 3.06997e-07)
(-0.0361096 9.52661e-05 1.91807e-07)
(-0.0364117 7.05723e-05 1.31915e-07)
(-0.0366552 6.44972e-05 1.1166e-07)
(-0.0368912 7.32075e-05 1.20421e-07)
(-0.0371591 9.41754e-05 1.5133e-07)
(-0.0374894 0.000125245 1.99713e-07)
(-0.0379022 0.000163448 2.60491e-07)
(-0.0384029 0.000203652 3.25994e-07)
(-0.0389747 0.00023714 3.83494e-07)
(-0.039567 0.000250419 4.11997e-07)
(-0.040083 0.000224853 3.77593e-07)
(-0.0403703 0.000138459 2.37807e-07)
(-0.0402187 -2.83639e-05 -3.37295e-08)
(-0.0393799 -0.000287476 -5.1146e-07)
(-0.0376135 -0.000627441 -1.23087e-06)
(-0.0802729 0.00439435 -1.51146e-06)
(-0.085163 0.00325049 -1.26206e-06)
(-0.0886784 0.00229107 -9.98841e-07)
(-0.0911118 0.00156026 -7.64068e-07)
(-0.0927608 0.00104871 -5.72572e-07)
(-0.0938836 0.000721769 -4.31779e-07)
(-0.0946855 0.000540058 -3.41378e-07)
(-0.0953225 0.000469683 -2.9565e-07)
(-0.0959118 0.000484582 -2.86504e-07)
(-0.0965396 0.000564284 -3.04482e-07)
(-0.0972658 0.00068931 -3.37908e-07)
(-0.0981213 0.000835369 -3.71527e-07)
(-0.0990993 0.000967055 -3.84495e-07)
(-0.100139 0.00103195 -3.49166e-07)
(-0.101105 0.000956793 -2.31496e-07)
(-0.101765 0.000648901 4.21507e-09)
(-0.101773 7.55034e-06 3.81296e-07)
(-0.100678 -0.00104987 8.91188e-07)
(-0.097965 -0.00254968 1.50206e-06)
(-0.0931494 -0.00440928 2.07674e-06)
(-0.119528 0.0114988 -1.8614e-07)
(-0.126187 0.00848863 -3.24329e-07)
(-0.130865 0.00598752 -3.56044e-07)
(-0.134041 0.00409306 -3.3903e-07)
(-0.136161 0.00276793 -2.90189e-07)
(-0.137588 0.00191526 -2.32139e-07)
(-0.138594 0.00142971 -1.794e-07)
(-0.139381 0.0012212 -1.37686e-07)
(-0.14009 0.00121937 -1.076e-07)
(-0.140823 0.00136742 -8.71968e-08)
(-0.141647 0.00161086 -7.29858e-08)
(-0.142591 0.00188388 -6.0517e-08)
(-0.143635 0.00209507 -4.45565e-08)
(-0.144698 0.0021146 -1.86058e-08)
(-0.145603 0.00176683 2.60767e-08)
(-0.146056 0.000835252 9.68374e-08)
(-0.145615 -0.000910006 1.89696e-07)
(-0.143696 -0.00365312 2.98556e-07)
(-0.13961 -0.00743706 4.10782e-07)
(-0.13268 -0.0120501 3.49571e-07)
(-0.148911 0.0201301 -2.96395e-07)
(-0.156151 0.0146264 -4.77802e-07)
(-0.160961 0.0101672 -4.75166e-07)
(-0.164058 0.00686588 -4.22936e-07)
(-0.166029 0.00459829 -3.37035e-07)
(-0.167301 0.00315562 -2.49754e-07)
(-0.168168 0.0023336 -1.77228e-07)
(-0.168824 0.00196705 -1.22206e-07)
(-0.169401 0.00193123 -8.30502e-08)
(-0.169987 0.00212797 -5.66031e-08)
(-0.170637 0.00246534 -3.95902e-08)
(-0.171375 0.00283476 -2.90771e-08)
(-0.172185 0.00308757 -2.23065e-08)
(-0.172992 0.00301352 -1.49128e-08)
(-0.17364 0.00232656 4.14356e-09)
(-0.173848 0.000668467 4.71086e-08)
(-0.173174 -0.00235241 1.00843e-07)
(-0.17098 -0.00706874 2.02265e-07)
(-0.166438 -0.0135946 3.96456e-07)
(-0.158618 -0.0216112 3.5019e-07)
(-0.168381 0.0290632 -8.05758e-07)
(-0.174944 0.0205155 -9.03774e-07)
(-0.178799 0.0138712 -7.33236e-07)
(-0.180988 0.0091392 -5.7384e-07)
(-0.182215 0.00599371 -4.04522e-07)
(-0.182915 0.00404118 -2.66188e-07)
(-0.18334 0.00294357 -1.70248e-07)
(-0.183634 0.00244931 -1.08214e-07)
(-0.183879 0.00238013 -7.08726e-08)
(-0.184125 0.00260321 -5.0974e-08)
(-0.184403 0.00299962 -4.34936e-08)
(-0.18473 0.00343206 -4.51322e-08)
(-0.185105 0.00371212 -5.35184e-08)
(-0.185497 0.00356823 -6.37687e-08)
(-0.185824 0.00261897 -5.67882e-08)
(-0.185903 0.0003634 -5.69966e-09)
(-0.185387 -0.00378725 4.84507e-08)
(-0.183679 -0.0103982 1.99321e-07)
(-0.179849 -0.0197892 6.98434e-07)
(-0.172596 -0.0316687 1.0028e-06)
(-0.177523 0.0370647 -1.71853e-06)
(-0.181994 0.0249788 -1.46872e-06)
(-0.183776 0.0161636 -9.22029e-07)
(-0.184306 0.0102435 -6.17795e-07)
(-0.18432 0.00649991 -3.63832e-07)
(-0.184163 0.00426561 -1.92072e-07)
(-0.183972 0.00304349 -9.52521e-08)
(-0.183785 0.00249992 -4.3882e-08)
(-0.183604 0.00241806 -1.87678e-08)
(-0.183423 0.0026487 -9.10918e-09)
(-0.183237 0.00306684 -9.62072e-09)
(-0.183054 0.00353196 -1.84687e-08)
(-0.182893 0.00384832 -3.58213e-08)
(-0.182786 0.00372239 -6.0951e-08)
(-0.182765 0.00271799 -7.59618e-08)
(-0.182823 0.000216523 -4.59796e-08)
(-0.182826 -0.004592 -2.50573e-08)
(-0.182366 -0.0126208 1.09852e-07)
(-0.180533 -0.0246399 1.20264e-06)
(-0.175543 -0.0407222 2.54834e-06)
(-0.175391 0.0426408 -4.56972e-06)
(-0.176098 0.0266913 -3.02202e-06)
(-0.174745 0.0161469 -1.3993e-06)
(-0.173103 0.00965481 -7.2967e-07)
(-0.171705 0.00583869 -3.10315e-07)
(-0.170648 0.00368991 -9.60505e-08)
(-0.16986 0.00256508 -1.18276e-08)
(-0.169234 0.0020825 1.58028e-08)
(-0.168676 0.00201934 1.92387e-08)
(-0.168114 0.00223752 1.15932e-08)
(-0.167505 0.00263164 -2.75022e-09)
(-0.166838 0.00308749 -2.34201e-08)
(-0.166145 0.00344155 -5.1466e-08)
(-0.165512 0.00343306 -8.94335e-08)
(-0.165094 0.00264156 -1.18209e-07)
(-0.165102 0.000403607 -6.03084e-08)
(-0.165733 -0.00427841 7.24565e-08)
(-0.166998 -0.0127537 3.63529e-07)
(-0.168348 -0.0265906 2.90934e-06)
(-0.167587 -0.0469409 7.00371e-06)
(-0.159991 0.0436061 -7.76072e-06)
(-0.154967 0.0240559 -3.15937e-06)
(-0.149824 0.0130738 -6.43589e-07)
(-0.146075 0.00715696 -2.43904e-07)
(-0.143548 0.00403569 3.18452e-08)
(-0.141889 0.00242371 1.28873e-07)
(-0.140764 0.00163532 1.21971e-07)
(-0.139919 0.00132021 1.00395e-07)
(-0.139176 0.00129974 8.33075e-08)
(-0.138416 0.00147725 7.13795e-08)
(-0.137564 0.00178815 6.15863e-08)
(-0.136586 0.00216636 4.91994e-08)
(-0.135505 0.00251311 2.68991e-08)
(-0.134421 0.00265608 -2.57858e-08)
(-0.133559 0.00228391 -1.02697e-07)
(-0.133314 0.000830289 -3.30885e-08)
(-0.134241 -0.00271924 9.71524e-08)
(-0.137014 -0.0100527 -3.60837e-07)
(-0.142132 -0.0238441 2.57029e-06)
(-0.147792 -0.0477178 1.11858e-05)
(-0.126865 0.037308 -9.69367e-06)
(-0.114385 0.0160594 4.29699e-06)
(-0.106221 0.00711793 4.81629e-06)
(-0.101647 0.00330955 2.06085e-06)
(-0.0990205 0.00164736 1.06786e-06)
(-0.0974721 0.000913669 6.49054e-07)
(-0.0964941 0.000599638 4.09144e-07)
(-0.0957805 0.000495434 3.10825e-07)
(-0.0951466 0.000514374 2.99163e-07)
(-0.0944733 0.000619192 3.36769e-07)
(-0.0936801 0.000790764 4.04008e-07)
(-0.0927186 0.00101201 4.83876e-07)
(-0.0915806 0.00125459 5.46627e-07)
(-0.0903248 0.00145918 5.15839e-07)
(-0.0891319 0.00149498 2.93905e-07)
(-0.0883988 0.00106731 -6.79982e-08)
(-0.0888147 -0.000506526 -1.29469e-06)
(-0.0916566 -0.00484719 -5.98631e-06)
(-0.099381 -0.0154758 -8.13432e-06)
(-0.113372 -0.0403444 1.20786e-05)
(-0.0645658 0.0228335 -5.39067e-05)
(-0.0479819 0.00655778 -9.19404e-06)
(-0.0413794 0.00199374 -6.72151e-07)
(-0.0389841 0.000634359 -1.47674e-06)
(-0.0379271 0.000215085 -9.60347e-07)
(-0.0373871 8.85491e-05 -4.52299e-07)
(-0.0370656 5.55015e-05 -2.56741e-07)
(-0.0368217 5.56722e-05 -1.82587e-07)
(-0.0365813 7.26018e-05 -1.62213e-07)
(-0.0362958 0.000103187 -1.78587e-07)
(-0.035926 0.00014835 -2.2097e-07)
(-0.0354374 0.000210132 -2.78845e-07)
(-0.034802 0.000290181 -3.37277e-07)
(-0.0340064 0.000386602 -3.69968e-07)
(-0.0330729 0.000483648 -2.86108e-07)
(-0.0321147 0.000519728 1.6106e-07)
(-0.031478 0.000271252 6.01226e-07)
(-0.0320756 -0.00111624 -1.99732e-06)
(-0.0375221 -0.00634498 3.95533e-06)
(-0.0564521 -0.0255284 6.82607e-05)
(-0.030692 0.000692427 -1.69555e-06)
(-0.0326698 0.000501309 -1.18751e-06)
(-0.0340795 0.000342787 -7.87429e-07)
(-0.0350418 0.000224507 -4.98392e-07)
(-0.035682 0.000144215 -3.07031e-07)
(-0.0361096 9.52661e-05 -1.91793e-07)
(-0.0364117 7.05723e-05 -1.31901e-07)
(-0.0366552 6.44972e-05 -1.11668e-07)
(-0.0368912 7.32075e-05 -1.20412e-07)
(-0.0371591 9.41753e-05 -1.51388e-07)
(-0.0374894 0.000125245 -1.9973e-07)
(-0.0379022 0.000163448 -2.60449e-07)
(-0.0384029 0.000203652 -3.25941e-07)
(-0.0389747 0.00023714 -3.83506e-07)
(-0.039567 0.000250419 -4.12104e-07)
(-0.040083 0.000224853 -3.77779e-07)
(-0.0403703 0.000138459 -2.38006e-07)
(-0.0402187 -2.83639e-05 3.35754e-08)
(-0.0393799 -0.000287476 5.11378e-07)
(-0.0376135 -0.000627441 1.23089e-06)
(-0.0802729 0.00439435 1.50995e-06)
(-0.085163 0.00325049 1.26139e-06)
(-0.0886784 0.00229107 9.98714e-07)
(-0.0911118 0.00156026 7.64073e-07)
(-0.0927608 0.00104871 5.72573e-07)