/*--------------------------------*- C++ -*----------------------------------*\
| =========                 |                                                 |
| \\      /  F ield         | OpenFOAM: The Open Source CFD Toolbox           |
|  \\    /   O peration     | Version:  2.4.0                                 |
|   \\  /    A nd           | Web:      www.OpenFOAM.org                      |
|    \\/     M anipulation  |                                                 |
\*---------------------------------------------------------------------------*/
FoamFile
{
    version     2.0;
    format      ascii;
    class       volScalarField;
    location    "0.06";
    object      T;
}
// * * * * * * * * * * * * * * * * * * * * * * * * * * * * * * * * * * * * * //

dimensions      [0 0 0 1 0 0 0];

internalField   nonuniform List<scalar> 
1600
(
97.2832
91.8719
86.5277
81.2948
76.2166
71.336
66.6942
62.3313
58.2858
54.5943
51.2917
48.411
45.983
44.0368
42.5991
41.6948
41.3466
41.5749
42.3978
43.8312
45.8882
48.5794
51.9121
55.8909
60.5164
65.7857
71.6918
78.2232
85.3638
93.0924
101.383
110.203
119.516
129.279
139.445
149.961
160.77
171.81
183.018
194.328
97.2832
91.8718
86.5275
81.2944
76.2162
71.3354
66.6936
62.3307
58.2853
54.594
51.2918
48.4115
45.9842
44.0388
42.6022
41.6991
41.3522
41.582
42.4065
43.8415
45.9001
48.5928
51.9269
55.9069
60.5333
65.8032
71.7095
78.2409
85.381
93.1088
101.398
110.217
119.528
129.29
139.455
149.969
160.776
171.814
183.021
194.329
97.2831
91.8716
86.5271
81.2939
76.2155
71.3346
66.6927
62.3299
58.2848
54.594
51.2924
48.4132
45.9872
44.0434
42.6087
41.7078
41.3635
41.596
42.4235
43.8615
45.9232
48.6188
51.9557
55.938
60.5664
65.8377
71.7447
78.2761
85.4155
93.1419
101.429
110.246
119.554
129.313
139.473
149.984
160.787
171.823
183.026
194.331
97.283
91.8713
86.5268
81.2934
76.2149
71.3339
66.6921
62.3296
58.2849
54.5949
51.2945
48.4166
45.9925
44.051
42.619
41.7213
41.3804
41.6168
42.4484
43.8907
45.9567
48.6565
51.9973
55.9831
60.6143
65.8877
71.796
78.3276
85.4663
93.191
101.475
110.288
119.593
129.347
139.502
150.008
160.806
171.836
183.034
194.333
97.2831
91.8714
86.5268
81.2934
76.215
71.3342
66.6926
62.3306
58.2867
54.5977
51.2987
48.4228
46.0009
44.0623
42.6337
41.7398
41.4034
41.6445
42.4812
43.9288
46.0002
48.7053
52.0511
56.0413
60.6763
65.9526
71.8627
78.395
85.5329
93.2556
101.537
110.345
119.644
129.392
139.541
150.04
160.831
171.853
183.044
194.337
97.2832
91.8718
86.5275
81.2943
76.2161
71.3357
66.6947
62.3335
58.2906
54.603
51.3058
48.4321
46.0131
44.0778
42.6531
41.7638
41.4324
41.679
42.5216
43.9755
46.0531
48.7645
52.1162
56.1119
60.7515
66.0315
71.944
78.4772
85.6146
93.3351
101.613
110.416
119.708
129.449
139.59
150.079
160.862
171.875
183.057
194.341
97.2835
91.8727
86.529
81.2965
76.219
71.3393
66.6992
62.339
58.2975
54.6117
51.3166
48.4456
46.0298
44.0982
42.6779
41.7935
41.4676
41.7204
42.5695
44.0302
46.115
48.8333
52.1918
56.1937
60.8388
66.1231
72.0386
78.5732
85.7102
93.4285
101.702
110.499
119.785
129.516
139.647
150.127
160.899
171.902
183.073
194.346
97.2841
91.8744
86.5319
81.3005
76.2241
71.3456
66.7068
62.3482
58.3085
54.6247
51.3322
48.4642
46.0518
44.1243
42.7086
41.8296
41.5096
41.7688
42.6249
44.0929
46.1851
48.911
52.2768
56.2855
60.9367
66.2259
72.145
78.6815
85.8184
93.5345
101.804
110.595
119.872
129.593
139.714
150.182
160.941
171.932
183.091
194.352
97.2851
91.8771
86.5364
81.3068
76.2321
71.3555
66.7186
62.362
58.3245
54.6433
51.3537
48.4889
46.0803
44.1571
42.7463
41.8727
41.5587
41.8245
42.6876
44.163
46.2629
48.9966
52.37
56.3859
61.0436
66.3382
72.2614
78.8001
85.9374
93.6516
101.916
110.701
119.969
129.68
139.788
150.243
160.989
171.966
183.112
194.359
97.2864
91.8811
86.5431
81.316
76.2439
71.3698
66.7355
62.3816
58.3469
54.6687
51.3823
48.5211
46.1165
44.1977
42.7918
41.9236
41.6156
41.8878
42.7578
44.2405
46.3479
49.0891
52.47
56.4932
61.1574
66.4578
72.3853
78.9269
86.0649
93.7775
102.038
110.816
120.075
129.775
139.87
150.311
161.042
172.004
183.134
194.367
97.2883
91.8867
86.5523
81.3289
76.2602
71.3895
66.7587
62.4081
58.3769
54.7022
51.4195
48.5623
46.1618
44.2475
42.8464
41.9835
41.681
41.9593
42.8356
44.325
46.4393
49.1875
52.5755
56.6054
61.2761
66.5821
72.5142
79.0588
86.1981
93.9096
102.167
110.938
120.188
129.876
139.958
150.384
161.099
172.045
183.159
194.375
97.2908
91.8941
86.5647
81.346
76.282
71.4158
66.7893
62.443
58.416
54.7455
51.467
48.6139
46.2178
44.308
42.9116
42.0534
41.7561
42.0396
42.9215
44.4166
46.5368
49.291
52.685
56.721
61.3973
66.7086
72.6451
79.193
86.3339
94.045
102.299
111.065
120.306
129.983
140.051
150.461
161.159
172.088
183.185
194.383
97.2941
91.9038
86.5807
81.3682
76.3102
71.4498
66.8288
62.4878
58.4659
54.8003
51.5265
48.678
46.2863
44.3809
42.9889
42.1351
41.8421
42.13
43.0162
44.5157
46.6404
49.3992
52.7979
56.8384
61.5194
66.835
72.7755
79.3265
86.4693
94.1806
102.433
111.194
120.427
130.093
140.148
150.542
161.223
172.133
183.212
194.392
97.2982
91.9161
86.6011
81.3964
76.3459
71.4927
66.8786
62.5441
58.5283
54.8684
51.6
48.7565
46.3695
44.4684
43.0803
42.2302
41.9407
42.2317
43.121
44.6233
46.7508
49.5123
52.9137
56.9572
61.6411
66.9598
72.9032
79.4568
86.6014
94.3133
102.564
111.321
120.548
130.205
140.246
150.625
161.288
172.18
183.24
194.402
97.3033
91.9314
86.6264
81.4314
76.3903
71.546
66.9404
62.6138
58.6053
54.9521
51.6898
48.8517
46.4696
44.5727
43.1882
42.3411
42.054
42.3469
43.2376
44.741
46.8692
49.6314
53.0335
57.0777
61.7626
67.0825
73.0274
79.5826
86.7285
94.441
102.691
111.446
120.667
130.315
140.345
150.709
161.355
172.228
183.269
194.411
97.3096
91.9501
86.6573
81.4743
76.4447
71.6113
67.0158
62.6987
58.6989
55.0536
51.7982
48.9663
46.5892
44.6965
43.3152
42.4704
42.1846
42.4781
43.3686
44.8711
46.998
49.7586
53.1589
57.2015
61.8851
67.2041
73.1486
79.7037
86.85
94.5626
102.812
111.565
120.782
130.423
140.443
150.793
161.422
172.277
183.299
194.421
97.3171
91.9728
86.6948
81.5261
76.5103
71.69
67.1069
62.8011
58.8116
55.1754
51.928
49.1028
46.7312
44.8426
43.4642
42.621
42.3356
42.6283
43.5169
45.0167
47.1402
49.8969
53.2931
57.3316
62.0113
67.327
73.2688
79.822
86.9669
94.6786
102.927
111.678
120.892
130.527
140.538
150.876
161.489
172.326
183.328
194.431
97.3262
91.9999
86.7396
81.5881
76.5888
71.7842
67.2156
62.9232
58.9458
55.3203
52.0821
49.2645
46.8988
45.0145
43.6388
42.7965
42.5105
42.8011
43.6864
45.1817
47.2997
50.0503
53.44
57.4719
62.1453
67.4551
73.3917
79.9406
87.0821
94.7911
103.038
111.786
120.997
130.628
140.631
150.957
161.556
172.375
183.358
194.44
97.3369
92.032
86.7927
81.6616
76.6818
71.8956
67.3442
63.0676
59.1043
55.4913
52.2636
49.4545
47.0955
45.2158
43.8425
43.0007
42.7133
43.0008
43.8813
45.3704
47.4811
50.2236
53.6046
57.6275
62.292
67.5933
73.5221
80.0641
87.1998
94.9041
103.147
111.892
121.099
130.725
140.721
151.037
161.623
172.425
183.389
194.45
97.3495
92.0698
86.8551
81.748
76.7911
72.0266
67.4953
63.2371
59.2902
55.6915
52.476
49.6767
47.3251
45.4503
44.0796
43.2381
42.9487
43.232
44.1065
45.588
47.6898
50.4222
53.7924
57.8041
62.4573
67.7476
73.666
80.1984
87.3256
95.0226
103.259
111.999
121.201
130.821
140.81
151.117
161.69
172.475
183.42
194.461
97.3643
92.1139
86.9281
81.8489
76.9188
72.1795
67.6716
63.4347
59.5069
55.9247
52.7231
49.9351
47.5919
45.7227
44.3548
43.5134
43.2215
43.5
44.3674
45.8401
47.9313
50.652
54.0095
58.008
62.6477
67.9245
73.8298
80.3499
87.4657
95.1526
103.38
112.112
121.307
130.92
140.901
151.198
161.758
172.527
183.452
194.471
97.3814
92.1653
87.0129
81.9661
77.0671
72.3569
67.8761
63.6638
59.7579
56.1948
53.0092
50.234
47.9004
46.0377
44.673
43.8318
43.5372
43.8103
44.6699
46.1326
48.2121
50.9194
54.2626
58.2459
62.8699
68.1309
74.0206
80.5257
87.6273
95.3009
103.516
112.238
121.423
131.026
140.997
151.283
161.829
172.581
183.486
194.482
97.4013
92.2247
87.111
82.1018
77.2385
72.5621
68.1124
63.9283
60.0476
56.5063
53.339
50.5785
48.256
46.4007
45.0399
44.1991
43.9017
44.169
45.0202
46.4719
48.5385
51.2313
54.5584
58.5247
63.131
68.374
74.2457
80.733
87.8175
95.4748
103.675
112.382
121.554
131.145
141.103
151.375
161.906
172.64
183.523
194.495
97.4242
92.2933
87.2243
82.2583
77.4362
72.7983
68.3843
64.2326
60.3805
56.8641
53.7177
50.974
48.6642
46.8175
45.4614
44.6214
44.3214
44.5827
45.4249
46.8651
48.9177
51.5946
54.9043
58.8518
63.4386
68.6614
74.5127
80.9796
88.0439
95.6818
103.863
112.553
121.708
131.282
141.224
151.48
161.992
172.705
183.564
194.508
97.4507
92.3723
87.3546
82.4382
77.6633
73.0697
68.6963
64.5814
60.762
57.2737
54.151
51.4264
49.1311
47.2944
45.944
45.1055
44.803
45.0584
45.8912
47.3191
49.357
52.0168
55.3077
59.2349
63.8002
69.0008
74.8293
81.2731
88.3145
95.9296
104.089
112.756
121.891
131.444
141.366
151.601
162.091
172.779
183.612
194.524
97.4811
92.4631
87.5045
82.645
77.924
73.3807
69.0535
64.9803
61.1978
57.7414
54.6453
51.9423
49.6635
47.8384
46.4947
45.6585
45.354
45.6033
46.4266
47.8418
49.864
52.5058
55.7765
59.682
64.224
69.4003
75.2037
81.6219
88.6372
96.2262
104.359
113.001
122.11
131.638
141.535
151.743
162.206
172.865
183.666
194.542
97.5161
92.5676
87.6767
82.8823
78.2228
73.7367
69.4619
65.4357
61.6945
58.2739
55.2077
52.529
50.2687
48.4567
47.121
46.2878
45.9817
46.2252
47.0389
48.4408
50.4468
53.0696
56.319
60.2011
64.7183
69.8682
75.6442
82.0341
89.0205
96.58
104.683
113.295
122.373
131.871
141.737
151.913
162.343
172.967
183.73
194.563
97.5563
92.6877
87.8746
83.1546
78.5652
74.1439
69.9281
65.9546
62.2598
58.8788
55.846
53.1941
50.9546
49.1574
47.8308
47.0015
46.6943
46.9322
47.7361
49.1245
51.1136
53.7166
56.9435
60.801
65.2916
70.4133
76.1597
82.5187
89.4731
96.9996
105.069
113.646
122.689
132.151
141.979
152.117
162.506
173.088
183.806
194.589
97.6028
92.8261
88.1022
83.4673
78.9576
74.6095
70.4599
66.5454
62.9019
59.5649
56.5686
53.9462
51.7295
49.9487
48.6324
47.8078
47.5001
47.7326
48.5267
49.9013
51.873
54.4554
57.6589
61.4904
65.9529
71.0446
76.7591
83.0847
90.0041
97.4942
105.526
114.063
123.065
132.484
142.268
152.361
162.702
173.232
183.896
194.619
97.6565
92.9859
88.3648
83.8271
79.4078
75.1422
71.0666
67.2173
63.6303
60.3413
57.3848
54.7945
52.6024
50.8394
49.5345
48.7153
48.4075
48.6348
49.4191
50.7797
52.7335
55.2947
58.4739
62.2784
66.7113
71.7712
77.4518
83.7416
90.6232
98.0734
106.063
114.556
123.511
132.882
142.614
152.652
162.935
173.405
184.002
194.655
97.7188
93.1712
88.6685
84.2421
79.9252
75.7522
71.7587
67.9811
64.4557
61.2186
58.3048
55.7487
53.5828
51.8387
50.546
49.7327
49.4251
49.6474
50.4218
51.7682
53.7039
56.2433
59.3975
63.1739
67.5761
72.6028
78.2477
84.4993
91.3404
98.7474
106.691
115.135
124.038
133.352
143.025
152.999
163.214
173.611
184.13
194.698
97.7916
93.3871
89.0214
84.7226
80.5215
76.4517
72.5487
68.8491
65.39
62.208
59.3394
56.819
54.6806
52.9561
51.676
50.8689
50.5616
50.7788
51.5433
52.8754
54.7926
57.3098
60.4385
64.1862
68.5567
73.5488
79.1565
85.3682
92.1662
99.5272
107.421
115.812
124.657
133.908
143.512
153.412
163.547
173.857
184.281
194.749
97.8773
93.6408
89.4344
85.2815
81.211
77.2556
73.4512
69.8354
66.4463
63.3221
60.5001
58.0164
55.9057
54.201
52.9334
52.1324
51.8253
52.0374
52.7919
54.1094
56.008
58.5028
61.6055
65.3241
69.6623
74.6191
80.1884
86.3586
93.1119
100.424
108.266
116.599
125.381
134.563
144.091
153.905
163.946
174.153
184.464
194.812
97.9795
93.942
89.9218
85.9362
82.0119
78.1819
74.4833
70.9557
67.6393
64.574
61.799
59.3518
57.2684
55.5829
54.3273
53.5318
53.2244
53.431
54.1752
55.478
57.3579
59.8303
62.907
66.5963
70.9019
75.8231
81.3536
87.4815
94.1891
101.452
109.238
117.512
126.227
135.334
144.776
154.495
164.427
174.511
184.685
194.89
98.1034
94.3053
90.5041
86.7095
82.9472
79.2523
75.665
72.228
68.9847
65.9778
63.2486
60.8364
58.7788
57.111
55.8661
55.075
54.7665
54.967
55.7005
56.9885
58.8497
61.2997
64.3507
68.011
72.2846
77.1704
82.6624
88.7484
95.4103
102.623
110.355
118.567
127.213
136.24
145.592
155.204
165.011
174.952
184.96
194.989
98.2579
94.7534
91.211
87.6324
84.0462
80.4931
77.0189
73.6718
70.4994
67.5478
64.8611
62.4809
60.4462
58.7937
57.5574
56.7692
56.4584
56.6519
57.3743
58.6474
60.4901
62.9183
65.9443
69.5766
73.8191
78.6709
84.1258
90.1715
96.7893
103.954
111.632
119.784
128.362
137.31
146.566
156.064
165.73
175.503
185.306
195.114
98.459
95.3248
92.0869
88.7471
85.3458
81.935
78.5704
75.3076
72.2
69.2979
66.6483
64.2951
62.2792
60.6385
59.4081
58.6206
58.306
58.4917
59.2026
60.4608
62.2856
64.693
67.6955
71.3015
75.5151
80.3355
85.7562
91.7647
98.3422
105.463
113.092
121.189
129.703
138.575
147.738
157.117
166.631
176.208
185.754
195.276
98.7381
96.0861
93.1978
90.1086
86.8889
83.6109
80.3444
77.1545
74.1012
71.2393
68.619
66.2863
64.2839
62.6507
61.4229
60.6338
60.3139
60.491
61.1905
62.4346
64.2429
66.6314
69.6129
73.1958
77.3842
82.1773
87.5686
93.5455
100.089
107.171
114.76
122.81
131.27
140.077
149.157
158.427
167.786
177.143
186.365
195.504
99.2081
97.1588
94.6292
91.7778
88.7178
85.5491
82.3594
79.2245
76.2107
73.3768
70.776
68.4562
66.4612
64.8313
63.6031
62.8105
62.4846
62.6534
63.3426
64.5746
66.3691
68.7424
71.7071
75.2719
79.4408
84.213
89.582
95.5349
102.052
109.107
116.665
124.681
133.1
141.859
150.877
160.062
169.292
178.44
187.287
195.91
100.075
98.7861
96.5521
93.8605
90.8968
87.7884
84.638
81.5296
78.534
75.7124
73.1193
70.8038
68.8105
67.18
65.9495
65.1531
64.8221
64.9848
65.6668
66.8909
68.6767
71.0405
73.995
77.549
81.7064
86.4665
91.8225
97.7619
104.265
111.304
118.844
126.839
135.235
143.965
152.946
162.081
171.235
180.26
188.843
196.928
)
;

boundaryField
{
    carasuperior
    {
        type            fixedGradient;
        gradient        uniform 100;
    }
    lateralizquierda
    {
        type            fixedValue;
        value           uniform 100;
    }
    lateralderecha
    {
        type            fixedValue;
        value           uniform 200;
    }
    carainferior
    {
        type            zeroGradient;
    }
    frontAndBack
    {
        type            empty;
    }
}


// ************************************************************************* //
