/*--------------------------------*- C++ -*----------------------------------*\
| =========                 |                                                 |
| \\      /  F ield         | OpenFOAM: The Open Source CFD Toolbox           |
|  \\    /   O peration     | Version:  2.4.0                                 |
|   \\  /    A nd           | Web:      www.OpenFOAM.org                      |
|    \\/     M anipulation  |                                                 |
\*---------------------------------------------------------------------------*/
FoamFile
{
    version     2.0;
    format      ascii;
    class       volScalarField;
    location    "0.53";
    object      T;
}
// * * * * * * * * * * * * * * * * * * * * * * * * * * * * * * * * * * * * * //

dimensions      [0 0 0 1 0 0 0];

internalField   nonuniform List<scalar> 
1600
(
101.37
104.11
106.848
109.582
112.312
115.037
117.755
120.464
123.164
125.853
128.53
131.194
133.843
136.477
139.095
141.695
144.277
146.84
149.384
151.908
154.411
156.895
159.358
161.801
164.224
166.628
169.014
171.382
173.734
176.07
178.393
180.702
182.999
185.287
187.565
189.836
192.101
194.361
196.618
198.873
101.371
104.112
106.852
109.589
112.321
115.047
117.766
120.478
123.179
125.87
128.548
131.213
133.864
136.499
139.118
141.719
144.302
146.866
149.41
151.934
154.438
156.921
159.384
161.826
164.249
166.652
169.037
171.404
173.754
176.089
178.41
180.717
183.013
185.299
187.576
189.845
192.108
194.366
196.621
198.874
101.373
104.118
106.861
109.601
112.337
115.066
117.789
120.504
123.208
125.902
128.584
131.252
133.905
136.543
139.163
141.766
144.351
146.916
149.461
151.986
154.49
156.973
159.435
161.877
164.299
166.7
169.083
171.448
173.796
176.128
178.445
180.749
183.042
185.324
187.597
189.862
192.122
194.376
196.627
198.876
101.375
104.126
106.874
109.619
112.36
115.095
117.823
120.542
123.252
125.95
128.636
131.308
133.965
136.606
139.23
141.836
144.423
146.99
149.537
152.063
154.567
157.05
159.512
161.952
164.372
166.772
169.152
171.513
173.857
176.185
178.498
180.797
183.085
185.361
187.629
189.888
192.142
194.391
196.636
198.879
101.379
104.136
106.892
109.644
112.392
115.133
117.868
120.594
123.309
126.014
128.705
131.383
134.045
136.69
139.318
141.928
144.518
147.087
149.636
152.163
154.668
157.152
159.613
162.052
164.47
166.866
169.243
171.6
173.939
176.262
178.569
180.862
183.142
185.411
187.671
189.924
192.169
194.41
196.647
198.883
101.383
104.149
106.913
109.674
112.431
115.181
117.923
120.657
123.381
126.092
128.791
131.475
134.143
136.794
139.427
142.041
144.635
147.208
149.759
152.288
154.794
157.277
159.737
162.175
164.59
166.984
169.356
171.708
174.041
176.357
178.657
180.942
183.214
185.474
187.725
189.968
192.204
194.435
196.662
198.888
101.389
104.165
106.939
109.711
112.477
115.237
117.99
120.733
123.465
126.185
128.892
131.584
134.259
136.917
139.556
142.175
144.774
147.35
149.904
152.435
154.942
157.426
159.885
162.321
164.734
167.123
169.491
171.837
174.164
176.471
178.762
181.038
183.3
185.55
187.789
190.021
192.245
194.465
196.68
198.894
101.395
104.183
106.97
109.753
112.531
115.303
118.066
120.82
123.563
126.293
129.01
131.71
134.394
137.059
139.705
142.33
144.934
147.514
150.072
152.605
155.114
157.597
160.056
162.49
164.899
167.285
169.647
171.987
174.305
176.604
178.885
181.15
183.4
185.638
187.865
190.083
192.294
194.499
196.701
198.901
101.402
104.204
107.004
109.801
112.593
115.377
118.154
120.92
123.675
126.416
129.143
131.853
134.546
137.22
139.873
142.505
145.114
147.7
150.261
152.797
155.307
157.791
160.249
162.681
165.087
167.468
169.824
172.156
174.466
176.756
179.026
181.278
183.515
185.739
187.951
190.154
192.349
194.539
196.725
198.909
101.409
104.227
107.043
109.855
112.662
115.461
118.252
121.032
123.8
126.554
129.292
132.014
134.717
137.4
140.061
142.7
145.316
147.907
150.472
153.01
155.522
158.007
160.464
162.893
165.296
167.672
170.021
172.346
174.647
176.925
179.183
181.422
183.645
185.853
188.048
190.234
192.412
194.584
196.752
198.918
101.418
104.253
107.086
109.915
112.739
115.554
118.361
121.156
123.938
126.706
129.457
132.191
134.905
137.598
140.269
142.916
145.538
148.134
150.703
153.245
155.758
158.243
160.699
163.126
165.525
167.895
170.238
172.555
174.846
177.112
179.357
181.582
183.788
185.979
188.157
190.324
192.482
194.634
196.782
198.928
101.428
104.282
107.134
109.982
112.824
115.657
118.481
121.293
124.091
126.874
129.639
132.385
135.111
137.815
140.495
143.151
145.78
148.381
150.955
153.5
156.015
158.5
160.955
163.379
165.774
168.139
170.474
172.782
175.062
177.317
179.548
181.757
183.946
186.119
188.277
190.423
192.56
194.69
196.816
198.939
101.438
104.313
107.187
110.055
112.917
115.77
118.613
121.443
124.258
127.057
129.837
132.598
135.336
138.052
140.742
143.406
146.042
148.65
151.228
153.775
156.292
158.777
161.231
163.652
166.042
168.401
170.729
173.027
175.297
177.539
179.755
181.948
184.119
186.271
188.408
190.531
192.645
194.751
196.853
198.951
101.45
104.348
107.244
110.135
113.019
115.894
118.757
121.607
124.441
127.257
130.054
132.829
135.581
138.308
141.009
143.682
146.326
148.939
151.522
154.072
156.59
159.075
161.527
163.945
166.33
168.683
171.003
173.291
175.549
177.777
179.978
182.154
184.306
186.437
188.551
190.65
192.738
194.818
196.893
198.964
101.463
104.386
107.308
110.223
113.131
116.029
118.915
121.785
124.639
127.474
130.288
133.08
135.846
138.586
141.298
143.98
146.632
149.251
151.838
154.392
156.911
159.395
161.844
164.259
166.639
168.984
171.295
173.573
175.819
178.033
180.218
182.375
184.507
186.616
188.705
190.778
192.839
194.891
196.937
198.979
101.477
104.428
107.377
110.319
113.254
116.177
119.086
121.98
124.856
127.711
130.543
133.351
136.133
138.886
141.61
144.302
146.962
149.588
152.179
154.735
157.255
159.739
162.186
164.596
166.97
169.307
171.609
173.875
176.107
178.307
180.474
182.612
184.723
186.808
188.872
190.918
192.949
194.97
196.985
198.995
101.492
104.474
107.452
110.424
113.387
116.338
119.274
122.192
125.091
127.968
130.82
133.647
136.444
139.212
141.948
144.65
147.318
149.951
152.547
155.106
157.626
160.109
162.553
164.959
167.326
169.655
171.946
174.2
176.417
178.6
180.749
182.866
184.954
187.015
189.052
191.068
193.067
195.055
197.036
199.012
101.508
104.524
107.535
110.539
113.533
116.513
119.478
122.424
125.348
128.248
131.122
133.967
136.782
139.565
142.314
145.027
147.704
150.344
152.944
155.506
158.028
160.509
162.95
165.35
167.71
170.029
172.309
174.549
176.751
178.916
181.045
183.14
185.203
187.237
189.245
191.23
193.195
195.148
197.092
199.03
101.527
104.578
107.626
110.665
113.693
116.706
119.701
122.676
125.628
128.553
131.45
134.316
137.15
139.949
142.711
145.437
148.123
150.77
153.376
155.94
158.463
160.943
163.38
165.774
168.126
170.435
172.701
174.927
177.111
179.256
181.363
183.434
185.471
187.476
189.453
191.404
193.334
195.248
197.153
199.05
101.547
104.638
107.725
110.803
113.868
116.917
119.946
122.953
125.934
128.886
131.808
134.696
137.55
140.366
143.144
145.882
148.578
151.233
153.844
156.412
158.935
161.414
163.847
166.235
168.577
170.875
173.128
175.337
177.503
179.626
181.709
183.753
185.761
187.734
189.677
191.593
193.484
195.357
197.219
199.072
101.569
104.705
107.835
110.955
114.06
117.148
120.214
123.256
126.269
129.251
132.199
135.112
137.987
140.822
143.616
146.367
149.075
151.737
154.355
156.926
159.45
161.926
164.355
166.736
169.069
171.354
173.592
175.783
177.928
180.028
182.085
184.1
186.075
188.015
189.921
191.797
193.647
195.475
197.291
199.096
101.593
104.778
107.956
111.122
114.272
117.403
120.509
123.588
126.637
129.651
132.628
135.567
138.465
141.32
144.131
146.897
149.616
152.288
154.912
157.486
160.011
162.486
164.91
167.283
169.606
171.878
174.099
176.271
178.393
180.468
182.495
184.478
186.419
188.32
190.186
192.019
193.824
195.604
197.37
199.122
101.62
104.859
108.089
111.307
114.506
117.684
120.835
123.955
127.041
130.09
133.099
136.066
138.989
141.866
144.695
147.476
150.208
152.889
155.52
158.098
160.624
163.096
165.515
167.88
170.192
172.449
174.653
176.803
178.901
180.948
182.945
184.893
186.795
188.655
190.476
192.262
194.016
195.745
197.456
199.151
101.65
104.948
108.237
111.511
114.765
117.994
121.194
124.359
127.487
130.573
133.617
136.614
139.563
142.463
145.313
148.11
150.855
153.547
156.184
158.766
161.293
163.763
166.177
168.533
170.832
173.074
175.259
177.386
179.458
181.474
183.437
185.347
187.208
189.022
190.794
192.528
194.228
195.899
197.55
199.182
101.684
105.048
108.401
111.738
115.052
118.338
121.591
124.805
127.978
131.106
134.186
137.216
140.194
143.119
145.989
148.805
151.564
154.266
156.91
159.496
162.024
164.491
166.899
169.246
171.532
173.758
175.922
178.025
180.068
182.052
183.978
185.847
187.663
189.427
191.145
192.821
194.461
196.069
197.655
199.216
101.721
105.158
108.584
111.991
115.371
118.72
122.03
125.299
128.521
131.693
134.812
137.878
140.886
143.838
146.731
149.564
152.338
155.052
157.704
160.294
162.822
165.287
167.688
170.026
172.298
174.505
176.648
178.725
180.738
182.687
184.573
186.398
188.164
189.874
191.533
193.146
194.718
196.257
197.77
199.255
101.762
105.282
108.788
112.272
115.726
119.144
122.518
125.846
129.121
132.341
135.503
138.606
141.647
144.626
147.543
150.396
153.185
155.91
158.57
161.165
163.694
166.156
168.55
170.877
173.135
175.323
177.443
179.492
181.473
183.384
185.227
187.004
188.717
190.368
191.962
193.506
195.004
196.465
197.897
199.297
101.809
105.421
109.017
112.587
116.122
119.616
123.061
126.452
129.785
133.056
136.264
139.406
142.482
145.491
148.432
151.306
154.111
156.848
159.516
162.115
164.644
167.103
169.49
171.806
174.048
176.217
178.313
180.333
182.279
184.151
185.949
187.674
189.328
190.916
192.439
193.906
195.322
196.696
198.04
199.345
101.861
105.577
109.273
112.94
116.566
120.143
123.665
127.125
130.52
133.846
137.102
140.287
143.399
146.438
149.405
152.299
155.121
157.87
160.547
163.15
165.679
168.134
170.514
172.818
175.045
177.194
179.264
181.254
183.164
184.994
186.743
188.413
190.006
191.523
192.97
194.353
195.678
196.956
198.198
199.398
101.92
105.753
109.563
113.337
117.063
120.733
124.338
127.873
131.334
134.719
138.026
141.254
144.404
147.475
150.468
153.384
156.222
158.984
161.668
164.275
166.805
169.257
171.629
173.921
176.132
178.26
180.304
182.263
184.135
185.921
187.619
189.231
190.757
192.199
193.562
194.852
196.077
197.248
198.377
199.457
101.987
105.953
109.891
113.785
117.623
121.394
125.089
128.705
132.236
135.682
139.042
142.316
145.505
148.608
151.628
154.565
157.42
160.194
162.887
165.498
168.028
170.476
172.84
175.12
177.314
179.421
181.439
183.365
185.2
186.94
188.586
190.136
191.591
192.953
194.225
195.414
196.527
197.578
198.578
199.525
102.064
106.181
110.265
114.295
118.256
122.137
125.93
129.631
133.237
136.747
140.161
143.481
146.709
149.845
152.891
155.85
158.722
161.508
164.208
166.823
169.353
171.797
174.154
176.422
178.599
180.685
182.676
184.571
186.366
188.061
189.652
191.138
192.519
193.795
194.97
196.047
197.036
197.953
198.807
199.602
102.154
106.445
110.695
114.877
118.974
122.975
126.873
130.663
134.346
137.921
141.39
144.757
148.023
151.192
154.264
157.244
160.132
162.929
165.638
168.257
170.787
173.226
175.575
177.832
179.993
182.058
184.024
185.886
187.643
189.292
190.828
192.249
193.553
194.739
195.809
196.766
197.618
198.382
199.07
199.692
102.258
106.754
111.194
115.547
119.795
123.925
127.932
131.815
135.575
139.215
142.74
146.152
149.456
152.655
155.753
158.753
161.656
164.465
167.181
169.803
172.333
174.769
177.111
179.356
181.502
183.547
185.488
187.32
189.04
190.643
192.125
193.481
194.707
195.801
196.759
197.586
198.287
198.879
199.376
199.798
102.383
107.12
111.781
116.327
120.737
125.003
129.123
133.1
136.937
140.641
144.218
147.674
151.014
154.242
157.364
160.382
163.3
166.119
168.842
171.467
173.997
176.43
178.765
181
183.132
185.159
187.077
188.881
190.566
192.126
193.556
194.849
195.998
196.997
197.842
198.531
199.066
199.464
199.739
199.926
102.537
107.567
112.485
117.244
121.828
126.234
130.467
134.534
138.445
142.209
145.835
149.331
152.703
155.959
159.102
162.137
165.068
167.896
170.625
173.254
175.784
178.214
180.543
182.769
184.889
186.9
188.797
190.576
192.23
193.752
195.134
196.369
197.445
198.352
199.082
199.627
199.983
200.164
200.178
200.083
102.736
108.13
113.345
118.336
123.099
127.643
131.982
136.133
140.111
143.929
147.598
151.129
154.53
157.809
160.971
164.021
166.963
169.8
172.534
175.166
177.696
180.125
182.449
184.668
186.778
188.776
190.657
192.414
194.042
195.531
196.873
198.056
199.067
199.891
200.512
200.914
201.082
201.021
200.721
200.277
103.009
108.873
114.424
119.653
124.587
129.257
133.691
137.914
141.949
145.811
149.516
153.076
156.501
159.799
162.976
166.039
168.991
171.835
174.574
177.209
179.741
182.168
184.49
186.704
188.807
190.795
192.663
194.405
196.012
197.476
198.786
199.929
200.888
201.643
202.171
202.445
202.429
202.107
201.426
200.538
103.469
109.913
115.8
121.249
126.332
131.106
135.614
139.893
143.97
147.867
151.599
155.181
158.624
161.936
165.126
168.198
171.158
174.008
176.752
179.39
181.923
184.35
186.671
188.882
190.981
192.964
194.824
196.555
198.149
199.597
200.886
202
202.923
203.631
204.092
204.271
204.106
203.542
202.437
200.977
104.316
111.499
117.66
123.258
128.433
133.264
137.813
142.121
146.22
150.134
153.881
157.474
160.927
164.247
167.444
170.521
173.485
176.339
179.086
181.725
184.26
186.687
189.007
191.218
193.314
195.293
197.149
198.875
200.463
201.901
203.178
204.278
205.18
205.861
206.285
206.411
206.164
205.464
204.067
202.027
)
;

boundaryField
{
    carasuperior
    {
        type            fixedGradient;
        gradient        uniform 100;
    }
    lateralizquierda
    {
        type            fixedValue;
        value           uniform 100;
    }
    lateralderecha
    {
        type            fixedValue;
        value           uniform 200;
    }
    carainferior
    {
        type            zeroGradient;
    }
    frontAndBack
    {
        type            empty;
    }
}


// ************************************************************************* //
