/*--------------------------------*- C++ -*----------------------------------*\
| =========                 |                                                 |
| \\      /  F ield         | OpenFOAM: The Open Source CFD Toolbox           |
|  \\    /   O peration     | Version:  2.4.0                                 |
|   \\  /    A nd           | Web:      www.OpenFOAM.org                      |
|    \\/     M anipulation  |                                                 |
\*---------------------------------------------------------------------------*/
FoamFile
{
    version     2.0;
    format      ascii;
    class       volScalarField;
    location    "0.0017";
    object      T;
}
// * * * * * * * * * * * * * * * * * * * * * * * * * * * * * * * * * * * * * //

dimensions      [0 0 0 1 0 0 0];

internalField   nonuniform List<scalar> 
4800
(
100.155
100.467
100.784
101.108
101.438
101.776
102.116
102.453
102.781
103.091
100.467
101.407
102.361
103.336
104.335
105.353
106.382
107.404
108.397
109.334
100.784
102.361
103.964
105.604
107.287
109.008
110.749
112.483
114.168
115.759
101.107
103.336
105.604
107.93
110.324
112.78
115.276
117.769
120.197
122.487
101.438
104.334
107.286
110.323
113.461
116.697
120.005
123.327
126.576
129.638
101.775
105.353
109.007
112.779
116.697
120.765
124.957
129.205
133.39
137.339
102.115
106.381
110.747
115.273
120.003
124.956
130.116
135.416
140.705
145.731
102.453
107.402
112.48
117.765
123.323
129.202
135.414
141.915
148.552
154.983
102.78
108.393
114.164
120.191
126.57
133.384
140.7
148.55
156.862
165.287
103.09
109.33
115.752
122.478
129.628
137.33
145.723
154.977
165.284
176.718
100.155
100.467
100.784
101.108
101.438
101.776
102.116
102.453
102.781
103.091
100.467
101.407
102.361
103.336
104.335
105.354
106.382
107.404
108.397
109.334
100.784
102.361
103.964
105.604
107.287
109.008
110.749
112.483
114.168
115.759
101.107
103.336
105.604
107.93
110.324
112.78
115.276
117.769
120.197
122.486
101.438
104.334
107.287
110.323
113.461
116.697
120.005
123.327
126.576
129.637
101.775
105.353
109.007
112.779
116.697
120.765
124.957
129.205
133.39
137.339
102.115
106.381
110.747
115.274
120.003
124.956
130.117
135.416
140.705
145.731
102.453
107.402
112.48
117.765
123.323
129.202
135.414
141.915
148.553
154.983
102.78
108.394
114.164
120.191
126.57
133.384
140.701
148.55
156.862
165.287
103.09
109.33
115.753
122.478
129.629
137.33
145.724
154.978
165.285
176.719
100.155
100.467
100.784
101.108
101.438
101.776
102.116
102.453
102.781
103.091
100.467
101.407
102.361
103.336
104.335
105.354
106.382
107.404
108.397
109.334
100.784
102.361
103.964
105.604
107.287
109.008
110.749
112.483
114.168
115.759
101.107
103.336
105.604
107.93
110.324
112.78
115.276
117.769
120.197
122.486
101.438
104.334
107.287
110.323
113.461
116.697
120.005
123.327
126.576
129.637
101.775
105.353
109.007
112.779
116.697
120.765
124.957
129.205
133.39
137.339
102.115
106.381
110.747
115.274
120.003
124.956
130.117
135.416
140.705
145.731
102.453
107.402
112.48
117.765
123.323
129.202
135.414
141.915
148.553
154.983
102.78
108.394
114.164
120.191
126.57
133.384
140.701
148.55
156.862
165.287
103.09
109.33
115.753
122.478
129.629
137.33
145.724
154.978
165.285
176.719
100.155
100.467
100.784
101.108
101.438
101.776
102.116
102.453
102.781
103.091
100.467
101.407
102.361
103.336
104.335
105.353
106.382
107.404
108.397
109.334
100.784
102.361
103.964
105.604
107.287
109.008
110.749
112.483
114.168
115.759
101.107
103.336
105.604
107.93
110.324
112.78
115.276
117.769
120.197
122.487
101.438
104.334
107.287
110.323
113.461
116.697
120.005
123.327
126.576
129.637
101.775
105.353
109.007
112.779
116.697
120.765
124.957
129.205
133.39
137.339
102.115
106.381
110.747
115.273
120.003
124.955
130.116
135.416
140.705
145.731
102.453
107.402
112.48
117.765
123.323
129.202
135.414
141.915
148.552
154.983
102.78
108.393
114.164
120.191
126.57
133.384
140.7
148.55
156.862
165.287
103.09
109.33
115.752
122.478
129.628
137.33
145.723
154.977
165.284
176.718
103.375
103.627
103.844
104.024
104.169
104.282
104.367
104.428
104.466
104.485
104.485
104.466
104.427
104.367
104.282
104.169
104.024
103.844
103.627
103.375
110.192
110.952
111.601
112.139
112.57
112.906
113.157
113.334
113.447
113.502
113.502
113.447
113.334
113.156
112.905
112.57
112.138
111.6
110.951
110.192
117.21
118.485
119.567
120.455
121.161
121.705
122.109
122.394
122.574
122.661
122.661
122.573
122.393
122.108
121.704
121.159
120.453
119.565
118.483
117.208
124.563
126.369
127.879
129.1
130.057
130.786
131.321
131.694
131.929
132.042
132.042
131.928
131.693
131.319
130.784
130.055
129.098
127.877
126.366
124.561
132.392
134.748
136.676
138.199
139.366
140.238
140.869
141.304
141.576
141.707
141.707
141.576
141.303
140.867
140.236
139.364
138.196
136.673
134.745
132.389
140.855
143.784
146.098
147.863
149.175
150.131
150.809
151.27
151.555
151.691
151.691
151.554
151.268
150.807
150.128
149.172
147.86
146.095
143.781
140.852
150.152
153.668
156.294
158.193
159.547
160.5
161.161
161.603
161.873
162.001
162.001
161.872
161.601
161.159
160.498
159.544
158.191
156.291
153.665
150.15
160.592
164.662
167.422
169.266
170.506
171.344
171.909
172.28
172.505
172.611
172.61
172.504
172.279
171.908
171.343
170.504
169.264
167.419
164.66
160.59
172.774
177.15
179.633
181.103
182.017
182.607
182.993
183.242
183.391
183.461
183.461
183.391
183.241
182.992
182.606
182.016
181.102
179.632
177.149
172.773
188.217
191.658
192.97
193.597
193.949
194.166
194.304
194.392
194.444
194.469
194.469
194.444
194.392
194.304
194.165
193.949
193.597
192.97
191.658
188.216
103.375
103.627
103.844
104.024
104.169
104.282
104.367
104.427
104.466
104.484
104.484
104.465
104.427
104.367
104.282
104.168
104.023
103.843
103.626
103.374
110.192
110.951
111.601
112.138
112.57
112.906
113.157
113.334
113.447
113.502
113.501
113.446
113.333
113.156
112.904
112.569
112.137
111.599
110.949
110.19
117.21
118.485
119.567
120.454
121.16
121.705
122.109
122.393
122.573
122.66
122.66
122.573
122.392
122.107
121.703
121.158
120.452
119.564
118.482
117.207
124.563
126.369
127.879
129.1
130.057
130.785
131.32
131.693
131.928
132.041
132.041
131.927
131.692
131.318
130.783
130.054
129.097
127.876
126.365
124.559
132.392
134.748
136.676
138.198
139.366
140.238
140.869
141.304
141.576
141.706
141.706
141.575
141.302
140.866
140.235
139.362
138.194
136.672
134.744
132.388
140.855
143.784
146.098
147.863
149.175
150.13
150.808
151.269
151.554
151.691
151.69
151.553
151.267
150.806
150.127
149.171
147.858
146.094
143.779
140.851
150.152
153.668
156.293
158.193
159.546
160.5
161.16
161.602
161.872
162
162
161.871
161.6
161.158
160.497
159.543
158.189
156.289
153.664
150.148
160.592
164.662
167.421
169.266
170.506
171.344
171.909
172.279
172.504
172.61
172.609
172.503
172.278
171.907
171.342
170.503
169.263
167.418
164.658
160.588
172.774
177.15
179.633
181.102
182.016
182.606
182.992
183.241
183.39
183.46
183.46
183.39
183.24
182.991
182.604
182.014
181.1
179.631
177.148
172.772
188.217
191.658
192.97
193.597
193.949
194.165
194.303
194.392
194.444
194.468
194.468
194.444
194.391
194.303
194.165
193.948
193.596
192.969
191.657
188.215
103.375
103.627
103.844
104.024
104.169
104.282
104.367
104.427
104.466
104.484
104.484
104.465
104.427
104.367
104.282
104.168
104.023
103.843
103.626
103.374
110.192
110.951
111.601
112.138
112.57
112.906
113.157
113.334
113.447
113.502
113.501
113.446
113.333
113.156
112.904
112.569
112.137
111.599
110.949
110.19
117.21
118.485
119.567
120.454
121.16
121.705
122.109
122.393
122.573
122.66
122.66
122.573
122.392
122.107
121.703
121.158
120.452
119.564
118.482
117.207
124.563
126.369
127.879
129.1
130.057
130.785
131.32
131.693
131.928
132.041
132.041
131.927
131.692
131.318
130.783
130.054
129.097
127.876
126.365
124.559
132.392
134.748
136.676
138.198
139.366
140.238
140.869
141.304
141.576
141.706
141.706
141.575
141.302
140.866
140.235
139.362
138.194
136.672
134.744
132.388
140.855
143.784
146.098
147.863
149.175
150.13
150.808
151.269
151.554
151.691
151.69
151.553
151.267
150.806
150.127
149.171
147.858
146.094
143.779
140.851
150.152
153.668
156.293
158.193
159.546
160.5
161.16
161.602
161.872
162
162
161.871
161.6
161.158
160.497
159.543
158.189
156.289
153.664
150.148
160.592
164.662
167.421
169.266
170.506
171.344
171.909
172.279
172.504
172.61
172.609
172.503
172.278
171.907
171.341
170.503
169.263
167.418
164.658
160.588
172.774
177.15
179.633
181.102
182.016
182.606
182.992
183.241
183.39
183.46
183.46
183.39
183.24
182.991
182.604
182.014
181.1
179.631
177.148
172.772
188.217
191.658
192.97
193.597
193.949
194.165
194.303
194.392
194.444
194.468
194.468
194.444
194.391
194.303
194.165
193.948
193.596
192.969
191.657
188.215
103.375
103.627
103.844
104.024
104.169
104.282
104.367
104.428
104.466
104.485
104.485
104.466
104.427
104.367
104.282
104.169
104.024
103.844
103.627
103.375
110.192
110.952
111.601
112.139
112.57
112.906
113.157
113.334
113.447
113.502
113.502
113.447
113.334
113.156
112.905
112.57
112.138
111.6
110.951
110.192
117.21
118.485
119.567
120.455
121.161
121.705
122.109
122.394
122.574
122.661
122.661
122.573
122.393
122.108
121.704
121.159
120.453
119.565
118.483
117.208
124.563
126.369
127.879
129.1
130.057
130.786
131.321
131.694
131.929
132.042
132.042
131.928
131.693
131.319
130.784
130.055
129.098
127.877
126.366
124.561
132.392
134.748
136.676
138.199
139.366
140.238
140.869
141.304
141.576
141.707
141.707
141.576
141.303
140.867
140.236
139.364
138.196
136.673
134.745
132.389
140.855
143.784
146.098
147.863
149.175
150.131
150.809
151.27
151.555
151.691
151.691
151.554
151.268
150.807
150.128
149.172
147.86
146.095
143.781
140.852
150.152
153.668
156.294
158.193
159.547
160.5
161.161
161.603
161.873
162.001
162.001
161.872
161.601
161.159
160.498
159.544
158.191
156.291
153.665
150.15
160.592
164.662
167.422
169.266
170.506
171.344
171.909
172.28
172.505
172.61
172.61
172.504
172.279
171.908
171.343
170.504
169.264
167.419
164.66
160.59
172.774
177.15
179.633
181.103
182.017
182.607
182.993
183.242
183.391
183.461
183.461
183.391
183.241
182.992
182.606
182.016
181.102
179.632
177.149
172.773
188.217
191.658
192.97
193.597
193.949
194.166
194.304
194.392
194.444
194.469
194.469
194.444
194.392
194.304
194.165
193.949
193.597
192.97
191.658
188.216
103.091
102.781
102.454
102.116
101.776
101.439
101.108
100.784
100.468
100.155
109.334
108.396
107.404
106.382
105.354
104.335
103.337
102.362
101.408
100.468
115.758
114.168
112.483
110.749
109.008
107.288
105.605
103.964
102.362
100.784
122.485
120.196
117.768
115.276
112.78
110.324
107.931
105.605
103.337
101.108
129.636
126.575
123.327
120.005
116.698
113.462
110.324
107.287
104.335
101.439
137.337
133.388
129.205
124.957
120.765
116.698
112.78
109.008
105.354
101.776
145.73
140.704
135.416
130.117
124.957
120.004
115.275
110.749
106.382
102.116
154.982
148.552
141.916
135.416
129.204
123.326
117.767
112.482
107.403
102.453
165.288
156.863
148.552
140.703
133.387
126.573
120.194
114.166
108.395
102.781
176.719
165.286
154.98
145.727
137.333
129.632
122.481
115.755
109.332
103.091
103.09
102.781
102.453
102.115
101.775
101.438
101.107
100.784
100.467
100.155
109.332
108.395
107.403
106.381
105.352
104.334
103.336
102.36
101.406
100.467
115.757
114.166
112.481
110.748
109.006
107.286
105.603
103.963
102.361
100.784
122.483
120.194
117.766
115.274
112.779
110.323
107.929
105.603
103.336
101.107
129.634
126.573
123.325
120.003
116.696
113.46
110.323
107.286
104.334
101.438
137.335
133.387
129.203
124.956
120.764
116.696
112.778
109.006
105.352
101.775
145.728
140.703
135.414
130.116
124.955
120.003
115.273
110.747
106.381
102.115
154.981
148.551
141.914
135.414
129.202
123.324
117.765
112.48
107.402
102.453
165.286
156.861
148.55
140.701
133.385
126.571
120.192
114.164
108.394
102.78
176.717
165.284
154.978
145.725
137.331
129.63
122.48
115.754
109.33
103.09
103.09
102.781
102.453
102.115
101.775
101.438
101.107
100.784
100.467
100.155
109.332
108.395
107.403
106.381
105.352
104.334
103.336
102.36
101.406
100.467
115.757
114.166
112.481
110.748
109.006
107.286
105.603
103.963
102.361
100.784
122.483
120.194
117.767
115.274
112.779
110.323
107.929
105.603
103.336
101.107
129.634
126.573
123.325
120.003
116.696
113.46
110.323
107.286
104.334
101.438
137.335
133.387
129.203
124.956
120.764
116.696
112.778
109.006
105.352
101.775
145.728
140.703
135.414
130.115
124.955
120.003
115.273
110.747
106.381
102.115
154.981
148.551
141.914
135.414
129.202
123.324
117.765
112.48
107.402
102.453
165.286
156.861
148.55
140.701
133.385
126.571
120.192
114.164
108.394
102.78
176.717
165.284
154.978
145.725
137.331
129.63
122.48
115.753
109.33
103.09
103.091
102.781
102.454
102.116
101.776
101.439
101.108
100.784
100.468
100.155
109.334
108.396
107.404
106.382
105.354
104.335
103.337
102.362
101.408
100.468
115.758
114.168
112.483
110.749
109.008
107.288
105.605
103.964
102.362
100.784
122.485
120.196
117.768
115.276
112.78
110.324
107.931
105.605
103.337
101.108
129.636
126.575
123.327
120.005
116.698
113.462
110.324
107.287
104.335
101.439
137.337
133.388
129.205
124.957
120.765
116.698
112.78
109.008
105.354
101.776
145.73
140.704
135.416
130.117
124.957
120.004
115.275
110.749
106.382
102.116
154.982
148.552
141.916
135.415
129.204
123.325
117.767
112.482
107.403
102.453
165.288
156.863
148.552
140.703
133.387
126.573
120.194
114.166
108.395
102.781
176.719
165.286
154.98
145.727
137.333
129.632
122.481
115.755
109.332
103.091
188.217
172.771
160.586
150.145
140.847
132.383
124.555
117.204
110.189
103.374
191.657
177.145
164.653
153.657
143.771
134.735
126.357
118.476
110.946
103.625
192.967
179.625
167.409
156.277
146.08
136.658
127.863
119.554
111.593
103.841
193.594
181.091
169.248
158.17
147.836
138.172
129.077
120.436
112.127
104.02
193.944
182
170.48
159.514
149.138
139.329
130.024
121.134
112.554
104.163
194.158
182.583
171.308
160.454
150.079
140.187
130.739
121.669
112.883
104.274
194.293
182.961
171.859
161.097
150.738
140.798
131.257
122.059
113.125
104.356
194.377
183.198
172.211
161.515
151.173
141.207
131.607
122.325
113.291
104.413
194.424
183.33
172.41
161.754
151.423
141.445
131.81
122.48
113.388
104.446
194.441
183.379
172.482
161.84
151.513
141.529
131.883
122.535
113.422
104.457
194.431
183.35
172.437
161.783
151.451
141.468
131.828
122.492
113.394
104.448
194.393
183.241
172.271
161.581
151.234
141.258
131.644
122.35
113.304
104.417
194.323
183.041
171.969
161.214
150.844
140.884
131.318
122.099
113.147
104.363
194.211
182.725
171.496
160.647
150.248
140.318
130.83
121.725
112.912
104.284
194.042
182.25
170.797
159.825
149.398
139.521
130.151
121.209
112.591
104.175
193.784
181.542
169.785
158.664
148.226
138.443
129.245
120.528
112.17
104.032
193.373
180.469
168.318
157.048
146.645
137.025
128.074
119.659
111.637
103.852
192.659
178.78
166.175
154.818
144.552
135.203
126.602
118.582
110.982
103.633
191.197
175.978
163.024
151.786
141.851
132.931
124.807
117.289
110.202
103.372
187.427
171.12
158.449
147.788
138.485
130.197
122.695
115.789
109.305
103.074
188.215
172.769
160.584
150.143
140.844
132.381
124.553
117.202
110.187
103.373
191.655
177.143
164.651
153.654
143.769
134.733
126.355
118.474
110.944
103.625
192.966
179.623
167.406
156.275
146.077
136.656
127.861
119.552
111.591
103.84
193.592
181.088
169.245
158.167
147.834
138.17
129.074
120.434
112.125
104.019
193.942
181.998
170.477
159.511
149.135
139.327
130.022
121.132
112.552
104.162
194.156
182.581
171.305
160.451
150.076
140.184
130.737
121.666
112.881
104.273
194.291
182.958
171.856
161.094
150.735
140.796
131.255
122.057
113.123
104.355
194.375
183.194
172.207
161.512
151.17
141.205
131.604
122.323
113.289
104.411
194.422
183.327
172.407
161.75
151.42
141.442
131.808
122.478
113.386
104.444
194.439
183.376
172.478
161.836
151.51
141.526
131.88
122.533
113.42
104.456
194.429
183.346
172.433
161.78
151.448
141.466
131.826
122.49
113.392
104.447
194.391
183.238
172.268
161.578
151.231
141.255
131.642
122.347
113.302
104.416
194.32
183.037
171.965
161.211
150.841
140.881
131.316
122.096
113.144
104.362
194.209
182.721
171.492
160.644
150.245
140.314
130.827
121.722
112.91
104.282
194.039
182.246
170.793
159.821
149.395
139.518
130.148
121.206
112.589
104.173
193.781
181.538
169.781
158.661
148.222
138.44
129.242
120.526
112.168
104.031
193.371
180.465
168.314
157.044
146.641
137.021
128.071
119.656
111.634
103.851
192.656
178.776
166.171
154.814
144.549
135.2
126.599
118.58
110.979
103.631
191.194
175.975
163.02
151.782
141.847
132.928
124.804
117.287
110.2
103.371
187.424
171.116
158.446
147.784
138.481
130.194
122.692
115.786
109.303
103.073
188.215
172.769
160.584
150.143
140.844
132.381
124.553
117.202
110.187
103.373
191.655
177.143
164.651
153.654
143.769
134.733
126.355
118.474
110.944
103.625
192.966
179.623
167.406
156.275
146.077
136.656
127.861
119.552
111.591
103.84
193.592
181.088
169.245
158.167
147.834
138.17
129.074
120.434
112.125
104.019
193.942
181.998
170.477
159.511
149.135
139.327
130.022
121.132
112.552
104.162
194.156
182.581
171.305
160.451
150.076
140.184
130.737
121.666
112.881
104.273
194.291
182.958
171.856
161.094
150.735
140.796
131.255
122.057
113.123
104.355
194.375
183.194
172.207
161.512
151.17
141.205
131.604
122.323
113.289
104.411
194.422
183.327
172.407
161.75
151.42
141.442
131.808
122.478
113.386
104.444
194.439
183.376
172.479
161.836
151.51
141.526
131.88
122.533
113.42
104.456
194.429
183.346
172.433
161.78
151.448
141.466
131.826
122.49
113.392
104.447
194.391
183.238
172.268
161.578
151.231
141.255
131.642
122.347
113.302
104.416
194.32
183.037
171.965
161.211
150.841
140.881
131.316
122.096
113.144
104.362
194.209
182.721
171.492
160.644
150.245
140.314
130.827
121.722
112.91
104.282
194.039
182.246
170.793
159.821
149.395
139.518
130.148
121.206
112.589
104.173
193.781
181.538
169.781
158.661
148.222
138.44
129.242
120.525
112.168
104.031
193.371
180.465
168.314
157.044
146.641
137.021
128.071
119.656
111.634
103.851
192.656
178.776
166.171
154.814
144.549
135.2
126.599
118.58
110.979
103.631
191.194
175.975
163.02
151.782
141.847
132.928
124.804
117.287
110.2
103.371
187.424
171.116
158.446
147.784
138.481
130.194
122.692
115.786
109.303
103.073
188.217
172.771
160.586
150.145
140.846
132.383
124.555
117.204
110.189
103.374
191.657
177.145
164.653
153.657
143.771
134.735
126.357
118.476
110.946
103.625
192.967
179.625
167.409
156.277
146.08
136.658
127.863
119.554
111.593
103.841
193.594
181.091
169.248
158.17
147.836
138.172
129.077
120.436
112.127
104.02
193.944
182
170.48
159.514
149.138
139.329
130.024
121.134
112.554
104.163
194.158
182.583
171.308
160.454
150.079
140.187
130.739
121.669
112.883
104.274
194.293
182.961
171.859
161.097
150.738
140.798
131.257
122.059
113.125
104.356
194.377
183.198
172.211
161.515
151.173
141.207
131.607
122.325
113.29
104.413
194.424
183.33
172.41
161.754
151.423
141.445
131.81
122.48
113.388
104.446
194.441
183.379
172.482
161.84
151.513
141.529
131.883
122.535
113.422
104.457
194.431
183.35
172.437
161.783
151.451
141.468
131.828
122.492
113.394
104.448
194.393
183.241
172.271
161.581
151.234
141.258
131.644
122.35
113.304
104.417
194.323
183.041
171.969
161.214
150.844
140.884
131.318
122.099
113.147
104.363
194.211
182.725
171.496
160.647
150.248
140.318
130.83
121.725
112.912
104.284
194.042
182.25
170.797
159.825
149.398
139.521
130.151
121.209
112.591
104.175
193.784
181.542
169.785
158.664
148.226
138.443
129.245
120.528
112.17
104.032
193.373
180.469
168.318
157.048
146.645
137.025
128.074
119.659
111.637
103.852
192.659
178.78
166.175
154.818
144.552
135.203
126.602
118.582
110.982
103.633
191.197
175.978
163.024
151.786
141.851
132.931
124.807
117.289
110.202
103.372
187.427
171.12
158.45
147.788
138.485
130.197
122.695
115.789
109.305
103.074
174.948
162.905
152.229
142.836
134.509
127.058
120.312
114.115
108.311
102.744
162.539
153.729
145.19
137.3
130.133
123.644
117.745
112.323
107.252
102.393
151.508
144.833
138.077
131.619
125.624
120.13
115.109
110.488
106.168
102.035
141.925
136.717
131.363
126.148
121.235
116.693
112.525
108.688
105.106
101.684
133.724
129.582
125.321
121.139
117.172
113.49
110.108
107
104.109
101.354
126.871
123.53
120.115
116.769
113.593
110.649
107.955
105.493
103.217
101.059
121.361
118.62
115.851
113.156
110.612
108.27
106.145
104.223
102.464
100.81
117.206
114.9
112.599
110.383
108.313
106.427
104.738
103.233
101.876
100.615
114.424
112.4
110.406
108.506
106.75
105.171
103.778
102.557
101.473
100.482
113.029
111.145
109.302
107.559
105.96
104.535
103.291
102.213
101.269
100.418
174.945
162.901
152.226
142.832
134.506
127.055
120.309
114.112
108.309
102.743
162.536
153.726
145.186
137.297
130.13
123.641
117.742
112.32
107.249
102.392
151.505
144.831
138.074
131.616
125.621
120.127
115.106
110.485
106.166
102.034
141.922
136.714
131.36
126.145
121.232
116.69
112.522
108.685
105.103
101.682
133.722
129.58
125.318
121.137
117.17
113.487
110.105
106.997
104.106
101.352
126.869
123.527
120.113
116.766
113.591
110.646
107.952
105.49
103.213
101.057
121.359
118.618
115.849
113.153
110.61
108.267
106.142
104.219
102.46
100.807
117.204
114.898
112.597
110.38
108.31
106.424
104.735
103.229
101.871
100.612
114.422
112.398
110.404
108.503
106.747
105.168
103.774
102.552
101.467
100.477
113.027
111.143
109.3
107.556
105.958
104.532
103.287
102.208
101.263
100.412
174.945
162.901
152.226
142.832
134.506
127.055
120.309
114.112
108.309
102.743
162.536
153.726
145.186
137.297
130.13
123.641
117.742
112.32
107.249
102.392
151.505
144.831
138.074
131.616
125.621
120.127
115.106
110.485
106.166
102.034
141.922
136.714
131.36
126.145
121.232
116.69
112.522
108.685
105.103
101.682
133.722
129.58
125.318
121.137
117.17
113.487
110.105
106.997
104.106
101.352
126.869
123.527
120.113
116.766
113.591
110.646
107.952
105.489
103.213
101.057
121.359
118.618
115.849
113.153
110.61
108.267
106.142
104.219
102.46
100.807
117.204
114.898
112.597
110.38
108.31
106.424
104.735
103.229
101.871
100.612
114.422
112.398
110.404
108.503
106.747
105.168
103.774
102.552
101.467
100.477
113.027
111.143
109.3
107.556
105.958
104.532
103.287
102.208
101.262
100.412
174.948
162.905
152.229
142.836
134.509
127.058
120.312
114.115
108.311
102.744
162.539
153.729
145.19
137.3
130.133
123.644
117.745
112.323
107.252
102.393
151.508
144.833
138.077
131.619
125.624
120.13
115.109
110.487
106.168
102.035
141.925
136.717
131.363
126.148
121.235
116.693
112.525
108.688
105.106
101.684
133.724
129.582
125.321
121.139
117.172
113.49
110.108
107
104.109
101.354
126.871
123.53
120.115
116.769
113.593
110.649
107.955
105.493
103.217
101.059
121.361
118.621
115.851
113.155
110.612
108.27
106.145
104.222
102.463
100.81
117.206
114.9
112.599
110.383
108.312
106.427
104.738
103.233
101.876
100.615
114.424
112.4
110.406
108.506
106.75
105.171
103.778
102.557
101.473
100.482
113.029
111.145
109.302
107.559
105.96
104.535
103.291
102.213
101.269
100.418
187.234
190.907
192.312
192.991
193.377
193.62
193.779
193.882
193.945
193.975
193.975
193.945
193.882
193.779
193.62
193.377
192.99
192.311
190.904
187.228
170.482
175.137
177.799
179.395
180.407
181.074
181.521
181.817
181.997
182.083
182.083
181.997
181.816
181.52
181.072
180.404
179.391
177.793
175.128
170.468
157.435
161.768
164.746
166.772
168.164
169.13
169.799
170.249
170.527
170.66
170.66
170.526
170.248
169.797
169.127
168.159
166.765
164.736
161.755
157.417
146.616
150.394
153.275
155.41
156.974
158.11
158.922
159.481
159.83
159.999
159.998
159.829
159.479
158.92
158.106
156.968
155.402
153.263
150.379
146.596
137.53
140.764
143.395
145.465
147.061
148.266
149.153
149.775
150.17
150.362
150.362
150.169
149.773
149.15
148.262
147.055
145.457
143.383
140.749
137.511
130.002
132.762
135.108
137.038
138.585
139.792
140.704
141.355
141.775
141.98
141.98
141.774
141.354
140.702
139.789
138.58
137.032
135.099
132.749
129.986
123.977
126.348
128.431
130.203
131.668
132.842
133.747
134.405
134.834
135.045
135.045
134.834
134.405
133.746
132.841
131.666
130.199
128.425
126.339
123.965
119.444
121.52
123.39
125.021
126.401
127.531
128.416
129.068
129.497
129.71
129.71
129.498
129.069
128.417
127.531
126.401
125.02
123.386
121.514
119.436
116.412
118.289
120.01
121.539
122.853
123.943
124.809
125.452
125.877
126.089
126.089
125.878
125.454
124.811
123.945
122.855
121.54
120.01
118.287
116.408
114.893
116.67
118.315
119.789
121.067
122.135
122.989
123.626
124.049
124.26
124.26
124.05
123.628
122.992
122.139
121.07
119.791
118.316
116.67
114.891
187.236
190.909
192.314
192.992
193.378
193.621
193.78
193.883
193.945
193.975
193.975
193.945
193.882
193.778
193.619
193.376
192.989
192.309
190.903
187.226
170.484
175.14
177.802
179.397
180.408
181.075
181.522
181.817
181.997
182.083
182.082
181.996
181.815
181.519
181.071
180.402
179.39
177.791
175.126
170.465
157.438
161.771
164.748
166.774
168.166
169.132
169.8
170.25
170.528
170.66
170.66
170.526
170.247
169.796
169.126
168.158
166.763
164.734
161.752
157.415
146.618
150.397
153.277
155.412
156.976
158.112
158.923
159.481
159.831
159.999
159.998
159.829
159.478
158.919
158.105
156.967
155.4
153.261
150.377
146.594
137.532
140.766
143.397
145.467
147.062
148.267
149.154
149.776
150.171
150.362
150.362
150.169
149.772
149.149
148.26
147.053
145.456
143.382
140.747
137.509
130.005
132.764
135.11
137.04
138.587
139.794
140.705
141.356
141.775
141.98
141.98
141.774
141.353
140.701
139.788
138.579
137.03
135.097
132.747
129.984
123.979
126.35
128.433
130.205
131.67
132.843
133.748
134.406
134.834
135.045
135.045
134.833
134.404
133.746
132.839
131.664
130.198
128.423
126.337
123.963
119.446
121.522
123.391
125.023
126.403
127.532
128.417
129.069
129.497
129.709
129.709
129.497
129.068
128.416
127.53
126.4
125.018
123.385
121.513
119.434
116.414
118.291
120.012
121.54
122.854
123.944
124.809
125.452
125.877
126.089
126.089
125.878
125.453
124.81
123.944
122.853
121.538
120.008
118.285
116.406
114.895
116.672
118.316
119.79
121.068
122.137
122.99
123.626
124.049
124.26
124.26
124.05
123.628
122.991
122.138
121.069
119.79
118.315
116.668
114.889
187.236
190.909
192.314
192.992
193.379
193.621
193.78
193.883
193.945
193.975
193.975
193.945
193.882
193.778
193.619
193.376
192.989
192.309
190.903
187.226
170.484
175.14
177.802
179.397
180.408
181.075
181.522
181.817
181.997
182.083
182.082
181.996
181.815
181.519
181.071
180.402
179.39
177.791
175.126
170.465
157.438
161.771
164.748
166.774
168.166
169.132
169.8
170.25
170.528
170.66
170.66
170.526
170.247
169.796
169.126
168.158
166.763
164.734
161.752
157.415
146.618
150.397
153.277
155.412
156.976
158.112
158.924
159.481
159.831
159.999
159.998
159.829
159.478
158.919
158.105
156.967
155.4
153.261
150.377
146.594
137.532
140.766
143.397
145.467
147.062
148.267
149.154
149.776
150.171
150.362
150.362
150.169
149.772
149.149
148.261
147.053
145.456
143.382
140.747
137.509
130.005
132.764
135.11
137.04
138.587
139.794
140.705
141.356
141.775
141.98
141.98
141.774
141.354
140.701
139.788
138.579
137.03
135.097
132.747
129.984
123.979
126.35
128.433
130.205
131.67
132.843
133.748
134.406
134.834
135.045
135.045
134.833
134.404
133.746
132.839
131.664
130.198
128.423
126.337
123.963
119.446
121.522
123.391
125.023
126.403
127.532
128.417
129.069
129.497
129.709
129.709
129.497
129.068
128.416
127.53
126.4
125.018
123.385
121.513
119.434
116.414
118.291
120.012
121.54
122.854
123.944
124.809
125.452
125.877
126.089
126.089
125.878
125.453
124.81
123.944
122.853
121.538
120.008
118.286
116.406
114.895
116.672
118.316
119.79
121.068
122.136
122.989
123.626
124.049
124.26
124.26
124.05
123.628
122.991
122.138
121.069
119.79
118.315
116.668
114.889
187.234
190.907
192.312
192.991
193.377
193.62
193.779
193.882
193.945
193.975
193.975
193.945
193.882
193.779
193.62
193.377
192.99
192.311
190.904
187.228
170.482
175.137
177.799
179.395
180.407
181.074
181.521
181.817
181.997
182.083
182.083
181.997
181.816
181.52
181.072
180.404
179.391
177.793
175.128
170.468
157.435
161.768
164.746
166.772
168.164
169.13
169.799
170.249
170.527
170.66
170.66
170.526
170.248
169.797
169.127
168.159
166.765
164.736
161.755
157.417
146.616
150.394
153.275
155.41
156.974
158.11
158.922
159.481
159.83
159.999
159.999
159.829
159.479
158.92
158.106
156.968
155.402
153.263
150.379
146.596
137.53
140.764
143.395
145.466
147.061
148.266
149.153
149.775
150.17
150.362
150.362
150.169
149.773
149.15
148.262
147.055
145.457
143.384
140.75
137.511
130.002
132.762
135.108
137.038
138.585
139.792
140.704
141.355
141.775
141.98
141.98
141.774
141.354
140.702
139.789
138.58
137.032
135.099
132.749
129.986
123.977
126.348
128.431
130.203
131.668
132.842
133.747
134.405
134.834
135.045
135.045
134.833
134.405
133.746
132.84
131.665
130.199
128.424
126.338
123.964
119.444
121.52
123.389
125.021
126.401
127.531
128.416
129.068
129.497
129.709
129.71
129.497
129.069
128.417
127.531
126.401
125.02
123.386
121.514
119.436
116.412
118.289
120.01
121.538
122.853
123.943
124.809
125.452
125.877
126.089
126.089
125.878
125.453
124.811
123.945
122.854
121.539
120.01
118.287
116.408
114.893
116.67
118.315
119.789
121.067
122.136
122.989
123.626
124.049
124.26
124.26
124.05
123.628
122.992
122.139
121.07
119.791
118.316
116.67
114.89
102.747
108.321
114.132
120.336
127.087
134.541
142.867
152.257
162.927
174.961
102.397
107.262
112.342
117.771
123.675
130.167
137.335
145.222
153.756
162.559
102.038
106.179
110.507
115.136
120.163
125.659
131.655
138.111
144.863
151.532
101.687
105.116
108.707
112.552
116.725
121.27
126.183
131.396
136.746
141.949
101.357
104.119
107.019
110.133
113.52
117.205
121.172
125.352
129.61
133.747
101.061
103.226
105.51
107.978
110.676
113.622
116.797
120.142
123.553
126.891
100.811
102.472
104.238
106.165
108.294
110.637
113.179
115.873
118.64
121.377
100.616
101.884
103.246
104.755
106.446
108.332
110.402
112.616
114.914
117.218
100.483
101.482
102.567
103.791
105.186
106.766
108.52
110.419
112.41
114.431
100.411
101.278
102.223
103.303
104.549
105.974
107.571
109.313