/*--------------------------------*- C++ -*----------------------------------*\
| =========                 |                                                 |
| \\      /  F ield         | OpenFOAM: The Open Source CFD Toolbox           |
|  \\    /   O peration     | Version:  2.4.0                                 |
|   \\  /    A nd           | Web:      www.OpenFOAM.org                      |
|    \\/     M anipulation  |                                                 |
\*---------------------------------------------------------------------------*/
FoamFile
{
    version     2.0;
    format      ascii;
    class       volScalarField;
    location    "0.9";
    object      T;
}
// * * * * * * * * * * * * * * * * * * * * * * * * * * * * * * * * * * * * * //

dimensions      [0 0 0 1 0 0 0];

internalField   nonuniform List<scalar> 
1600
(
101.413
104.238
107.06
109.878
112.69
115.494
118.288
121.07
123.839
126.593
129.33
132.049
134.748
137.427
140.082
142.715
145.322
147.905
150.461
152.991
155.494
157.97
160.419
162.842
165.238
167.609
169.956
172.28
174.581
176.862
179.124
181.369
183.598
185.813
188.016
190.209
192.393
194.571
196.745
198.915
101.414
104.241
107.065
109.885
112.698
115.504
118.3
121.084
123.854
126.61
129.348
132.069
134.769
137.449
140.106
142.739
145.348
147.931
150.487
153.017
155.52
157.996
160.445
162.867
165.263
167.633
169.979
172.301
174.601
176.881
179.141
181.384
183.612
185.825
188.027
190.218
192.4
194.576
196.748
198.916
101.416
104.246
107.074
109.897
112.714
115.523
118.322
121.11
123.884
126.642
129.384
132.107
134.81
137.492
140.151
142.786
145.397
147.981
150.539
153.069
155.573
158.048
160.497
162.918
165.312
167.681
170.025
172.345
174.643
176.919
179.177
181.416
183.64
185.85
188.048
190.235
192.414
194.586
196.753
198.918
101.418
104.254
107.087
109.916
112.738
115.552
118.357
121.149
123.927
126.691
129.437
132.164
134.871
137.556
140.218
142.856
145.469
148.055
150.614
153.146
155.65
158.125
160.573
162.993
165.386
167.752
170.093
172.41
174.704
176.977
179.229
181.464
183.683
185.887
188.079
190.261
192.434
194.6
196.762
198.921
101.422
104.265
107.105
109.94
112.77
115.591
118.402
121.2
123.985
126.754
129.506
132.239
134.951
137.64
140.307
142.948
145.564
148.153
150.714
153.247
155.751
158.227
160.674
163.092
165.483
167.847
170.184
172.497
174.786
177.053
179.3
181.528
183.74
185.937
188.122
190.296
192.461
194.62
196.774
198.925
101.426
104.278
107.127
109.971
112.809
115.638
118.457
121.264
124.057
126.833
129.592
132.331
135.049
137.744
140.416
143.062
145.681
148.273
150.837
153.371
155.876
158.352
160.798
163.215
165.603
167.964
170.297
172.604
174.888
177.148
179.387
181.608
183.811
186
188.175
190.34
192.496
194.645
196.789
198.93
101.431
104.293
107.153
110.007
112.855
115.695
118.524
121.34
124.141
126.927
129.694
132.44
135.166
137.868
140.545
143.196
145.82
148.416
150.982
153.519
156.025
158.501
160.946
163.361
165.747
168.103
170.431
172.733
175.009
177.262
179.493
181.704
183.897
186.075
188.239
190.393
192.537
194.674
196.806
198.936
101.438
104.311
107.183
110.05
112.91
115.761
118.601
121.428
124.24
127.035
129.811
132.567
135.301
138.01
140.694
143.351
145.98
148.58
151.15
153.689
156.196
158.672
161.117
163.53
165.912
168.264
170.587
172.882
175.151
177.394
179.615
181.815
183.997
186.163
188.314
190.454
192.585
194.709
196.827
198.943
101.444
104.332
107.218
110.098
112.971
115.835
118.688
121.528
124.351
127.158
129.945
132.711
135.453
138.171
140.863
143.527
146.161
148.766
151.339
153.881
156.39
158.866
161.31
163.721
166.1
168.447
170.764
173.051
175.311
177.545
179.755
181.943
184.112
186.263
188.4
190.525
192.641
194.748
196.851
198.951
101.452
104.356
107.256
110.152
113.041
115.919
118.786
121.64
124.477
127.296
130.094
132.871
135.624
138.351
141.051
143.722
146.363
148.973
151.55
154.094
156.605
159.082
161.524
163.933
166.308
168.651
170.961
173.241
175.491
177.714
179.912
182.087
184.241
186.377
188.497
190.605
192.703
194.793
196.878
198.96
101.461
104.382
107.3
110.213
113.118
116.013
118.896
121.764
124.616
127.448
130.26
133.049
135.813
138.55
141.259
143.937
146.585
149.2
151.782
154.329
156.841
159.318
161.76
164.166
166.537
168.874
171.178
173.449
175.69
177.901
180.086
182.246
184.384
186.503
188.606
190.695
192.773
194.843
196.908
198.97
101.471
104.41
107.348
110.279
113.203
116.116
119.016
121.901
124.768
127.616
130.442
133.244
136.019
138.767
141.486
144.173
146.827
149.448
152.034
154.584
157.098
159.575
162.015
164.419
166.786
169.117
171.414
173.676
175.906
178.105
180.276
182.421
184.542
186.642
188.725
190.793
192.85
194.899
196.942
198.981
101.481
104.442
107.4
110.353
113.296
116.229
119.148
122.051
124.936
127.8
130.641
133.456
136.245
139.004
141.732
144.428
147.09
149.717
152.307
154.86
157.375
159.852
162.291
164.692
167.054
169.38
171.668
173.921
176.14
178.327
180.483
182.611
184.714
186.795
188.856
190.902
192.935
194.96
196.979
198.993
101.493
104.477
107.458
110.433
113.399
116.353
119.292
122.215
125.118
128
130.857
133.687
136.489
139.261
142
144.705
147.374
150.006
152.601
155.157
157.674
160.151
162.588
164.985
167.343
169.661
171.942
174.185
176.392
178.565
180.706
182.817
184.901
186.96
188.999
191.02
193.028
195.027
197.019
199.006
101.506
104.515
107.521
110.521
113.511
116.488
119.45
122.394
125.317
128.217
131.092
133.938
136.755
139.539
142.289
145.003
147.68
150.319
152.918
155.477
157.994
160.471
162.906
165.299
167.651
169.963
172.235
174.467
176.662
178.821
180.946
183.038
185.102
187.139
189.153
191.149
193.129
195.099
197.063
199.021
101.52
104.557
107.59
110.617
113.633
116.635
119.622
122.589
125.534
128.454
131.347
134.21
137.042
139.839
142.601
145.325
148.01
150.655
153.259
155.82
158.339
160.815
163.247
165.637
167.983
170.287
172.549
174.77
176.951
179.095
181.202
183.276
185.318
187.331
189.32
191.288
193.239
195.178
197.11
199.037
101.535
104.602
107.666
110.722
113.766
116.796
119.809
122.801
125.769
128.711
131.624
134.505
137.353
140.165
142.939
145.673
148.367
151.019
153.627
156.191
158.711
161.186
163.615
166
168.339
170.634
172.886
175.095
177.262
179.389
181.477
183.53
185.549
187.538
189.5
191.438
193.358
195.264
197.162
199.054
101.551
104.652
107.749
110.836
113.912
116.972
120.013
123.032
126.025
128.991
131.925
134.826
137.691
140.518
143.305
146.051
148.753
151.412
154.025
156.592
159.113
161.586
164.013
166.392
168.724
171.01
173.25
175.445
177.596
179.705
181.773
183.804
185.798
187.76
189.693
191.6
193.486
195.356
197.218
199.072
101.57
104.707
107.839
110.962
114.072
117.164
120.236
123.284
126.305
129.296
132.253
135.175
138.058
140.901
143.703
146.46
149.172
151.838
154.456
157.027
159.548
162.02
164.443
166.817
169.141
171.416
173.643
175.823
177.957
180.047
182.093
184.099
186.067
188
189.901
191.775
193.625
195.457
197.279
199.093
101.59
104.767
107.939
111.1
114.247
117.375
120.481
123.56
126.611
129.629
132.611
135.555
138.458
141.319
144.135
146.905
149.628
152.301
154.925
157.499
160.021
162.492
164.911
167.278
169.593
171.858
174.071
176.235
178.35
180.417
182.44
184.419
186.357
188.259
190.126
191.964
193.775
195.566
197.345
199.114
101.612
104.833
108.048
111.252
114.439
117.606
120.749
123.863
126.946
129.993
133.002
135.97
138.895
141.775
144.607
147.39
150.124
152.806
155.436
158.013
160.536
163.006
165.42
167.781
170.086
172.338
174.537
176.682
178.777
180.821
182.817
184.767
186.673
188.54
190.37
192.168
193.938
195.685
197.417
199.138
101.636
104.906
108.169
111.419
114.651
117.861
121.044
124.196
127.313
130.392
133.431
136.425
139.373
142.273
145.122
147.92
150.666
153.357
155.993
158.574
161.098
163.566
165.976
168.329
170.624
172.863
175.045
177.171
179.243
181.261
183.229
185.146
187.018
188.847
190.636
192.391
194.115
195.814
197.496
199.164
101.663
104.987
108.302
111.603
114.885
118.141
121.368
124.562
127.717
130.831
133.901
136.923
139.896
142.818
145.686
148.5
151.258
153.959
156.602
159.186
161.712
164.177
166.582
168.927
171.211
173.435
175.6
177.705
179.753
181.743
183.679
185.562
187.395
189.182
190.927
192.635
194.309
195.955
197.582
199.193
101.693
105.076
108.45
111.807
115.143
118.451
121.727
124.965
128.162
131.314
134.418
137.471
140.471
143.415
146.303
149.134
151.905
154.616
157.267
159.855
162.381
164.845
167.245
169.581
171.853
174.062
176.207
178.29
180.311
182.271
184.173
186.018
187.81
189.551
191.247
192.902
194.521
196.11
197.677
199.224
101.726
105.176
108.614
112.034
115.43
118.795
122.124
125.411
128.653
131.846
134.987
138.072
141.101
144.07
146.98
149.828
152.613
155.335
157.993
160.586
163.113
165.574
167.968
170.295
172.555
174.747
176.872
178.93
180.923
182.851
184.716
186.52
188.266
189.957
191.599
193.196
194.755
196.28
197.782
199.259
101.764
105.286
108.797
112.286
115.748
119.176
122.563
125.904
129.196
132.433
135.613
138.734
141.793
144.789
147.721
150.588
153.388
156.121
158.787
161.384
163.912
166.371
168.759
171.076
173.322
175.496
177.6
179.632
181.594
183.487
185.313
187.072
188.768
190.405
191.988
193.522
195.013
196.468
197.897
199.297
101.805
105.41
109.001
112.568
116.103
119.6
123.051
126.451
129.795
133.08
136.303
139.461
142.553
145.577
148.533
151.419
154.235
156.98
159.654
162.256
164.785
167.24
169.622
171.928
174.16
176.316
178.396
180.401
182.331
184.187
185.969
187.681
189.323
190.901
192.419
193.883
195.3
196.677
198.025
199.34
101.851
105.549
109.229
112.882
116.499
120.072
123.593
127.056
130.458
133.795
137.063
140.261
143.388
146.442
149.422
152.328
155.161
157.918
160.6
163.206
165.736
168.188
170.563
172.859
175.075
177.212
179.268
181.244
183.14
184.955
186.692
188.352
189.937
191.45
192.897
194.284
195.619
196.91
198.168
199.387
101.904
105.704
109.485
113.235
116.942
120.598
124.196
127.729
131.193
134.584
137.901
141.141
144.304
147.389
150.395
153.322
156.171
158.94
161.631
164.241
166.772
169.221
171.588
173.873
176.074
178.19
180.221
182.167
184.027
185.801
187.489
189.094
190.616
192.06
193.43
194.732
195.976
197.17
198.327
199.441
101.963
105.88
109.774
113.631
117.439
121.187
124.868
128.476
132.007
135.457
138.824
142.108
145.309
148.425
151.457
154.406
157.272
160.054
162.753
165.368
167.898
170.344
172.704
174.977
177.162
179.257
181.263
183.177
185
186.73
188.367
189.913
191.369
192.738
194.024
195.233
196.376
197.463
198.506
199.5
102.03
106.08
110.102
114.08
117.999
121.848
125.62
129.308
132.909
136.42
139.84
143.17
146.409
149.558
152.617
155.588
158.47
161.265
163.972
166.591
169.122
171.564
173.916
176.177
178.346
180.421
182.4
184.282
186.066
187.751
189.336
190.82
192.206
193.494
194.688
195.796
196.827
197.793
198.708
199.568
102.107
106.309
110.476
114.589
118.631
122.591
126.46
130.233
133.908
137.483
140.958
144.334
147.612
150.794
153.88
156.872
159.771
162.578
165.293
167.917
170.448
172.886
175.231
177.48
179.632
181.686
183.639
185.49
187.235
188.874
190.404
191.825
193.136
194.338
195.434
196.431
197.338
198.169
198.938
199.646
102.196
106.573
110.906
115.171
119.349
123.429
127.402
131.265
135.017
138.657
142.187
145.61
148.926
152.14
155.253
158.266
161.181
164
166.723
169.35
171.882
174.317
176.654
178.891
181.028
183.061
184.988
186.807
188.514
190.107
191.582
192.938
194.172
195.284
196.275
197.152
197.921
198.599
199.201
199.736
102.301
106.881
111.405
115.841
120.169
124.378
128.46
132.416
136.245
139.951
143.536
147.004
150.359
153.603
156.741
159.775
162.706
165.536
168.266
170.897
173.429
175.86
178.19
180.417
182.538
184.552
186.455
188.243
189.913
191.461
192.882
194.173
195.328
196.347
197.228
197.974
198.591
199.097
199.507
199.842
102.426
107.247
111.992
116.62
121.111
125.456
129.652
133.7
137.607
141.376
145.013
148.525
151.916
155.19
158.351
161.404
164.349
167.19
169.927
172.562
175.094
177.522
179.845
182.062
184.17
186.165
188.045
189.805
191.441
192.946
194.315
195.543
196.622
197.546
198.313
198.92
199.371
199.683
199.871
199.971
102.58
107.694
112.695
117.537
122.201
126.686
130.994
135.134
139.114
142.943
146.629
150.181
153.604
156.905
160.088
163.158
166.116
168.967
171.711
174.348
176.88
179.306
181.624
183.832
185.928
187.907
189.767
191.502
193.107
194.574
195.896
197.064
198.07
198.903
199.555
200.018
200.29
200.385
200.311
200.127
102.778
108.256
113.555
118.628
123.471
128.094
132.509
136.732
140.779
144.662
148.392
151.979
155.431
158.755
161.957
165.041
168.011
170.87
173.62
176.261
178.794
181.217
183.531
185.732
187.818
189.785
191.628
193.343
194.921
196.355
197.637
198.754
199.695
200.445
200.987
201.307
201.391
201.243
200.855
200.322
103.051
108.999
114.634
119.945
124.959
129.707
134.217
138.512
142.615
146.543
150.309
153.925
157.401
160.744
163.962
167.059
170.039
172.905
175.66
178.304
180.838
183.261
185.572
187.769
189.848
191.805
193.636
195.335
196.893
198.302
199.552
200.629
201.517
202.199
202.648
202.84
202.739
202.33
201.56
200.583
103.511
110.039
116.009
121.54
126.704
131.555
136.139
140.49
144.636
148.597
152.39
156.028
159.522
162.881
166.11
169.217
172.205
175.078
177.837
180.485
183.02
185.444
187.754
189.948
192.023
193.975
195.798
197.486
199.032
200.424
201.653
202.702
203.555
204.188
204.571
204.668
204.418
203.767
202.573
201.023
104.358
111.624
117.869
123.549
128.803
133.713
138.336
142.717
146.885
150.864
154.671
158.321
161.825
165.191
168.428
171.54
174.533
177.409
180.171
182.82
185.357
187.781
190.091
192.284
194.356
196.305
198.124
199.807
201.346
202.73
203.946
204.981
205.813
206.419
206.764
206.809
206.476
205.689
204.203
202.072
)
;

boundaryField
{
    carasuperior
    {
        type            fixedGradient;
        gradient        uniform 100;
    }
    lateralizquierda
    {
        type            fixedValue;
        value           uniform 100;
    }
    lateralderecha
    {
        type            fixedValue;
        value           uniform 200;
    }
    carainferior
    {
        type            zeroGradient;
    }
    frontAndBack
    {
        type            empty;
    }
}


// ************************************************************************* //
