/*--------------------------------*- C++ -*----------------------------------*\
| =========                 |                                                 |
| \\      /  F ield         | OpenFOAM: The Open Source CFD Toolbox           |
|  \\    /   O peration     | Version:  2.4.0                                 |
|   \\  /    A nd           | Web:      www.OpenFOAM.org                      |
|    \\/     M anipulation  |                                                 |
\*---------------------------------------------------------------------------*/
FoamFile
{
    version     2.0;
    format      ascii;
    class       volScalarField;
    location    "0.0046";
    object      T;
}
// * * * * * * * * * * * * * * * * * * * * * * * * * * * * * * * * * * * * * //

dimensions      [0 0 0 1 0 0 0];

internalField   nonuniform List<scalar> 
4800
(
100.193
100.58
100.967
101.353
101.737
102.116
102.487
102.844
103.181
103.493
100.581
101.742
102.903
104.062
105.216
106.357
107.474
108.551
109.57
110.51
100.967
102.903
104.84
106.777
108.709
110.623
112.501
114.317
116.037
117.624
101.353
104.062
106.777
109.498
112.218
114.924
117.591
120.179
122.637
124.906
101.737
105.216
108.709
112.218
115.742
119.265
122.759
126.171
129.428
132.436
102.116
106.358
110.623
114.925
119.266
123.637
128.008
132.319
136.468
140.311
102.487
107.475
112.502
117.592
122.76
128.009
133.319
138.628
143.813
148.657
102.844
108.552
114.318
120.18
126.173
132.32
138.629
145.064
151.498
157.638
103.182
109.571
116.039
122.64
129.43
136.47
143.815
151.499
159.478
167.457
103.493
110.512
117.627
124.909
132.44
140.315
148.66
157.64
167.458
178.22
100.193
100.58
100.967
101.353
101.737
102.116
102.487
102.844
103.181
103.493
100.581
101.742
102.903
104.062
105.216
106.357
107.474
108.551
109.57
110.51
100.967
102.903
104.84
106.777
108.709
110.623
112.501
114.317
116.037
117.624
101.353
104.062
106.777
109.498
112.218
114.924
117.591
120.179
122.637
124.905
101.737
105.216
108.709
112.218
115.742
119.265
122.759
126.171
129.428
132.435
102.116
106.358
110.623
114.925
119.266
123.637
128.008
132.319
136.468
140.311
102.487
107.475
112.502
117.592
122.76
128.009
133.319
138.629
143.813
148.657
102.844
108.552
114.318
120.181
126.173
132.32
138.629
145.064
151.498
157.638
103.182
109.571
116.039
122.64
129.431
136.47
143.815
151.5
159.479
167.457
103.493
110.512
117.627
124.91
132.44
140.315
148.661
157.641
167.459
178.221
100.193
100.58
100.967
101.353
101.737
102.116
102.487
102.844
103.181
103.493
100.581
101.742
102.903
104.062
105.216
106.357
107.474
108.551
109.57
110.51
100.967
102.903
104.84
106.777
108.709
110.623
112.501
114.317
116.037
117.624
101.353
104.062
106.777
109.498
112.218
114.924
117.591
120.179
122.637
124.905
101.737
105.216
108.709
112.218
115.742
119.265
122.759
126.171
129.428
132.435
102.116
106.358
110.623
114.925
119.266
123.637
128.008
132.319
136.468
140.311
102.487
107.475
112.502
117.592
122.76
128.009
133.319
138.629
143.813
148.657
102.844
108.552
114.318
120.181
126.173
132.32
138.629
145.064
151.498
157.638
103.182
109.571
116.039
122.64
129.431
136.47
143.815
151.5
159.479
167.457
103.493
110.512
117.627
124.91
132.44
140.315
148.661
157.641
167.459
178.221
100.193
100.58
100.967
101.353
101.737
102.116
102.487
102.844
103.181
103.493
100.581
101.742
102.903
104.062
105.216
106.357
107.474
108.551
109.57
110.51
100.967
102.903
104.84
106.777
108.709
110.623
112.501
114.317
116.037
117.624
101.353
104.062
106.777
109.498
112.218
114.924
117.591
120.179
122.637
124.906
101.737
105.216
108.709
112.218
115.742
119.265
122.759
126.171
129.428
132.436
102.116
106.358
110.623
114.925
119.266
123.637
128.008
132.319
136.468
140.311
102.487
107.475
112.502
117.592
122.76
128.009
133.319
138.628
143.813
148.657
102.844
108.552
114.318
120.18
126.173
132.32
138.629
145.064
151.498
157.638
103.182
109.571
116.039
122.64
129.43
136.47
143.815
151.499
159.478
167.457
103.493
110.512
117.627
124.909
132.44
140.315
148.66
157.64
167.458
178.22
103.772
104.016
104.222
104.391
104.526
104.63
104.707
104.761
104.796
104.812
104.812
104.796
104.761
104.707
104.63
104.526
104.391
104.222
104.016
103.772
111.353
112.086
112.703
113.208
113.608
113.916
114.144
114.304
114.405
114.454
114.454
114.404
114.303
114.143
113.915
113.607
113.207
112.702
112.085
111.352
119.043
120.27
121.297
122.128
122.782
123.281
123.648
123.905
124.066
124.144
124.144
124.066
123.904
123.648
123.28
122.781
122.127
121.295
120.269
119.042
126.926
128.657
130.085
131.227
132.112
132.779
133.264
133.6
133.811
133.912
133.912
133.81
133.599
133.263
132.777
132.11
131.225
130.084
128.655
126.924
135.097
137.344
139.162
140.581
141.66
142.457
143.03
143.422
143.665
143.782
143.782
143.665
143.421
143.029
142.456
141.658
140.579
139.159
137.342
135.096
143.684
146.462
148.636
150.278
151.488
152.361
152.976
153.391
153.647
153.768
153.768
153.646
153.39
152.975
152.36
151.486
150.275
148.633
146.46
143.682
152.866
156.183
158.641
160.406
161.653
162.524
163.123
163.52
163.763
163.877
163.877
163.762
163.52
163.122
162.522
161.651
160.404
158.639
156.181
152.864
162.94
166.763
169.34
171.052
172.193
172.959
173.471
173.805
174.006
174.1
174.1
174.006
173.804
173.47
172.958
172.192
171.05
169.339
166.762
162.939
174.492
178.59
180.905
182.267
183.109
183.648
183.998
184.222
184.356
184.418
184.418
184.356
184.222
183.998
183.647
183.108
182.266
180.904
178.589
174.492
188.983
192.199
193.421
194.003
194.328
194.525
194.651
194.73
194.777
194.799
194.799
194.777
194.73
194.651
194.525
194.327
194.003
193.421
192.199
188.982
103.772
104.016
104.222
104.391
104.526
104.629
104.707
104.761
104.795
104.812
104.812
104.795
104.761
104.706
104.629
104.525
104.39
104.221
104.015
103.772
111.353
112.085
112.703
113.207
113.607
113.915
114.143
114.303
114.404
114.453
114.453
114.404
114.302
114.142
113.914
113.606
113.206
112.701
112.084
111.351
119.043
120.27
121.297
122.128
122.782
123.281
123.648
123.904
124.065
124.143
124.143
124.065
123.903
123.647
123.279
122.78
122.126
121.294
120.268
119.041
126.926
128.656
130.085
131.226
132.111
132.778
133.264
133.6
133.81
133.911
133.911
133.809
133.599
133.262
132.776
132.109
131.224
130.082
128.653
126.923
135.097
137.344
139.161
140.581
141.659
142.457
143.029
143.421
143.665
143.781
143.781
143.664
143.42
143.027
142.454
141.656
140.578
139.158
137.341
135.094
143.684
146.462
148.635
150.277
151.487
152.361
152.976
153.391
153.646
153.768
153.767
153.645
153.389
152.974
152.358
151.484
150.274
148.632
146.458
143.681
152.866
156.183
158.641
160.405
161.652
162.524
163.122
163.52
163.762
163.876
163.876
163.761
163.518
163.121
162.521
161.649
160.402
158.638
156.18
152.863
162.94
166.763
169.34
171.051
172.193
172.958
173.471
173.804
174.005
174.099
174.099
174.004
173.803
173.469
172.957
172.19
171.049
169.337
166.76
162.937
174.492
178.59
180.904
182.267
183.108
183.647
183.997
184.222
184.355
184.418
184.417
184.355
184.221
183.996
183.646
183.107
182.265
180.902
178.588
174.49
188.983
192.199
193.421
194.003
194.327
194.525
194.65
194.73
194.777
194.798
194.798
194.776
194.729
194.65
194.524
194.327
194.002
193.42
192.198
188.981
103.772
104.016
104.222
104.391
104.526
104.629
104.707
104.761
104.795
104.812
104.812
104.795
104.761
104.706
104.629
104.525
104.39
104.221
104.015
103.772
111.353
112.085
112.703
113.207
113.607
113.915
114.143
114.303
114.404
114.453
114.453
114.404
114.302
114.142
113.914
113.606
113.206
112.701
112.084
111.351
119.043
120.27
121.297
122.128
122.782
123.281
123.648
123.904
124.065
124.143
124.143
124.065
123.903
123.647
123.279
122.78
122.126
121.294
120.268
119.041
126.926
128.656
130.085
131.226
132.111
132.778
133.264
133.6
133.81
133.911
133.911
133.809
133.599
133.262
132.776
132.109
131.224
130.082
128.653
126.923
135.097
137.344
139.161
140.581
141.659
142.457
143.029
143.421
143.665
143.781
143.781
143.664
143.42
143.027
142.454
141.656
140.578
139.158
137.341
135.094
143.684
146.462
148.635
150.277
151.487
152.361
152.976
153.391
153.646
153.768
153.767
153.645
153.389
152.974
152.358
151.484
150.274
148.632
146.458
143.681
152.866
156.183
158.641
160.405
161.652
162.524
163.122
163.52
163.762
163.876
163.876
163.761
163.518
163.121
162.521
161.649
160.402
158.638
156.18
152.863
162.94
166.763
169.34
171.051
172.193
172.958
173.471
173.804
174.005
174.099
174.099
174.004
173.803
173.469
172.957
172.19
171.049
169.337
166.76
162.937
174.492
178.59
180.904
182.267
183.108
183.647
183.997
184.222
184.355
184.418
184.417
184.355
184.221
183.996
183.646
183.107
182.265
180.902
178.588
174.49
188.983
192.199
193.421
194.003
194.327
194.525
194.65
194.73
194.777
194.798
194.798
194.776
194.729
194.65
194.524
194.327
194.002
193.42
192.198
188.981
103.772
104.016
104.222
104.391
104.526
104.63
104.707
104.761
104.796
104.812
104.812
104.796
104.761
104.707
104.63
104.526
104.391
104.222
104.016
103.772
111.353
112.086
112.703
113.208
113.608
113.916
114.144
114.304
114.405
114.454
114.454
114.404
114.303
114.143
113.915
113.607
113.207
112.702
112.085
111.352
119.043
120.27
121.297
122.128
122.782
123.281
123.648
123.905
124.066
124.144
124.144
124.066
123.904
123.648
123.28
122.781
122.127
121.295
120.269
119.042
126.926
128.657
130.085
131.227
132.112
132.779
133.264
133.6
133.811
133.912
133.912
133.81
133.599
133.263
132.777
132.11
131.225
130.084
128.655
126.924
135.097
137.344
139.162
140.581
141.66
142.457
143.03
143.422
143.665
143.782
143.782
143.665
143.421
143.029
142.456
141.658
140.579
139.159
137.342
135.096
143.684
146.462
148.636
150.278
151.488
152.361
152.976
153.391
153.647
153.768
153.768
153.646
153.39
152.975
152.36
151.486
150.275
148.633
146.46
143.682
152.866
156.183
158.641
160.406
161.653
162.524
163.123
163.52
163.763
163.877
163.877
163.762
163.52
163.122
162.522
161.651
160.404
158.639
156.181
152.864
162.94
166.763
169.34
171.052
172.193
172.959
173.471
173.805
174.006
174.1
174.1
174.006
173.804
173.47
172.958
172.192
171.05
169.339
166.762
162.939
174.492
178.59
180.905
182.267
183.109
183.648
183.998
184.222
184.356
184.418
184.418
184.356
184.222
183.998
183.647
183.108
182.266
180.904
178.589
174.492
188.983
192.199
193.421
194.003
194.328
194.525
194.651
194.73
194.777
194.799
194.799
194.777
194.73
194.651
194.525
194.327
194.003
193.421
192.199
188.982
103.493
103.181
102.844
102.487
102.117
101.738
101.354
100.968
100.581
100.194
110.509
109.57
108.551
107.474
106.358
105.217
104.063
102.903
101.742
100.581
117.623
116.037
114.317
112.501
110.623
108.709
106.778
104.841
102.904
100.968
124.904
122.637
120.179
117.591
114.925
112.219
109.498
106.778
104.063
101.354
132.434
129.427
126.171
122.759
119.266
115.743
112.219
108.71
105.217
101.738
140.31
136.467
132.319
128.009
123.638
119.267
114.926
110.624
106.359
102.117
148.656
143.813
138.629
133.32
128.01
122.761
117.593
112.503
107.476
102.488
157.638
151.499
145.065
138.631
132.322
126.175
120.182
114.32
108.553
102.845
167.458
159.479
151.501
143.817
136.473
129.433
122.642
116.041
109.573
103.182
178.221
167.46
157.643
148.663
140.318
132.443
124.912
117.629
110.514
103.494
103.492
103.181
102.843
102.486
102.116
101.737
101.353
100.967
100.58
100.193
110.508
109.568
108.55
107.473
106.356
105.216
104.062
102.902
101.741
100.58
117.622
116.035
114.316
112.5
110.622
108.708
106.776
104.839
102.902
100.967
124.903
122.635
120.177
117.589
114.923
112.217
109.497
106.776
104.062
101.353
132.433
129.425
126.169
122.757
119.264
115.741
112.217
108.708
105.216
101.737
140.308
136.465
132.317
128.007
123.636
119.265
114.924
110.623
106.357
102.116
148.654
143.811
138.627
133.318
128.008
122.759
117.591
112.502
107.474
102.487
157.636
151.497
145.063
138.629
132.32
126.173
120.181
114.318
108.552
102.844
167.456
159.477
151.499
143.815
136.471
129.431
122.64
116.039
109.571
103.182
178.219
167.458
157.641
148.661
140.316
132.441
124.911
117.628
110.512
103.493
103.492
103.181
102.843
102.486
102.116
101.737
101.353
100.967
100.58
100.193
110.508
109.568
108.55
107.473
106.356
105.216
104.062
102.902
101.741
100.58
117.622
116.035
114.316
112.5
110.622
108.708
106.776
104.839
102.902
100.967
124.903
122.635
120.177
117.589
114.923
112.217
109.497
106.776
104.062
101.353
132.433
129.425
126.169
122.757
119.264
115.741
112.217
108.708
105.216
101.737
140.308
136.465
132.317
128.007
123.636
119.265
114.924
110.623
106.357
102.116
148.654
143.811
138.627
133.318
128.008
122.759
117.591
112.502
107.474
102.487
157.636
151.497
145.063
138.629
132.32
126.173
120.181
114.318
108.552
102.844
167.456
159.477
151.499
143.815
136.471
129.431
122.64
116.039
109.571
103.182
178.219
167.458
157.641
148.661
140.316
132.441
124.911
117.628
110.512
103.493
103.493
103.181
102.844
102.487
102.117
101.738
101.354
100.968
100.581
100.194
110.509
109.57
108.551
107.474
106.358
105.217
104.063
102.903
101.742
100.581
117.623
116.037
114.317
112.501
110.623
108.709
106.778
104.841
102.904
100.968
124.904
122.637
120.179
117.591
114.925
112.219
109.498
106.778
104.063
101.354
132.434
129.427
126.171
122.759
119.266
115.743
112.219
108.71
105.217
101.738
140.31
136.467
132.319
128.009
123.638
119.267
114.926
110.624
106.359
102.117
148.656
143.813
138.629
133.32
128.01
122.761
117.593
112.503
107.476
102.488
157.638
151.499
145.065
138.631
132.322
126.175
120.182
114.32
108.553
102.845
167.458
159.479
151.501
143.817
136.473
129.433
122.642
116.041
109.573
103.182
178.221
167.46
157.643
148.663
140.318
132.443
124.912
117.629
110.514
103.494
188.985
174.497
162.948
152.876
143.695
135.108
126.935
119.051
111.358
103.774
192.202
178.597
166.774
156.197
146.477
137.359
128.67
120.281
112.093
104.019
193.425
180.914
169.355
158.66
148.656
139.182
130.104
121.312
112.713
104.226
194.008
182.281
171.072
160.432
150.306
140.61
131.252
122.149
113.221
104.396
194.334
183.128
172.222
161.688
151.527
141.699
132.147
122.81
113.626
104.532
194.534
183.673
172.998
162.573
152.416
142.511
132.827
123.32
113.94
104.638
194.663
184.033
173.525
163.191
153.051
143.104
133.331
123.701
114.178
104.719
194.747
184.271
173.88
163.614
153.495
143.524
133.693
123.978
114.35
104.778
194.801
184.423
174.109
163.892
153.789
143.807
133.938
124.166
114.469
104.818
194.831
184.511
174.244
164.056
153.965
143.977
134.087
124.282
114.542
104.843
194.844
184.547
174.299
164.125
154.04
144.05
134.152
124.333
114.574
104.854
194.84
184.535
174.282
164.106
154.021
144.034
134.14
124.324
114.569
104.852
194.818
184.473
174.19
163.996
153.908
143.929
134.05
124.257
114.528
104.838
194.774
184.351
174.01
163.784
153.69
143.726
133.878
124.127
114.447
104.811
194.701
184.148
173.716
163.446
153.347
143.41
133.614
123.929
114.325
104.77
194.582
183.827
173.265
162.94
152.848
142.96
133.242
123.654
114.156
104.713
194.383
183.316
172.584
162.209
152.15
142.349
132.747
123.292
113.936
104.639
194.015
182.474
171.552
161.171
151.205
141.548
132.113
122.835
113.662
104.548
193.216
181.021
169.991
159.728
149.965
140.535
131.332
122.283
113.333
104.438
191.048
178.415
167.676
157.803
148.409
139.312
130.411
121.64
112.954
104.313
188.983
174.495
162.945
152.873
143.692
135.106
126.933
119.049
111.356
103.773
192.2
178.594
166.772
156.194
146.474
137.357
128.668
120.279
112.091
104.018
193.423
180.912
169.353
158.657
148.654
139.18
130.102
121.31
112.711
104.225
194.007
182.278
171.069
160.429
150.304
140.607
131.25
122.147
113.219
104.395
194.332
183.125
172.219
161.685
151.524
141.696
132.145
122.808
113.624
104.531
194.533
183.671
172.995
162.57
152.413
142.509
132.825
123.318
113.939
104.637
194.661
184.03
173.522
163.188
153.048
143.102
133.329
123.699
114.176
104.718
194.745
184.268
173.877
163.611
153.492
143.522
133.69
123.975
114.349
104.776
194.799
184.42
174.106
163.889
153.786
143.804
133.935
124.164
114.467
104.817
194.829
184.508
174.24
164.053
153.962
143.974
134.084
124.279
114.54
104.842
194.842
184.544
174.296
164.121
154.037
144.047
134.149
124.33
114.572
104.853
194.837
184.532
174.278
164.102
154.018
144.031
134.137
124.322
114.567
104.851
194.815
184.47
174.186
163.993
153.905
143.926
134.047
124.254
114.525
104.837
194.772
184.347
174.006
163.781
153.687
143.723
133.875
124.124
114.445
104.81
194.699
184.145
173.712
163.442
153.344
143.407
133.611
123.926
114.323
104.769
194.58
183.823
173.261
162.936
152.844
142.957
133.239
123.651
114.154
104.712
194.38
183.312
172.58
162.205
152.147
142.346
132.744
123.289
113.934
104.638
194.012
182.47
171.548
161.167
151.202
141.544
132.11
122.833
113.66
104.546
193.213
181.017
169.987
159.724
149.962
140.532
131.329
122.28
113.33
104.437
191.045
178.411
167.672
157.799
148.405
139.308
130.408
121.637
112.951
104.312
188.983
174.495
162.945
152.873
143.692
135.106
126.933
119.049
111.356
103.773
192.2
178.594
166.772
156.194
146.474
137.357
128.668
120.279
112.091
104.018
193.423
180.912
169.353
158.657
148.654
139.18
130.102
121.31
112.711
104.225
194.007
182.278
171.069
160.429
150.304
140.607
131.25
122.147
113.219
104.395
194.332
183.125
172.219
161.685
151.524
141.696
132.145
122.808
113.624
104.531
194.533
183.671
172.995
162.57
152.413
142.509
132.825
123.318
113.939
104.637
194.661
184.03
173.522
163.188
153.048
143.102
133.329
123.699
114.176
104.718
194.745
184.268
173.877
163.611
153.492
143.522
133.69
123.975
114.349
104.776
194.799
184.42
174.106
163.889
153.786
143.804
133.935
124.164
114.467
104.817
194.829
184.508
174.24
164.053
153.962
143.974
134.084
124.279
114.54
104.842
194.842
184.544
174.296
164.121
154.037
144.047
134.149
124.33
114.572
104.853
194.837
184.532
174.278
164.102
154.018
144.031
134.137
124.322
114.567
104.851
194.815
184.47
174.186
163.993
153.905
143.926
134.047
124.254
114.525
104.837
194.772
184.347
174.006
163.781
153.687
143.723
133.875
124.124
114.445
104.81
194.699
184.145
173.712
163.442
153.344
143.407
133.611
123.926
114.323
104.769
194.58
183.823
173.261
162.936
152.844
142.957
133.239
123.651
114.154
104.712
194.38
183.312
172.58
162.205
152.147
142.346
132.744
123.289
113.934
104.638
194.012
182.47
171.548
161.167
151.202
141.544
132.11
122.833
113.66
104.546
193.213
181.017
169.987
159.724
149.962
140.532
131.329
122.28
113.33
104.437
191.045
178.411
167.672
157.799
148.405
139.308
130.408
121.638
112.951
104.312
188.985
174.497
162.948
152.876
143.695
135.108
126.935
119.051
111.358
103.774
192.202
178.597
166.774
156.197
146.477
137.359
128.67
120.281
112.093
104.019
193.425
180.914
169.355
158.66
148.656
139.182
130.104
121.312
112.713
104.226
194.008
182.281
171.072
160.432
150.306
140.61
131.252
122.149
113.221
104.396
194.334
183.128
172.222
161.688
151.527
141.699
132.147
122.81
113.626
104.532
194.534
183.673
172.998
162.573
152.416
142.511
132.827
123.32
113.94
104.638
194.663
184.033
173.525
163.191
153.051
143.104
133.331
123.701
114.178
104.719
194.747
184.271
173.88
163.614
153.495
143.524
133.693
123.978
114.35
104.778
194.801
184.423
174.109
163.892
153.789
143.807
133.938
124.166
114.469
104.818
194.831
184.511
174.244
164.056
153.965
143.977
134.087
124.282
114.542
104.843
194.844
184.547
174.299
164.125
154.04
144.05
134.152
124.333
114.574
104.854
194.84
184.535
174.282
164.106
154.021
144.034
134.14
124.324
114.569
104.852
194.818
184.473
174.19
163.996
153.908
143.929
134.05
124.257
114.528
104.838
194.774
184.351
174.01
163.784
153.69
143.726
133.878
124.127
114.447
104.811
194.701
184.148
173.716
163.446
153.347
143.41
133.614
123.929
114.325
104.77
194.582
183.827
173.265
162.94
152.848
142.96
133.242
123.654
114.156
104.713
194.383
183.316
172.584
162.209
152.15
142.349
132.747
123.292
113.936
104.639
194.015
182.474
171.552
161.17
151.205
141.548
132.113
122.835
113.662
104.548
193.216
181.021
169.991
159.728
149.965
140.535
131.332
122.283
113.333
104.439
191.048
178.415
167.676
157.803
148.409
139.312
130.411
121.64
112.954
104.313
183.611
173.932
164.514
155.419
146.576
137.912
129.375
120.926
112.535
104.175
176.985
169.214
161.055
152.813
144.589
136.408
128.271
120.169
112.092
104.029
171.573
164.922
157.716
150.225
142.592
134.89
127.154
119.403
111.645
103.882
167.196
161.229
154.706
147.82
140.702
133.438
126.08
118.664
111.212
103.74
163.668
158.148
152.113
145.695
139.003
132.116
125.096
117.984
110.813
103.608
160.86
155.647
149.963
143.9
137.546
130.971
124.236
117.386
110.461
103.492
158.688
153.691
148.257
142.458
136.361
130.032
123.526
116.891
110.169
103.396
157.099
152.249
146.989
141.376
135.466
129.318
122.984
116.512
109.944
103.322
156.057
151.3
146.15
140.656
134.868
128.839
122.62
116.257
109.792
103.272
155.541
150.83
145.733
140.297
134.569
128.599
122.437
116.129
109.716
103.251
183.607
173.928
164.51
155.416
146.572
137.908
129.372
120.923
112.532
104.173
176.981
169.211
161.052
152.81
144.586
136.405
128.268
120.166
112.089
104.028
171.57
164.918
157.713
150.221
142.589
134.887
127.151
119.4
111.642
103.88
167.193
161.226
154.703
147.817
140.699
133.435
126.077
118.661
111.209
103.738
163.665
158.146
152.11
145.692
139
132.113
125.092
117.98
110.81
103.606
160.858
155.645
149.96
143.897
137.542
130.968
124.232
117.383
110.458
103.49
158.686
153.688
148.254
142.455
136.358
130.029
123.522
116.887
110.165
103.393
157.096
152.247
146.987
141.372
135.463
129.315
122.98
116.507
109.939
103.318
156.054
151.298
146.148
140.653
134.865
128.836
122.615
116.251
109.786
103.267
155.538
150.827
145.731
140.294
134.565
128.595
122.433
116.123
109.709
103.245
183.607
173.928
164.51
155.416
146.572
137.908
129.372
120.923
112.532
104.173
176.981
169.211
161.052
152.81
144.586
136.405
128.268
120.166
112.089
104.028
171.57
164.918
157.713
150.221
142.589
134.887
127.151
119.4
111.642
103.88
167.193
161.226
154.703
147.817
140.699
133.435
126.077
118.661
111.209
103.738
163.665
158.146
152.11
145.692
139
132.113
125.092
117.98
110.81
103.606
160.858
155.645
149.96
143.897
137.542
130.968
124.232
117.383
110.458
103.49
158.686
153.688
148.254
142.455
136.358
130.029
123.522
116.887
110.165
103.393
157.096
152.247
146.987
141.373
135.463
129.315
122.98
116.507
109.939
103.318
156.054
151.298
146.148
140.653
134.865
128.836
122.615
116.251
109.786
103.267
155.538
150.827
145.731
140.294
134.565
128.595
122.433
116.123
109.709
103.245
183.611
173.932
164.514
155.419
146.576
137.912
129.375
120.926
112.535
104.175
176.984
169.214
161.055
152.813
144.589
136.408
128.271
120.169
112.092
104.029
171.573
164.922
157.716
150.225
142.592
134.89
127.154
119.403
111.645
103.882
167.196
161.229
154.706
147.82
140.702
133.438
126.08
118.664
111.212
103.74
163.668
158.148
152.113
145.695
139.003
132.116
125.096
117.984
110.813
103.608
160.86
155.647
149.963
143.9
137.546
130.971
124.236
117.386
110.461
103.492
158.688
153.691
148.257
142.458
136.361
130.033
123.526
116.891
110.169
103.396
157.099
152.249
146.989
141.376
135.466
129.319
122.984
116.512
109.944
103.322
156.057
151.3
146.151
140.656
134.868
128.84
122.62
116.257
109.792
103.272
155.541
150.83
145.733
140.297
134.569
128.599
122.437
116.129
109.716
103.251
192.497
195.316
196.5
197.136
197.537
197.809
197.998
198.128
198.21
198.249
198.249
198.21
198.129
198
197.811
197.539
197.139
196.502
195.318
192.498
183.569
187.595
190.059
191.656
192.748
193.519
194.066
194.443
194.681
194.796
194.797
194.683
194.446
194.07
193.524
192.754
191.662
190.064
187.6
183.572
177.23
181.465
184.513
186.71
188.311
189.484
190.335
190.929
191.306
191.49
191.491
191.309
190.933
190.341
189.492
188.319
186.719
184.522
181.473
177.236
172.36
176.568
179.864
182.406
184.349
185.82
186.91
187.681
188.175
188.417
188.418
188.179
187.688
186.919
185.831
184.362
182.42
179.879
176.581
172.373
168.515
172.641
176.033
178.763
180.925
182.604
183.871
184.779
185.365
185.654
185.656
185.371
184.788
183.883
182.619
180.943
178.783
176.054
172.662
168.536
165.481
169.52
172.939
175.769
178.064
179.882
181.275
182.283
182.94
183.264
183.267
182.947
182.296
181.291
179.903
178.089
175.796
172.969
169.552
165.514
163.144
167.107
170.521
173.401
175.776
177.684
179.161
180.24
180.947
181.297
181.3
180.956
180.256
179.182
177.71
175.807
173.437
170.561
167.149
163.188
161.434
165.338
168.738
171.64
174.06
176.024
177.556
178.682
179.423
179.791
179.795
179.434
178.701
177.582
176.056
174.099
171.685
168.788
165.391
161.49
160.312
164.175
167.563
170.474
172.918
174.912
176.477
177.632
178.393
178.773
178.777
178.406
177.653
176.507
174.95
172.963
170.525
167.621
164.238
160.379
159.756
163.599
166.978
169.892
172.347
174.355
175.935
177.103
177.875
178.26
178.265
177.889
177.126
175.967
174.396
172.395
169.948
167.042
163.667
159.829
192.499
195.318
196.502
197.138
197.538
197.81
197.999
198.129
198.21
198.249
198.249
198.21
198.129
197.999
197.81
197.538
197.138
196.501
195.316
192.496
183.572
187.598
190.062
191.658
192.75
193.521
194.067
194.444
194.681
194.796
194.797
194.682
194.445
194.069
193.523
192.752
191.66
190.062
187.597
183.569
177.233
181.468
184.516
186.712
188.313
189.486
190.336
190.929
191.306
191.49
191.49
191.308
190.932
190.34
189.49
188.318
186.717
184.52
181.471
177.233
172.363
176.571
179.867
182.408
184.351
185.822
186.911
187.682
188.175
188.417
188.418
188.178
187.687
186.918
185.83
184.36
182.418
179.876
176.579
172.37
168.518
172.643
176.035
178.766
180.927
182.606
183.872
184.78
185.366
185.654
185.655
185.37
184.787
183.882
182.618
180.941
178.781
176.052
172.66
168.534
165.485
169.523
172.941
175.771
178.066
179.884
181.276
182.284
182.94
183.264
183.266
182.946
182.295
181.29
179.902
178.087
175.794
172.966
169.55
165.511
163.147
167.11
170.524
173.403
175.778
177.685
179.162
180.241
180.947
181.297
181.3
180.955
180.255
179.181
177.709
175.806
173.435
170.559
167.147
163.186
161.437
165.34
168.741
171.642
174.062
176.025
177.557
178.683
179.423
179.791
179.795
179.433
178.7
177.581
176.055
174.098
171.683
168.786
165.389
161.488
160.315
164.178
167.565
170.476
172.92
174.914
176.478
177.633
178.394
178.773
178.777
178.406
177.653
176.506
174.948
172.961
170.524
167.619
164.236
160.376
159.758
163.601
166.981
169.894
172.348
174.357
175.936
177.104
177.875
178.26
178.264
177.888
177.126
175.966
174.395
172.394
169.947
167.04
163.665
159.827
192.499
195.318
196.502
197.138
197.538
197.81
197.999
198.129
198.21
198.249
198.249
198.21
198.129
197.999
197.81
197.538
197.138
196.501
195.316
192.496
183.572
187.598
190.062
191.658
192.75
193.521
194.067
194.444
194.681
194.796
194.797
194.682
194.445
194.069
193.523
192.752
191.66
190.062
187.597
183.569
177.233
181.468
184.516
186.712
188.313
189.486
190.336
190.929
191.306
191.49
191.49
191.308
190.932
190.34
189.49
188.318
186.717
184.52
181.471
177.233
172.363
176.571
179.867
182.408
184.351
185.822
186.911
187.682
188.175
188.417
188.418
188.178
187.687
186.918
185.83
184.36
182.418
179.876
176.579
172.37
168.518
172.643
176.035
178.766
180.927
182.606
183.872
184.78
185.366
185.654
185.655
185.37
184.787
183.882
182.618
180.941
178.781
176.052
172.66
168.534
165.485
169.523
172.941
175.771
178.066
179.884
181.276
182.284
182.94
183.264
183.266
182.946
182.295
181.29
179.902
178.087
175.794
172.966
169.55
165.511
163.147
167.11
170.524
173.403
175.778
177.685
179.162
180.241
180.947
181.297
181.3
180.955
180.255
179.181
177.709
175.806
173.435
170.559
167.147
163.186
161.437
165.34
168.741
171.643
174.062
176.025
177.557
178.683
179.423
179.791
179.795
179.434
178.7
177.581
176.055
174.098
171.683
168.786
165.389
161.488
160.315
164.178
167.565
170.476
172.92
174.914
176.478
177.633
178.394
178.773
178.777
178.406
177.653
176.506
174.948
172.961
170.524
167.619
164.236
160.376
159.758
163.601
166.981
169.894
172.348
174.357
175.936
177.104
177.875
178.26
178.264
177.888
177.126
175.966
174.395
172.394
169.947
167.04
163.665
159.827
192.497
195.316
196.5
197.136
197.537
197.809
197.998
198.128
198.21
198.249
198.249
198.21
198.129
198
197.811
197.539
197.139
196.502
195.318
192.498
183.569
187.595
190.059
191.656
192.748
193.519
194.066
194.443
194.681
194.796
194.797
194.683
194.446
194.07
193.524
192.754
191.662
190.064
187.6
183.572
177.23
181.465
184.513
186.71
188.311
189.484
190.335
190.929
191.306
191.49
191.491
191.309
190.933
190.341
189.492
188.319
186.719
184.522
181.473
177.236
172.36
176.568
179.864
182.406
184.349
185.82
186.91
187.681
188.175
188.417
188.418
188.179
187.687
186.919
185.831
184.362
182.42
179.878
176.581
172.373
168.515
172.641
176.033
178.763
180.925
182.604
183.871
184.779
185.365
185.654
185.656
185.371
184.788
183.883
182.619
180.943
178.783
176.054
172.662
168.536
165.481
169.52
172.938
175.769
178.064
179.882
181.275
182.283
182.94
183.264
183.266
182.947
182.295
181.291
179.903
178.089
175.796
172.968
169.552
165.514
163.144
167.107
170.521
173.401
175.776
177.684
179.161
180.24
180.947
181.297
181.3
180.956
180.256
179.182
177.71
175.807
173.437
170.561
167.149
163.188
161.434
165.338
168.738
171.64
174.061
176.024
177.556
178.683
179.423
179.791
179.795
179.434
178.701
177.582
176.056
174.099
171.685
168.788
165.391
161.49
160.312
164.175
167.563
170.474
172.918
174.912
176.477
177.632
178.394
178.773
178.778
178.406
177.653
176.507
174.95
172.963
170.526
167.621
164.238
160.379
159.756
163.599
166.979
169.892
172.347
174.355
175.935
177.104
177.875
178.26
178.265
177.889
177.127
175.967
174.396
172.395
169.949
167.042
163.668
159.829
104.175
112.537
120.931
129.383
137.921
146.585
155.428
164.521
173.937
183.611
104.029
112.094
120.173
128.278
136.417
144.598
152.821
161.061
169.217
176.984
103.882
111.645
119.406
127.159
134.895
142.597
150.228
157.717
164.92
171.569
103.739
111.211
118.664
126.081
133.438
140.701
147.817
154.701
161.221
167.186
103.606
110.809
117.98
125.091
132.109
138.993
145.683
152.098
158.13
163.648
103.489
110.455
117.377
124.223
130.955
137.525
143.876
149.935
155.617
160.828
103.391
110.159
116.876
123.505
130.005
136.328
142.419
148.216
153.647
158.644
103.315
109.93
116.489
122.952
129.278
135.419
141.323
146.933
152.191
157.041
103.264
109.774
116.224
122.576
128.787
134.808
140.59
146.082
151.23
155.987
103.233
109.695
116.09
122.387
128.539
134.501
140.224