/*--------------------------------*- C++ -*----------------------------------*\
| =========                 |                                                 |
| \\      /  F ield         | OpenFOAM: The Open Source CFD Toolbox           |
|  \\    /   O peration     | Version:  2.4.0                                 |
|   \\  /    A nd           | Web:      www.OpenFOAM.org                      |
|    \\/     M anipulation  |                                                 |
\*---------------------------------------------------------------------------*/
FoamFile
{
    version     2.0;
    format      ascii;
    class       surfaceScalarField;
    location    "4.3";
    object      phi;
}
// * * * * * * * * * * * * * * * * * * * * * * * * * * * * * * * * * * * * * //

dimensions      [0 3 -1 0 0 0 0];

internalField   nonuniform List<scalar> 
12720
(
1.55117e-07
-1.55606e-07
-6.4348e-11
-5.40341e-07
6.93733e-07
1.72462e-09
-2.06838e-06
1.52544e-06
2.59714e-09
-4.18188e-06
2.11016e-06
3.3331e-09
-6.64431e-06
2.45866e-06
3.77134e-09
-9.26073e-06
2.61247e-06
3.95045e-09
-1.18706e-05
2.60594e-06
3.96049e-09
-1.4335e-05
2.46052e-06
3.80462e-09
-1.65322e-05
2.19383e-06
3.45619e-09
1.8347e-06
2.88925e-09
-1.83698e-05
-7.25493e-07
5.71344e-07
-1.45864e-09
-3.29683e-06
3.26466e-06
4.09365e-10
-7.5033e-06
5.7334e-06
-1.49652e-09
-1.29203e-05
7.52952e-06
-2.38175e-09
-1.90987e-05
8.63991e-06
-2.82683e-09
-2.56189e-05
9.1358e-06
-3.109e-09
-3.21006e-05
9.0907e-06
-3.12011e-09
-3.82006e-05
8.56342e-06
-2.90141e-09
-4.36232e-05
7.61902e-06
-2.5449e-09
6.36602e-06
-2.19582e-09
-4.81523e-05
-1.69424e-06
2.26808e-06
-2.49756e-09
-6.13713e-06
7.70527e-06
2.27865e-09
-1.27328e-05
1.2329e-05
1.16867e-10
-2.0885e-05
1.56818e-05
-8.59086e-11
-3.00062e-05
1.7761e-05
1.24842e-10
-3.95372e-05
1.86667e-05
1.14695e-10
-4.89496e-05
1.85029e-05
1.24841e-10
-5.77488e-05
1.73625e-05
1.83457e-10
-6.54996e-05
1.53696e-05
2.51996e-10
1.27479e-05
1.54934e-10
-7.18816e-05
-2.49082e-06
4.76253e-06
-3.63717e-09
-8.5195e-06
1.37307e-05
3.20545e-09
-1.70996e-05
2.09091e-05
-5.53132e-12
-2.74455e-05
2.6028e-05
-2.79199e-10
-3.88554e-05
2.91708e-05
8.75245e-11
-5.06728e-05
3.0484e-05
1.29084e-10
-6.22629e-05
3.00928e-05
1.68786e-10
-7.3009e-05
2.81084e-05
2.75211e-10
-8.23434e-05
2.47034e-05
4.76234e-10
2.02326e-05
4.19742e-10
-8.98285e-05
-3.0547e-06
7.82168e-06
-4.44993e-09
-1.02436e-05
2.09159e-05
3.76775e-09
-2.0276e-05
3.09419e-05
-4.25288e-10
-3.22075e-05
3.79604e-05
-9.2658e-10
-4.52466e-05
4.22105e-05
-5.62266e-10
-5.86689e-05
4.39068e-05
-5.37777e-10
-7.17618e-05
4.31861e-05
-4.8127e-10
-8.38011e-05
4.01479e-05
-2.84013e-10
-9.40721e-05
3.49741e-05
2.98734e-10
2.81266e-05
5.88425e-10
-0.000101967
-3.3613e-06
1.11878e-05
-4.851e-09
-1.12026e-05
2.8753e-05
4.17021e-09
-2.2059e-05
4.17989e-05
-5.59814e-10
-3.48875e-05
5.07901e-05
-1.18159e-09
-4.88428e-05
5.61666e-05
-8.2145e-10
-6.31637e-05
5.82285e-05
-8.17512e-10
-7.70896e-05
5.71128e-05
-8.00033e-10
-8.98058e-05
5.28648e-05
-6.44442e-10
-0.000100429
4.55965e-05
5.15959e-10
3.57678e-05
1.64013e-09
-0.000108072
-3.40122e-06
1.45939e-05
-4.895e-09
-1.13455e-05
3.6693e-05
4.27623e-09
-2.23337e-05
5.27877e-05
-6.0017e-10
-3.52949e-05
6.37525e-05
-1.29496e-09
-4.93701e-05
7.02428e-05
-9.8975e-10
-6.37963e-05
7.26557e-05
-1.02737e-09
-7.78048e-05
7.11225e-05
-1.13787e-09
-9.05309e-05
6.55922e-05
-1.36331e-09
-0.000100925
5.59897e-05
6.77495e-10
4.24983e-05
4.16871e-09
-0.000107659
-3.18098e-06
1.77794e-05
-4.48469e-09
-1.06783e-05
4.41863e-05
4.1065e-09
-2.10848e-05
6.31947e-05
-5.50467e-10
-3.33622e-05
7.60312e-05
-1.26057e-09
-4.66676e-05
8.35493e-05
-1.03264e-09
-6.02605e-05
8.62497e-05
-1.05017e-09
-7.34077e-05
8.42708e-05
-1.18927e-09
-8.52664e-05
7.74531e-05
-2.10725e-09
-9.47081e-05
6.54294e-05
2.00346e-09
4.75636e-05
1.45126e-08
-9.97879e-05
-2.73159e-06
2.05148e-05
-3.73982e-09
-9.28601e-06
5.0737e-05
3.7192e-09
-1.8442e-05
7.23511e-05
-3.8178e-10
-2.92289e-05
8.68191e-05
-1.05604e-09
-4.08179e-05
9.51393e-05
-9.69285e-10
-5.24746e-05
9.79074e-05
-1.04864e-09
-6.35001e-05
9.52978e-05
-1.4068e-09
-7.31274e-05
8.70853e-05
-4.92014e-09
-8.03688e-05
7.26723e-05
-1.46711e-09
4.98661e-05
3.25792e-08
-8.27039e-05
-2.11757e-06
-2.71584e-09
2.2635e-05
-7.35843e-06
3.21005e-09
5.59746e-05
-1.47394e-05
-6.91053e-11
7.97321e-05
-2.33611e-05
-6.03512e-10
9.54414e-05
-3.23648e-05
-6.39911e-10
0.000104144
-4.09189e-05
-9.34973e-10
0.000106462
-4.81999e-05
-1.98124e-09
0.000102581
-5.32868e-05
-1.22353e-08
9.21844e-05
-5.50674e-05
-2.86222e-08
7.44815e-05
9.83675e-09
-5.23689e-05
4.71578e-05
1.56582e-07
-1.56581e-07
-5.44158e-11
-5.40954e-07
6.99277e-07
-2.10411e-11
-2.06913e-06
1.53077e-06
-4.23143e-12
-4.18201e-06
2.11621e-06
2.00998e-12
-6.64417e-06
2.46592e-06
2.53048e-12
-9.26058e-06
2.62036e-06
2.76164e-12
-1.18706e-05
2.61397e-06
2.16101e-12
-1.43351e-05
2.4683e-06
6.84742e-13
-1.65326e-05
2.20099e-06
-2.11338e-13
1.8407e-06
-7.84831e-13
-1.83704e-05
-7.30163e-07
5.72141e-07
-2.1657e-11
-3.30246e-06
3.27199e-06
-9.02484e-12
-7.50829e-06
5.7351e-06
-7.45886e-13
-1.29237e-05
7.52925e-06
3.46334e-12
-1.91003e-05
8.63973e-06
2.67046e-12
-2.5619e-05
9.13593e-06
2.01742e-12
-3.20994e-05
9.09125e-06
1.34862e-12
-3.81986e-05
8.56455e-06
3.19471e-13
-4.36209e-05
7.62076e-06
-5.30526e-13
6.36763e-06
-9.71264e-13
-4.815e-05
-1.69964e-06
2.26928e-06
-3.85712e-12
-6.13787e-06
7.71249e-06
2.94737e-13
-1.27336e-05
1.2331e-05
2.45309e-12
-2.0886e-05
1.56815e-05
4.23665e-12
-3.00067e-05
1.77606e-05
3.00557e-12
-3.95373e-05
1.86666e-05
2.28657e-12
-4.89492e-05
1.85033e-05
1.03494e-12
-5.77482e-05
1.73638e-05
-1.14507e-13
-6.54993e-05
1.5372e-05
-7.77037e-13
1.27501e-05
-1.05889e-12
-7.18816e-05
-2.49766e-06
4.76331e-06
2.59461e-12
-8.51835e-06
1.37364e-05
4.787e-12
-1.70984e-05
2.0911e-05
3.89248e-12
-2.74453e-05
2.60282e-05
3.11051e-12
-3.88554e-05
2.91708e-05
1.48222e-12
-5.06727e-05
3.04841e-05
1.17516e-12
-6.22627e-05
3.00934e-05
4.05433e-13
-7.30088e-05
2.81102e-05
-4.20002e-13
-8.23438e-05
2.47075e-05
-9.46046e-13
2.02366e-05
-1.19265e-12
-8.98299e-05
-3.06324e-06
7.82209e-06
3.5267e-12
-1.02422e-05
2.09191e-05
3.99847e-12
-2.02744e-05
3.09428e-05
3.31354e-12
-3.22071e-05
3.796e-05
2.47016e-12
-4.52466e-05
4.22097e-05
1.26247e-12
-5.8669e-05
4.3906e-05
4.40981e-13
-7.17617e-05
4.31856e-05
-2.30291e-13
-8.38006e-05
4.01488e-05
-7.84561e-13
-9.40725e-05
3.49796e-05
-1.14703e-12
2.81338e-05
-1.24864e-12
-0.000101969
-3.37075e-06
1.1188e-05
2.28762e-12
-1.12011e-05
2.87536e-05
3.43003e-12
-2.20573e-05
4.17984e-05
2.93586e-12
-3.48874e-05
5.07889e-05
1.69659e-12
-4.88433e-05
5.61648e-05
1.08121e-12
-6.31646e-05
5.82265e-05
1.47048e-13
-7.70902e-05
5.71104e-05
-5.66626e-13
-8.98054e-05
5.28633e-05
-9.94317e-13
-0.000100429
4.56037e-05
-1.20001e-12
3.57824e-05
-1.21061e-12
-0.000108076
-3.41077e-06
1.45939e-05
1.99995e-12
-1.1344e-05
3.66911e-05
1.27579e-12
-2.23323e-05
5.27861e-05
1.38993e-12
-3.52953e-05
6.37506e-05
1.18137e-12
-4.93717e-05
7.02402e-05
3.9865e-13
-6.37986e-05
7.26524e-05
-3.79922e-13
-7.78071e-05
7.11178e-05
-8.54337e-13
-9.0531e-05
6.55857e-05
-1.10437e-12
-0.000100924
5.59971e-05
-1.19731e-12
4.25308e-05
-1.18168e-12
-0.000107668
-3.18983e-06
1.77792e-05
1.27764e-12
-1.06769e-05
4.41823e-05
7.34487e-13
-2.10837e-05
6.31923e-05
2.89871e-13
-3.33633e-05
7.6029e-05
-6.20233e-14
-4.66703e-05
8.35461e-05
-4.86254e-13
-6.02646e-05
8.62456e-05
-8.38268e-13
-7.34122e-05
8.42643e-05
-1.03799e-12
-8.52667e-05
7.74381e-05
-1.141e-12
-9.46955e-05
6.54279e-05
-1.16347e-12
4.76465e-05
-1.1713e-12
-9.97968e-05
-2.73903e-06
2.05145e-05
1.69107e-13
-9.28468e-06
5.07317e-05
-1.67553e-14
-1.84412e-05
7.23485e-05
-3.28595e-13
-2.92307e-05
8.68174e-05
-6.36525e-13
-4.08227e-05
9.51371e-05
-8.70967e-13
-5.24831e-05
9.7905e-05
-1.0018e-12
-6.35146e-05
9.52944e-05
-1.07511e-12
-7.31473e-05
8.70658e-05
-1.10978e-12
-8.03449e-05
7.26241e-05
-1.12749e-12
4.9984e-05
-1.18828e-12
-8.26498e-05
-2.12298e-06
-9.06654e-14
2.26348e-05
-7.35682e-06
-1.96043e-13
5.59687e-05
-1.4738e-05
-5.96497e-13
7.97296e-05
-2.3362e-05
-8.43786e-13
9.54408e-05
-3.23695e-05
-9.50928e-13
0.000104144
-4.09308e-05
-1.00905e-12
0.000106465
-4.82287e-05
-1.05707e-12
0.00010259
-5.33754e-05
-1.0777e-12
9.22002e-05
-5.52088e-05
-1.10463e-12
7.44289e-05
-1.23623e-12
-5.21399e-05
4.69249e-05
1.56611e-07
-1.56552e-07
-1.16951e-10
-5.4094e-07
6.99297e-07
-1.7714e-09
-2.06912e-06
1.53079e-06
-2.605e-09
-4.18201e-06
2.11622e-06
-3.33033e-09
-6.64416e-06
2.46593e-06
-3.76647e-09
-9.26058e-06
2.62036e-06
-3.94725e-09
-1.18706e-05
2.61397e-06
-3.95914e-09
-1.43351e-05
2.4683e-06
-3.80445e-09
-1.65326e-05
2.20099e-06
-3.45605e-09
1.8407e-06
-2.8901e-09
-1.83704e-05
-7.30142e-07
5.72156e-07
1.41043e-09
-3.30244e-06
3.27201e-06
-4.28572e-10
-7.50827e-06
5.73512e-06
1.49345e-09
-1.29237e-05
7.52926e-06
2.38486e-09
-1.91003e-05
8.63974e-06
2.8318e-09
-2.5619e-05
9.13593e-06
3.1121e-09
-3.20994e-05
9.09126e-06
3.12158e-09
-3.81986e-05
8.56455e-06
2.90141e-09
-4.36209e-05
7.62076e-06
2.5442e-09
6.36763e-06
2.19473e-09
-4.815e-05
-1.69963e-06
2.26929e-06
2.48871e-09
-6.13786e-06
7.71251e-06
-2.28147e-09
-1.27336e-05
1.2331e-05
-1.14363e-10
-2.0886e-05
1.56815e-05
8.87825e-11
-3.00067e-05
1.77606e-05
-1.21534e-10
-3.95373e-05
1.86666e-05
-1.12544e-10
-4.89492e-05
1.85033e-05
-1.24403e-10
-5.77482e-05
1.73638e-05
-1.83893e-10
-6.54993e-05
1.5372e-05
-2.5288e-10
1.27501e-05
-1.56405e-10
-7.18816e-05
-2.49765e-06
4.76331e-06
3.63862e-09
-8.51834e-06
1.37364e-05
-3.20318e-09
-1.70983e-05
2.0911e-05
1.1253e-11
-2.74453e-05
2.60282e-05
2.84336e-10
-3.88553e-05
2.91708e-05
-8.38972e-11
-5.06727e-05
3.04841e-05
-1.27044e-10
-6.22627e-05
3.00934e-05
-1.68696e-10
-7.30088e-05
2.81102e-05
-2.75998e-10
-8.23438e-05
2.47075e-05
-4.77597e-10
2.02366e-05
-4.21432e-10
-8.98298e-05
-3.06324e-06
7.82209e-06
4.4541e-09
-1.02422e-05
2.09191e-05
-3.76467e-09
-2.02744e-05
3.09428e-05
4.294e-10
-3.22071e-05
3.796e-05
9.30192e-10
-4.52466e-05
4.22097e-05
5.64726e-10
-5.8669e-05
4.3906e-05
5.38859e-10
-7.17617e-05
4.31856e-05
4.80905e-10
-8.38006e-05
4.01488e-05
2.82854e-10
-9.40725e-05
3.49797e-05
-3.00385e-10
2.81338e-05
-5.90239e-10
-0.000101969
-3.37075e-06
1.1188e-05
4.85566e-09
-1.12011e-05
2.87536e-05
-4.16827e-09
-2.20573e-05
4.17985e-05
5.62057e-10
-3.48874e-05
5.07889e-05
1.18388e-09
-4.88433e-05
5.61648e-05
8.23247e-10
-6.31646e-05
5.82265e-05
8.1769e-10
-7.70902e-05
5.71104e-05
7.99155e-10
-8.98054e-05
5.28633e-05
6.42986e-10
-0.000100429
4.56037e-05
-5.17716e-10
3.57824e-05
-1.64196e-09
-0.000108076
-3.41077e-06
1.45939e-05
4.89823e-09
-1.1344e-05
3.66911e-05
-4.27496e-09
-2.23323e-05
5.27861e-05
6.02017e-10
-3.52953e-05
6.37506e-05
1.29592e-09
-4.93716e-05
7.02402e-05
9.89587e-10
-6.37986e-05
7.26524e-05
1.0264e-09
-7.78071e-05
7.11179e-05
1.13651e-09
-9.0531e-05
6.55857e-05
1.36165e-09
-0.000100924
5.59971e-05
-6.79359e-10
4.25308e-05
-4.17058e-09
-0.000107668
-3.18983e-06
1.77792e-05
4.48543e-09
-1.06769e-05
4.41823e-05
-4.10599e-09
-2.10837e-05
6.31923e-05
5.50265e-10
-3.33633e-05
7.6029e-05
1.26013e-09
-4.66703e-05
8.35462e-05
1.03157e-09
-6.02646e-05
8.62456e-05
1.0488e-09
-7.34122e-05
8.42643e-05
1.18769e-09
-8.52667e-05
7.74381e-05
2.10544e-09
-9.46955e-05
6.54279e-05
-2.00542e-09
4.76465e-05
-1.45145e-08
-9.97968e-05
-2.73903e-06
2.05145e-05
3.73963e-09
-9.28468e-06
5.07317e-05
-3.71933e-09
-1.84412e-05
7.23485e-05
3.81754e-10
-2.92307e-05
8.68174e-05
1.0554e-09
-4.08227e-05
9.51371e-05
9.68116e-10
-5.24831e-05
9.7905e-05
1.04717e-09
-6.35146e-05
9.52944e-05
1.40512e-09
-7.31473e-05
8.70658e-05
4.91827e-09
-8.03449e-05
7.26241e-05
1.46513e-09
4.9984e-05
-3.2581e-08
-8.26498e-05
-2.12298e-06
2.71475e-09
2.26348e-05
-7.35682e-06
-3.21072e-09
5.59687e-05
-1.4738e-05
6.83487e-11
7.97296e-05
-2.3362e-05
6.02443e-10
9.54408e-05
-3.23695e-05
6.38569e-10
0.000104144
-4.09308e-05
9.33436e-10
0.000106465
-4.82287e-05
1.9795e-09
0.00010259
-5.33754e-05
1.22334e-08
9.22002e-05
-5.52088e-05
2.86203e-08
7.44289e-05
-9.83867e-09
-5.21399e-05
4.69249e-05
1.55304e-07
-1.55421e-07
-5.40283e-07
6.93809e-07
-2.06837e-06
1.52548e-06
-4.18188e-06
2.11018e-06
-6.64431e-06
2.45866e-06
-9.26072e-06
2.61247e-06
-1.18706e-05
2.60594e-06
-1.43349e-05
2.46052e-06
-1.65322e-05
2.19383e-06
1.8347e-06
-1.83698e-05
-7.25415e-07
5.71406e-07
-3.29677e-06
3.26473e-06
-7.50325e-06
5.73345e-06
-1.29202e-05
7.52955e-06
-1.90987e-05
8.63992e-06
-2.56189e-05
9.13581e-06
-3.21005e-05
9.09071e-06
-3.82005e-05
8.56342e-06
-4.36232e-05
7.61902e-06
6.36602e-06
-4.81523e-05
-1.6942e-06
2.26809e-06
-6.13708e-06
7.70532e-06
-1.27328e-05
1.23291e-05
-2.0885e-05
1.56818e-05
-3.00062e-05
1.7761e-05
-3.95372e-05
1.86668e-05
-4.89495e-05
1.85029e-05
-5.77488e-05
1.73625e-05
-6.54996e-05
1.53696e-05
1.27479e-05
-7.18816e-05
-2.4908e-06
4.76253e-06
-8.51947e-06
1.37308e-05
-1.70995e-05
2.09091e-05
-2.74455e-05
2.6028e-05
-3.88554e-05
2.91708e-05
-5.06728e-05
3.0484e-05
-6.22628e-05
3.00928e-05
-7.3009e-05
2.81084e-05
-8.23433e-05
2.47034e-05
2.02326e-05
-8.98285e-05
-3.05469e-06
7.82168e-06
-1.02436e-05
2.09159e-05
-2.0276e-05
3.0942e-05
-3.22075e-05
3.79605e-05
-4.52466e-05
4.22105e-05
-5.86689e-05
4.39068e-05
-7.17618e-05
4.31862e-05
-8.3801e-05
4.0148e-05
-9.40721e-05
3.49741e-05
2.81266e-05
-0.000101967
-3.3613e-06
1.11878e-05
-1.12026e-05
2.8753e-05
-2.2059e-05
4.17989e-05
-3.48875e-05
5.07901e-05
-4.88428e-05
5.61666e-05
-6.31637e-05
5.82286e-05
-7.70895e-05
5.71128e-05
-8.98058e-05
5.28648e-05
-0.000100429
4.55966e-05
3.57678e-05
-0.000108072
-3.40122e-06
1.4594e-05
-1.13455e-05
3.66931e-05
-2.23337e-05
5.27877e-05
-3.52948e-05
6.37525e-05
-4.93701e-05
7.02429e-05
-6.37962e-05
7.26557e-05
-7.78048e-05
7.11225e-05
-9.05308e-05
6.55922e-05
-0.000100925
5.59897e-05
4.24983e-05
-0.000107659
-3.18098e-06
1.77794e-05
-1.06783e-05
4.41863e-05
-2.10848e-05
6.31947e-05
-3.33621e-05
7.60312e-05
-4.66675e-05
8.35493e-05
-6.02605e-05
8.62497e-05
-7.34076e-05
8.42708e-05
-8.52664e-05
7.74531e-05
-9.47081e-05
6.54294e-05
4.75636e-05
-9.97879e-05
-2.73159e-06
2.05148e-05
-9.28601e-06
5.0737e-05
-1.8442e-05
7.23511e-05
-2.92289e-05
8.68191e-05
-4.08179e-05
9.51393e-05
-5.24746e-05
9.79075e-05
-6.35001e-05
9.52978e-05
-7.31274e-05
8.70853e-05
-8.03688e-05
7.26723e-05
4.98661e-05
-8.27039e-05
-2.11757e-06
2.2635e-05
-7.35843e-06
5.59746e-05
-1.47394e-05
7.97321e-05
-2.33611e-05
9.54415e-05
-3.23648e-05
0.000104144
-4.09189e-05
0.000106462
-4.81999e-05
0.000102581
-5.32867e-05
9.21844e-05
-5.50674e-05
7.44815e-05
-5.23689e-05
4.71578e-05
-1.9806e-05
1.43403e-06
2.17431e-09
-2.08621e-05
1.05453e-06
1.52283e-09
-2.16008e-05
7.3775e-07
1.00957e-09
-2.20996e-05
4.98103e-07
6.38792e-10
-2.24318e-05
3.31796e-07
3.93317e-10
-2.26588e-05
2.26726e-07
2.45455e-10
-2.28284e-05
1.69507e-07
1.68773e-10
-2.29775e-05
1.4889e-07
1.42881e-10
-2.31341e-05
1.56465e-07
1.54074e-10
-2.33201e-05
1.85824e-07
1.9376e-10
-2.35513e-05
2.30949e-07
2.55878e-10
-2.38359e-05
2.84213e-07
3.3389e-10
-2.41704e-05
3.34178e-07
4.17993e-10
-2.45344e-05
3.63468e-07
4.91917e-10
-2.48822e-05
3.47283e-07
5.2867e-10
-2.51363e-05
2.53623e-07
4.84684e-10
-2.51846e-05
4.79414e-08
3.05405e-10
-2.48819e-05
-3.02657e-07
-4.29826e-11
-2.40753e-05
-8.05967e-07
-6.56066e-10
-1.43641e-06
-1.57938e-09
-2.26373e-05
-5.16991e-05
4.98278e-06
-1.94289e-09
-5.43237e-05
3.68072e-06
-1.62285e-09
-5.61803e-05
2.59562e-06
-1.28467e-09
-5.74536e-05
1.7724e-06
-9.82895e-10
-5.83176e-05
1.19652e-06
-7.36701e-10
-5.89171e-05
8.26811e-07
-5.55506e-10
-5.93651e-05
6.17926e-07
-4.39139e-10
-5.97468e-05
5.30998e-07
-3.80366e-10
-6.01258e-05
5.35785e-07
-3.68583e-10
-6.05476e-05
6.08044e-07
-3.91575e-10
-6.10407e-05
7.24525e-07
-4.3445e-10
-6.16129e-05
8.56856e-07
-4.77578e-10
-6.22433e-05
9.65049e-07
-4.94144e-10
-6.2871e-05
9.91592e-07
-4.486e-10
-6.33813e-05
8.57925e-07
-2.9719e-10
-6.35942e-05
4.66513e-07
5.91252e-12
-6.326e-05
-2.86709e-07
4.90655e-10
-6.20775e-05
-1.48636e-06
1.14598e-09
-5.97326e-05
-3.15277e-06
1.93104e-09
-5.19127e-06
2.66954e-09
-5.59804e-05
-7.67772e-05
9.87858e-06
-2.39405e-10
-8.03184e-05
7.22236e-06
-4.17537e-10
-8.27713e-05
5.049e-06
-4.5861e-10
-8.44244e-05
3.42592e-06
-4.36661e-10
-8.55307e-05
2.30316e-06
-3.73738e-10
-8.62892e-05
1.58561e-06
-2.99006e-10
-8.68478e-05
1.1768e-06
-2.31161e-10
-8.73137e-05
9.97066e-07
-1.77467e-10
-8.77633e-05
9.85481e-07
-1.38735e-10
-8.82488e-05
1.09364e-06
-1.12438e-10
-8.87999e-05
1.27576e-06
-9.4097e-11
-8.94203e-05
1.47731e-06
-7.80225e-11
-9.00783e-05
1.62313e-06
-5.74316e-11
-9.06934e-05
1.60668e-06
-2.39232e-11
-9.11187e-05
1.28323e-06
3.36977e-11
-9.11249e-05
4.7256e-07
1.2482e-10
-9.03917e-05
-1.02013e-06
2.44267e-10
-8.85215e-05
-3.35698e-06
3.84187e-10
-8.5088e-05
-6.5868e-06
5.28365e-10
-1.05393e-05
4.49602e-10
-7.97404e-05
-9.53185e-05
1.5369e-05
-3.81436e-10
-9.90822e-05
1.09867e-05
-6.15041e-10
-0.000101551
7.51883e-06
-6.11724e-10
-0.000103133
5.00809e-06
-5.44478e-10
-0.000104145
3.31509e-06
-4.33969e-10
-0.000104811
2.25249e-06
-3.21663e-10
-0.000105285
1.65128e-06
-2.2835e-10
-0.000105669
1.38134e-06
-1.57625e-10
-0.000106032
1.348e-06
-1.07238e-10
-0.000106417
1.47908e-06
-7.3184e-11
-0.00010685
1.70868e-06
-5.12721e-11
-0.000107333
1.95997e-06
-3.77096e-11
-0.000107837
2.1276e-06
-2.89029e-11
-0.000108291
2.06086e-06
-1.92126e-11
-0.000108559
1.5508e-06
5.52156e-12
-0.000108414
3.28046e-07
6.09518e-11
-0.000107521
-1.91369e-06
1.30078e-10
-0.000105421
-5.45722e-06
2.60417e-10
-0.00010157
-1.04386e-05
5.09945e-10
-1.66588e-05
4.50391e-10
-9.54508e-05
-0.000107275
2.06785e-05
-1.03642e-09
-0.000110528
1.42402e-05
-1.16266e-09
-0.000112414
9.40652e-06
-9.43476e-10
-0.000113478
6.07305e-06
-7.3849e-10
-0.000114078
3.91527e-06
-5.20614e-10
-0.000114428
2.60286e-06
-3.4276e-10
-0.000114652
1.87511e-06
-2.19391e-10
-0.000114819
1.54899e-06
-1.39666e-10
-0.000114972
1.5008e-06
-9.16347e-11
-0.000115135
1.64228e-06
-6.60174e-11
-0.000115324
1.89714e-06
-5.63624e-11
-0.000115542
2.17858e-06
-5.84086e-11
-0.000115781
2.36657e-06
-6.90401e-11
-0.000116005
2.28444e-06
-8.1987e-11
-0.00011613
1.67634e-06
-7.27586e-11
-0.000115992
1.90508e-07
-6.86937e-12
-0.000115298
-2.60771e-06
6.27173e-11
-0.00011357
-7.1859e-06
2.56581e-10
-0.000110122
-1.38872e-05
8.98021e-10
-2.26302e-05
1.28912e-09
-0.000104152
-0.000112339
2.49477e-05
-2.21009e-09
-0.000114287
1.61901e-05
-1.88902e-09
-0.000115006
1.01277e-05
-1.18612e-09
-0.000115172
6.23886e-06
-7.94917e-10
-0.000115124
3.86848e-06
-4.68228e-10
-0.000115014
2.49325e-06
-2.47513e-10
-0.000114896
1.75646e-06
-1.23006e-10
-0.00011478
1.43388e-06
-5.69223e-11
-0.000114667
1.38761e-06
-2.46394e-11
-0.000114553
1.52762e-06
-1.22488e-11
-0.000114437
1.78182e-06
-1.28937e-11
-0.000114329
2.07065e-06
-2.41761e-11
-0.000114245
2.28196e-06
-4.63033e-11
-0.000114203
2.24265e-06
-7.83828e-11
-0.000114211
1.68496e-06
-9.74658e-11
-0.000114227
2.06215e-07
-5.87864e-11
-0.000114081
-2.75346e-06
-3.18965e-11
-0.000113358
-7.90965e-06
1.41463e-10
-0.000111243
-1.60036e-05
1.54601e-09
-2.74078e-05
3.27556e-09
-0.000106468
-0.00010983
2.71244e-05
-5.87574e-09
-0.000109619
1.59828e-05
-3.88587e-09
-0.000108683
9.19314e-06
-1.79966e-09
-0.000107727
5.28373e-06
-9.38758e-10
-0.000106958
3.09976e-06
-3.9946e-10
-0.000106381
1.91665e-06
-1.24138e-10
-0.00010594
1.3153e-06
-1.58499e-11
-0.000105571
1.06473e-06
1.97486e-11
-0.000105221
1.03838e-06
2.41706e-11
-0.000104856
1.16248e-06
1.43323e-11
-0.000104458
1.38377e-06
-4.06954e-12
-0.000104033
1.64595e-06
-3.05217e-11
-0.000103619
1.86715e-06
-6.6385e-11
-0.000103288
1.91206e-06
-1.14978e-10
-0.000103154
1.55171e-06
-1.51821e-10
-0.000103348
3.9997e-07
-7.73954e-11
-0.000103932
-2.1698e-06
9.32898e-11
-0.000104719
-7.12281e-06
4.67382e-10
-0.000104909
-1.58174e-05
3.73961e-09
-2.97444e-05
9.00212e-09
-0.000102582
-9.83823e-05
2.57287e-05
-9.97812e-09
-9.52065e-05
1.28112e-05
-4.06221e-09
-9.24401e-05
6.42752e-06
-8.28143e-10
-9.04747e-05
3.31869e-06
-3.14474e-10
-8.91699e-05
1.79486e-06
4.02399e-11
-8.83037e-05
1.05035e-06
1.65014e-10
-8.76905e-05
7.01935e-07
1.56191e-10
-8.71961e-05
5.70189e-07
1.28498e-10
-8.67283e-05
5.70436e-07
1.0652e-10
-8.62261e-05
6.602e-07
9.1177e-11
-8.56555e-05
8.13124e-07
7.86409e-11
-8.50128e-05
1.00315e-06
6.28496e-11
-8.4336e-05
1.19038e-06
3.43642e-11
-8.37258e-05
1.30188e-06
-3.31795e-11
-8.3372e-05
1.19806e-06
-1.31932e-10
-8.35763e-05
6.04324e-07
-4.24599e-11
-8.47159e-05
-1.03035e-06
1.24918e-10
-8.71063e-05
-4.73197e-06
-4.63882e-10
-9.04143e-05
-1.25126e-05
3.30372e-09
-2.79953e-05
1.43776e-08
-9.21779e-05
-7.51323e-05
1.81696e-05
-1.24635e-08
-6.88091e-05
6.48246e-06
5.52315e-09
-6.49153e-05
2.5275e-06
6.19044e-09
-6.26707e-05
1.07146e-06
2.64803e-09
-6.13766e-05
4.99412e-07
1.37182e-09
-6.05951e-05
2.67991e-07
8.33617e-10
-6.00705e-05
1.76799e-07
5.25262e-10
-5.96519e-05
1.51214e-07
3.98853e-10
-5.92454e-05
1.63558e-07
3.83827e-10
-5.8789e-05
2.03348e-07
4.32172e-10
-5.82425e-05
2.6607e-07
5.18667e-10
-5.7588e-05
3.48076e-07
6.21442e-10
-5.6841e-05
4.427e-07
7.02238e-10
-5.6074e-05
5.34193e-07
6.62799e-10
-5.54604e-05
5.84114e-07
3.77611e-10
-5.53593e-05
5.03277e-07
-8.7578e-11
-5.63551e-05
-3.29485e-08
-1.66444e-09
-5.94921e-05
-1.58724e-06
-7.69506e-09
-6.58649e-05
-6.1293e-06
-1.04556e-08
-1.94087e-05
1.55261e-08
-7.4467e-05
-3.41301e-05
-6.91958e-08
-2.76359e-05
-1.18007e-08
-2.51075e-05
-8.62871e-10
-2.40342e-05
-1.89606e-09
-2.35335e-05
-1.23311e-09
-2.32649e-05
-5.80862e-10
-2.30878e-05
-3.29823e-10
-2.29364e-05
-2.34654e-10
-2.27726e-05
-2.08476e-10
-2.2569e-05
-2.29394e-10
-2.23027e-05
-2.83638e-10
-2.19542e-05
-3.57734e-10
-2.15111e-05
-4.32534e-10
-2.09764e-05
-4.74326e-10
-2.0392e-05
-3.66631e-10
-1.98889e-05
2.07158e-10
-1.99226e-05
7.7166e-10
-2.15073e-05
-2.56381e-09
-2.76417e-05
5.07674e-09
8.76111e-08
-4.7138e-05
-1.98066e-05
1.43836e-06
-9.64895e-13
-2.08626e-05
1.05747e-06
-9.46414e-13
-2.16012e-05
7.39646e-07
-9.03963e-13
-2.20998e-05
4.99267e-07
-8.39554e-13
-2.24319e-05
3.32495e-07
-7.87959e-13
-2.26589e-05
2.27162e-07
-6.72602e-13
-2.28285e-05
1.69823e-07
-5.53256e-13
-2.29776e-05
1.49184e-07
-5.26929e-13
-2.31342e-05
1.56806e-07
-5.03487e-13
-2.33203e-05
1.86262e-07
-4.28663e-13
-2.35515e-05
2.3152e-07
-3.48172e-13
-2.38361e-05
2.84934e-07
-2.8324e-13
-2.41708e-05
3.35041e-07
-2.16983e-13
-2.45347e-05
3.64429e-07
-1.5901e-13
-2.48824e-05
3.48252e-07
-1.21241e-13
-2.51364e-05
2.54457e-07
-9.9673e-14
-2.51843e-05
4.81938e-08
-9.1058e-14
-2.48815e-05
-3.02871e-07
-9.70669e-14
-2.40748e-05
-8.07281e-07
-1.05318e-13
-1.43944e-06
-1.12417e-13
-2.2637e-05
-5.16966e-05
4.98307e-06
-1.07923e-12
-5.43212e-05
3.68038e-06
-1.05981e-12
-5.6178e-05
2.59518e-06
-1.00943e-12
-5.74517e-05
1.772e-06
-9.65087e-13
-5.83162e-05
1.19622e-06
-8.53225e-13
-5.89162e-05
8.26617e-07
-7.1165e-13
-5.93646e-05
6.17805e-07
-6.37874e-13
-5.97467e-05
5.30913e-07
-6.04284e-13
-6.0126e-05
5.35699e-07
-5.46425e-13
-6.0548e-05
6.07919e-07
-4.64716e-13
-6.10413e-05
7.24321e-07
-3.84984e-13
-6.16133e-05
8.56536e-07
-3.16032e-13
-6.22434e-05
9.64589e-07
-2.53979e-13
-6.28704e-05
9.91002e-07
-2.01546e-13
-6.33797e-05
8.57285e-07
-1.64668e-13
-6.35913e-05
4.65996e-07
-1.43237e-13
-6.32557e-05
-2.86859e-07
-1.32417e-13
-6.20719e-05
-1.48559e-06
-1.27105e-13
-5.97264e-05
-3.15077e-06
-1.25652e-13
-5.18871e-06
-1.19795e-13
-5.59745e-05
-7.67765e-05
9.87769e-06
-1.13645e-12
-8.0317e-05
7.2205e-06
-1.11514e-12
-8.27697e-05
5.04736e-06
-1.04215e-12
-8.44228e-05
3.4247e-06
-9.72562e-13
-8.55293e-05
2.30236e-06
-8.64894e-13
-8.62882e-05
1.58516e-06
-7.53642e-13
-8.68472e-05
1.17657e-06
-6.74142e-13
-8.73134e-05
9.96943e-07
-6.22782e-13
-8.77632e-05
9.85382e-07
-5.56495e-13
-8.82489e-05
1.09348e-06
-4.74696e-13
-8.88001e-05
1.27548e-06
-3.90197e-13
-8.94205e-05
1.47683e-06
-3.14392e-13
-9.00784e-05
1.6224e-06
-2.49334e-13
-9.06931e-05
1.60569e-06
-1.95827e-13
-9.11178e-05
1.28209e-06
-1.59671e-13
-9.11232e-05
4.71524e-07
-1.39313e-13
-9.03892e-05
-1.02064e-06
-1.2667e-13
-8.85183e-05
-3.35612e-06
-1.25559e-13
-8.50849e-05
-6.5837e-06
-1.23718e-13
-1.05352e-05
-1.20987e-13
-7.97379e-05
-9.53183e-05
1.53658e-05
-1.21301e-12
-9.90806e-05
1.09822e-05
-1.12722e-12
-0.000101549
7.5155e-06
-1.04904e-12
-0.000103131
5.00585e-06
-9.91576e-13
-0.000104143
3.31375e-06
-8.72127e-13
-0.00010481
2.25179e-06
-7.64228e-13
-0.000105284
1.65097e-06
-6.94407e-13
-0.000105669
1.38122e-06
-6.44037e-13
-0.000106032
1.34795e-06
-5.73266e-13
-0.000106417
1.47898e-06
-4.75473e-13
-0.00010685
1.70844e-06
-3.77947e-13
-0.000107333
1.9595e-06
-2.95995e-13
-0.000107837
2.12681e-06
-2.30368e-13
-0.000108291
2.0597e-06
-1.81626e-13
-0.000108559
1.54934e-06
-1.5145e-13
-0.000108414
3.26669e-07
-1.35575e-13
-0.000107519
-1.91471e-06
-1.30428e-13
-0.000105419
-5.4565e-06
-1.341e-13
-0.000101568
-1.04341e-05
-1.40198e-13
-1.66526e-05
-1.33773e-13
-9.54501e-05
-0.000107274
2.06699e-05
-1.18779e-12
-0.000110525
1.42314e-05
-1.11883e-12
-0.000112411
9.40108e-06
-1.06223e-12
-0.000113476
6.06984e-06
-9.85382e-13
-0.000114076
3.91359e-06
-8.652e-13
-0.000114427
2.6021e-06
-7.82836e-13
-0.000114651
1.87484e-06
-7.16528e-13
-0.000114819
1.54893e-06
-6.60233e-13
-0.000114972
1.5008e-06
-5.75174e-13
-0.000115135
1.64222e-06
-4.64445e-13
-0.000115324
1.89694e-06
-3.57699e-13
-0.000115542
2.17812e-06
-2.72698e-13
-0.000115781
2.36573e-06
-2.09421e-13
-0.000116005
2.2831e-06
-1.64693e-13
-0.00011613
1.6745e-06
-1.40064e-13
-0.000115992
1.88837e-07
-1.34319e-13
-0.000115297
-2.60954e-06
-1.4206e-13
-0.000113568
-7.18573e-06
-1.52122e-13
-0.00011012
-1.38805e-05
-1.55052e-13
-2.26191e-05
-1.41406e-13
-0.000104153
-0.000112336
2.49274e-05
-1.16063e-12
-0.000114281
1.61747e-05
-1.13325e-12
-0.000115002
1.01207e-05
-1.06108e-12
-0.000115168
6.23558e-06
-9.58762e-13
-0.000115122
3.86712e-06
-8.78695e-13
-0.000115013
2.49285e-06
-8.3329e-13
-0.000114895
1.75645e-06
-7.44338e-13
-0.00011478
1.43399e-06
-6.59027e-13
-0.000114667
1.38772e-06
-5.56237e-13
-0.000114552
1.52764e-06
-4.3419e-13
-0.000114437
1.78168e-06
-3.21567e-13
-0.000114329
2.07025e-06
-2.36794e-13
-0.000114245
2.28117e-06
-1.76483e-13
-0.000114203
2.24129e-06
-1.39336e-13
-0.000114212
1.6829e-06
-1.28001e-13
-0.000114227
2.04169e-07
-1.39374e-13
-0.00011408
-2.75649e-06
-1.5803e-13
-0.000113355
-7.91101e-06
-1.61394e-13
-0.00011124
-1.59934e-05
-1.53197e-13
-2.73848e-05
-1.37957e-13
-0.000106471
-0.000109823
2.70765e-05
-1.18181e-12
-0.000109609
1.59569e-05
-1.15957e-12
-0.000108676
9.18617e-06
-1.09271e-12
-0.000107723
5.2818e-06
-9.86461e-13
-0.000106956
3.09948e-06
-9.00008e-13
-0.00010638
1.91692e-06
-8.37313e-13
-0.000105939
1.31563e-06
-7.40216e-13
-0.00010557
1.06498e-06
-6.39721e-13
-0.000105221
1.03853e-06
-5.25997e-13
-0.000104856
1.1625e-06
-3.95442e-13
-0.000104458
1.38364e-06
-2.7945e-13
-0.000104033
1.64558e-06
-1.97379e-13
-0.000103619
1.8664e-06
-1.4655e-13
-0.000103288
1.91069e-06
-1.2557e-13
-0.000103155
1.54949e-06
-1.34198e-13
-0.000103348
3.97295e-07
-1.59056e-13
-0.000103931
-2.17393e-06
-1.72848e-13
-0.000104715
-7.12599e-06
-1.64128e-13
-0.000104905
-1.57999e-05
-1.48012e-13
-2.96895e-05
-1.27339e-13
-0.000102591
-9.83678e-05
2.56376e-05
-1.22964e-12
-9.51961e-05
1.27811e-05
-1.20769e-12
-9.24367e-05
6.42592e-06
-1.13275e-12
-9.04746e-05
3.31938e-06
-1.02975e-12
-8.91705e-05
1.79549e-06
-9.17945e-13
-8.83043e-05
1.0509e-06
-8.35664e-13
-8.76908e-05
7.02284e-07
-7.42405e-13
-8.71961e-05
5.7038e-07
-6.32107e-13
-8.6728e-05
5.70528e-07
-4.99176e-13
-8.62256e-05
6.60217e-07
-3.59682e-13
-8.5655e-05
8.13061e-07
-2.46089e-13
-8.50123e-05
1.00297e-06
-1.68879e-13
-8.43359e-05
1.19e-06
-1.25816e-13
-8.37263e-05
1.30111e-06
-1.18049e-13
-8.33735e-05
1.19658e-06
-1.38361e-13
-8.35784e-05
6.02104e-07
-1.6638e-13
-8.47197e-05
-1.03254e-06
-1.71254e-13
-8.71091e-05
-4.73703e-06
-1.44298e-13
-9.04122e-05
-1.24936e-05
-1.11514e-13
-2.78935e-05
-1.04283e-13
-9.21937e-05
-7.51137e-05
1.8089e-05
-1.29429e-12
-6.88168e-05
6.48968e-06
-1.1674e-12
-6.49241e-05
2.53947e-06
-1.06923e-12
-6.26772e-05
1.07511e-06
-1.06855e-12
-6.13805e-05
5.0013e-07
-9.57365e-13
-6.0597e-05
2.68235e-07
-8.48288e-13
-6.00712e-05
1.77002e-07
-7.38219e-13
-5.96519e-05
1.51466e-07
-6.11094e-13
-5.92449e-05
1.63916e-07
-4.6541e-13
-5.87881e-05
2.03867e-07
-3.27597e-13
-5.82413e-05
2.66814e-07
-2.20059e-13
-5.75869e-05
3.49124e-07
-1.48136e-13
-5.68403e-05
4.44144e-07
-1.13974e-13
-5.60747e-05
5.36153e-07
-1.14298e-13
-5.54643e-05
5.86544e-07
-1.39386e-13
-5.53658e-05
5.03521e-07
-1.56546e-13
-5.63703e-05
-2.9687e-08
-1.5022e-13
-5.95187e-05
-1.59628e-06
-1.00994e-13
-6.58811e-05
-6.14167e-06
-7.24689e-14
-1.93446e-05
-1.03775e-13
-7.44145e-05
-3.41201e-05
-1.47499e-12
-2.76422e-05
-1.23208e-12
-2.51036e-05
-9.99239e-13
-2.40304e-05
-9.5101e-13
-2.35315e-05
-8.86694e-13
-2.32638e-05
-7.95393e-13
-2.30871e-05
-6.83223e-13
-2.29359e-05
-5.50034e-13
-2.27722e-05
-4.05586e-13
-2.25686e-05
-2.73223e-13
-2.2302e-05
-1.70705e-13
-2.19533e-05
-1.07139e-13
-2.15096e-05
-8.34626e-14
-2.09739e-05
-8.82631e-14
-2.03877e-05
-1.02767e-13
-1.9884e-05
-1.27355e-13
-1.99129e-05
-1.44019e-13
-2.15117e-05
-1.0545e-13
-2.76483e-05
-8.70698e-14
-1.50794e-13
-4.69053e-05
-1.98066e-05
1.43836e-06
-2.17569e-09
-2.08626e-05
1.05747e-06
-1.52413e-09
-2.16012e-05
7.39646e-07
-1.01093e-09
-2.20998e-05
4.99267e-07
-6.40011e-10
-2.24319e-05
3.32495e-07
-3.94369e-10
-2.26589e-05
2.27162e-07
-2.46371e-10
-2.28285e-05
1.69823e-07
-1.69504e-10
-2.29775e-05
1.49184e-07
-1.43533e-10
-2.31342e-05
1.56806e-07
-1.54717e-10
-2.33203e-05
1.86262e-07
-1.94375e-10
-2.35515e-05
2.3152e-07
-2.56391e-10
-2.38361e-05
2.84934e-07
-3.34295e-10
-2.41708e-05
3.35041e-07
-4.18266e-10
-2.45347e-05
3.64429e-07
-4.92054e-10
-2.48824e-05
3.48252e-07
-5.28713e-10
-2.51364e-05
2.54457e-07
-4.84667e-10
-2.51843e-05
4.81938e-08
-3.05348e-10
-2.48815e-05
-3.02871e-07
4.305e-11
-2.40748e-05
-8.07281e-07
6.56111e-10
-1.43944e-06
1.57938e-09
-2.2637e-05
-5.16966e-05
4.98307e-06
1.94138e-09
-5.43212e-05
3.68038e-06
1.62121e-09
-5.6178e-05
2.59518e-06
1.28322e-09
-5.74517e-05
1.772e-06
9.81579e-10
-5.83162e-05
1.19622e-06
7.35486e-10