/*--------------------------------*- C++ -*----------------------------------*\
| =========                 |                                                 |
| \\      /  F ield         | OpenFOAM: The Open Source CFD Toolbox           |
|  \\    /   O peration     | Version:  2.4.0                                 |
|   \\  /    A nd           | Web:      www.OpenFOAM.org                      |
|    \\/     M anipulation  |                                                 |
\*---------------------------------------------------------------------------*/
FoamFile
{
    version     2.0;
    format      ascii;
    class       volVectorField;
    location    "4.3";
    object      U;
}
// * * * * * * * * * * * * * * * * * * * * * * * * * * * * * * * * * * * * * //

dimensions      [0 1 -1 0 0 0 0];

internalField   nonuniform List<vector> 
4800
(
(0.000307104 -0.000310787 -3.55341e-07)
(1.86166e-05 0.000156818 0.00021726)
(-0.00184448 0.000665282 0.00044553)
(-0.00484063 0.00100904 0.000614922)
(-0.00857281 0.00120417 0.000681384)
(-0.0126988 0.00128846 0.000624463)
(-0.0169348 0.00128952 0.000437835)
(-0.021042 0.00122127 0.000121994)
(-0.02481 0.00109111 -0.000317044)
(-0.0280614 0.000911115 -0.000866361)
(-0.000182409 -2.01421e-05 -0.000217614)
(-0.00248543 0.0023949 4.8161e-06)
(-0.0080761 0.00475123 0.000174205)
(-0.0159653 0.00645086 0.000275442)
(-0.0254071 0.00748763 0.000290362)
(-0.0357207 0.00795458 0.00020299)
(-0.046264 0.00793853 6.59126e-06)
(-0.0564554 0.00749984 -0.000301242)
(-0.0657748 0.00669434 -0.000719228)
(-0.0737953 0.00561203 -0.00124085)
(-0.000779928 0.00197283 -0.000451524)
(-0.00522403 0.00810575 -0.000157576)
(-0.0143262 0.013568 1.2764e-05)
(-0.0264016 0.0175644 9.2324e-05)
(-0.040445 0.0200528 8.97372e-05)
(-0.0555827 0.0211635 -3.87606e-06)
(-0.0709433 0.0210396 -0.000192837)
(-0.0857008 0.0198048 -0.000481029)
(-0.0990948 0.0176074 -0.000871655)
(-0.110488 0.0146991 -0.00136443)
(-0.00125971 0.00539677 -0.000610426)
(-0.00751139 0.0166348 -0.000229865)
(-0.0195832 0.02593 -3.54095e-05)
(-0.0350784 0.0326383 4.63035e-05)
(-0.0527509 0.0367916 4.60662e-05)
(-0.0715916 0.0385772 -3.89653e-05)
(-0.0905728 0.0381811 -0.000211404)
(-0.108685 0.0357744 -0.000477755)
(-0.124958 0.0316015 -0.000847527)
(-0.138531 0.0261193 -0.00132919)
(-0.00158902 0.00991924 -0.000619179)
(-0.00914822 0.0273766 -0.000163387)
(-0.0234047 0.0410413 5.67806e-05)
(-0.0413926 0.0507077 0.000151129)
(-0.0616685 0.0566098 0.000166602)
(-0.0831274 0.0590285 0.000103895)
(-0.104634 0.0581778 -4.04721e-05)
(-0.125038 0.0542403 -0.000278542)
(-0.143166 0.0475206 -0.000630011)
(-0.157864 0.0386827 -0.00111902)
(-0.0017615 0.0151473 -0.000427959)
(-0.0100451 0.0395913 8.39162e-05)
(-0.0255408 0.0580044 0.00032544)
(-0.0449448 0.0707935 0.000439783)
(-0.0666906 0.0784906 0.000483549)
(-0.0896202 0.081503 0.000458256)
(-0.112541 0.0800548 0.000356284)
(-0.134209 0.0742819 0.000156148)
(-0.153264 0.0644607 -0.000177686)
(-0.168135 0.0513768 -0.000700062)
(-0.00177717 0.0206546 -1.26247e-05)
(-0.0101655 0.0524193 0.000533153)
(-0.0258649 0.0757507 0.00078844)
(-0.0454934 0.0917306 0.000927979)
(-0.0674477 0.101237 0.00101204)
(-0.0905628 0.104825 0.00104088)
(-0.113646 0.102712 0.000999733)
(-0.135433 0.094911 0.000853783)
(-0.154468 0.0815113 0.000545767)
(-0.168618 0.0631494 -4.07426e-05)
(-0.00164305 0.0260117 0.000627309)
(-0.00952526 0.0649641 0.00118485)
(-0.0243787 0.0931353 0.00144502)
(-0.0429853 0.112239 0.00161334)
(-0.0637747 0.123496 0.0017489)
(-0.0856025 0.127625 0.0018501)
(-0.107318 0.124835 0.00189361)
(-0.127734 0.114952 0.00182926)
(-0.145531 0.097671 0.0015774)
(-0.157978 0.0728672 0.000903829)
(-0.00137939 0.0308169 0.00146952)
(-0.00821364 0.0763669 0.00201944)
(-0.0212617 0.109023 0.00227537)
(-0.0376539 0.130989 0.00247362)
(-0.0558809 0.143778 0.00266869)
(-0.0747906 0.148281 0.00285846)
(-0.0932395 0.144749 0.00301183)
(-0.110132 0.132867 0.00306263)
(-0.124674 0.111882 0.00292098)
(-0.13397 0.0800671 0.0021462)
(-0.00102596 0.0347429 0.00247137)
(-0.00641741 0.0859052 0.00299979)
(-0.0169294 0.122414 0.00324254)
(-0.0301485 0.146732 0.00346762)
(-0.044602 0.160545 0.00372373)
(-0.0590157 0.164874 0.00401317)
(-0.0720349 0.160063 0.00430665)
(-0.082265 0.145793 0.00453408)
(-0.0894158 0.121178 0.00466352)
(-0.0924779 0.0835134 0.00406905)
(0.000312195 -0.000315209 -9.87754e-08)
(2.58899e-05 0.000150972 1.32515e-06)
(-0.0018407 0.000651295 2.01788e-06)
(-0.004838 0.000989284 2.59654e-06)
(-0.00857132 0.00118123 2.93888e-06)
(-0.0126983 0.00126397 3.07907e-06)
(-0.0169349 0.00126497 3.08664e-06)
(-0.021043 0.00119803 2.96412e-06)
(-0.0248122 0.00107029 2.69208e-06)
(-0.0280648 0.00089336 2.25007e-06)
(-0.000174975 -2.73417e-05 -1.15489e-06)
(-0.00248232 0.00239298 3.09065e-07)
(-0.00808361 0.00474002 -1.16644e-06)
(-0.01597 0.00643449 -1.85097e-06)
(-0.0254094 0.00746942 -2.19737e-06)
(-0.0357214 0.00793552 -2.41686e-06)
(-0.0462631 0.00791959 -2.42573e-06)
(-0.0564533 0.00748209 -2.25638e-06)
(-0.0657728 0.00667864 -1.97968e-06)
(-0.0737941 0.00559845 -1.70856e-06)
(-0.000763869 0.00196726 -1.95037e-06)
(-0.00521271 0.00811237 1.77047e-06)
(-0.0143331 0.0135712 9.13407e-08)
(-0.0264038 0.0175677 -6.44255e-08)
(-0.0404451 0.020058 9.8938e-08)
(-0.0555825 0.0211697 9.08132e-08)
(-0.0709425 0.0210463 9.79761e-08)
(-0.0856996 0.0198116 1.42647e-07)
(-0.0990946 0.0176143 1.95483e-07)
(-0.11049 0.0147048 1.19835e-07)
(-0.00123666 0.00539187 -2.83233e-06)
(-0.00749498 0.0166388 2.49559e-06)
(-0.0195923 0.0259291 -2.28001e-09)
(-0.0350803 0.0326356 -2.15409e-07)
(-0.0527498 0.0367894 6.89945e-08)
(-0.0715907 0.0385754 1.0131e-07)
(-0.0905714 0.0381797 1.31627e-07)
(-0.108683 0.0357741 2.1389e-07)
(-0.124958 0.0316033 3.69854e-07)
(-0.138535 0.0261214 3.2569e-07)
(-0.00156138 0.00991614 -3.46405e-06)
(-0.00912958 0.027379 2.93285e-06)
(-0.0234173 0.0410393 -3.2866e-07)
(-0.0413957 0.0507035 -7.18997e-07)
(-0.0616675 0.0566052 -4.3641e-07)
(-0.0831263 0.0590238 -4.1789e-07)
(-0.104632 0.0581733 -3.74374e-07)
(-0.125034 0.0542371 -2.2134e-07)
(-0.143164 0.0475219 2.31616e-07)
(-0.157872 0.0386862 4.56823e-07)
(-0.00173131 0.0151464 -3.777e-06)
(-0.0100254 0.0395927 3.24585e-06)
(-0.0255558 0.0580033 -4.33234e-07)
(-0.044949 0.070791 -9.17747e-07)
(-0.06669 0.0784875 -6.38008e-07)
(-0.0896193 0.0814994 -6.35638e-07)
(-0.112539 0.0800507 -6.22559e-07)
(-0.134201 0.0742783 -5.01863e-07)
(-0.153258 0.0644653 4.00494e-07)
(-0.16815 0.0513888 1.27484e-06)
(-0.00174666 0.0206558 -3.81229e-06)
(-0.0101461 0.0524195 3.32704e-06)
(-0.025881 0.0757506 -4.65775e-07)
(-0.0454985 0.0917298 -1.00626e-06)
(-0.0674478 0.101235 -7.69401e-07)
(-0.0905627 0.104823 -7.99242e-07)
(-0.113644 0.102709 -8.85554e-07)
(-0.13542 0.0949062 -1.0611e-06)
(-0.15445 0.081522 5.26124e-07)
(-0.168647 0.063188 3.24154e-06)
(-0.00161439 0.026015 -3.49231e-06)
(-0.00950737 0.0649635 3.19459e-06)
(-0.0243947 0.0931362 -4.27844e-07)
(-0.0429908 0.11224 -9.80382e-07)
(-0.0637755 0.123496 -8.03418e-07)
(-0.0856034 0.127624 -8.17332e-07)
(-0.107317 0.12483 -9.25677e-07)
(-0.127711 0.114937 -1.63975e-06)
(-0.145479 0.097667 1.55746e-06)
(-0.158025 0.0729286 1.12868e-05)
(-0.00135446 0.030822 -2.91284e-06)
(-0.00819831 0.0763658 2.89285e-06)
(-0.0212762 0.109025 -2.97065e-07)
(-0.0376596 0.130993 -8.21732e-07)
(-0.0558829 0.143782 -7.54454e-07)
(-0.0747951 0.148285 -8.16274e-07)
(-0.0932505 0.144746 -1.0949e-06)
(-0.110115 0.132833 -3.82753e-06)
(-0.124567 0.111806 -1.14186e-06)
(-0.134019 0.0800368 2.53386e-05)
(-0.00100602 0.034749 -2.11545e-06)
(-0.00640505 0.0859038 2.49668e-06)
(-0.0169408 0.122418 -5.41055e-08)
(-0.0301527 0.14674 -4.69947e-07)
(-0.0446033 0.160558 -4.98336e-07)
(-0.0590225 0.164897 -7.27873e-07)
(-0.0720682 0.160107 -1.54168e-06)
(-0.0823066 0.145858 -9.51708e-06)
(-0.0893259 0.121241 -2.22626e-05)
(-0.0925571 0.083633 7.64994e-06)
(0.000312221 -0.000315184 -1.27968e-07)
(2.59258e-05 0.000150994 -1.39806e-06)
(-0.00184068 0.000651307 -2.03432e-06)
(-0.004838 0.000989289 -2.59392e-06)
(-0.00857132 0.00118124 -2.93268e-06)
(-0.0126983 0.00126397 -3.07283e-06)
(-0.0169349 0.00126497 -3.08233e-06)
(-0.021043 0.00119803 -2.96295e-06)
(-0.0248122 0.00107028 -2.69218e-06)
(-0.0280648 0.00089336 -2.25173e-06)
(-0.000174954 -2.73047e-05 1.07997e-06)
(-0.00248228 0.00239302 -3.42663e-07)
(-0.00808358 0.00474005 1.15909e-06)
(-0.01597 0.0064345 1.85639e-06)
(-0.0254094 0.00746943 2.20378e-06)
(-0.0357213 0.00793552 2.42177e-06)
(-0.0462631 0.00791959 2.42892e-06)
(-0.0564533 0.00748209 2.25693e-06)
(-0.0657728 0.00667864 1.97851e-06)
(-0.0737941 0.00559845 1.70632e-06)
(-0.000763857 0.00196728 1.93367e-06)
(-0.00521268 0.0081124 -1.77629e-06)
(-0.0143331 0.0135712 -8.85051e-08)
(-0.0264038 0.0175677 7.14453e-08)
(-0.0404451 0.020058 -9.26877e-08)
(-0.0555825 0.0211697 -8.59283e-08)
(-0.0709425 0.0210463 -9.58807e-08)
(-0.0856996 0.0198116 -1.43069e-07)
(-0.0990946 0.0176143 -1.97198e-07)
(-0.11049 0.0147048 -1.22318e-07)
(-0.00123666 0.00539188 2.83512e-06)
(-0.00749496 0.0166389 -2.4889e-06)
(-0.0195923 0.0259291 1.07744e-08)
(-0.0350803 0.0326357 2.22896e-07)
(-0.0527498 0.0367894 -6.43336e-08)
(-0.0715907 0.0385754 -9.79012e-08)
(-0.0905714 0.0381797 -1.30859e-07)
(-0.108683 0.0357741 -2.14828e-07)
(-0.124958 0.0316033 -3.72014e-07)
(-0.138535 0.0261214 -3.28556e-07)
(-0.00156138 0.00991614 3.47172e-06)
(-0.00912958 0.027379 -2.92569e-06)
(-0.0234173 0.0410393 3.36097e-07)
(-0.0413957 0.0507035 7.25159e-07)
(-0.0616675 0.0566052 4.4014e-07)
(-0.0831262 0.0590238 4.19493e-07)
(-0.104632 0.0581733 3.73984e-07)
(-0.125034 0.0542371 2.19557e-07)
(-0.143164 0.0475219 -2.34366e-07)
(-0.157872 0.0386862 -4.59916e-07)
(-0.00173131 0.0151464 3.78398e-06)
(-0.0100254 0.0395927 -3.23963e-06)
(-0.0255558 0.0580034 4.39332e-07)
(-0.044949 0.0707911 9.22063e-07)
(-0.06669 0.0784875 6.412e-07)
(-0.0896193 0.0814994 6.36185e-07)
(-0.112539 0.0800507 6.21253e-07)
(-0.134201 0.0742783 4.9947e-07)
(-0.153257 0.0644653 -4.03476e-07)
(-0.16815 0.0513888 -1.2779e-06)
(-0.00174666 0.0206558 3.81675e-06)
(-0.0101461 0.0524195 -3.32389e-06)
(-0.025881 0.0757506 4.69259e-07)
(-0.0454984 0.0917299 1.00888e-06)
(-0.0674478 0.101235 7.70083e-07)
(-0.0905627 0.104823 7.98133e-07)
(-0.113644 0.102709 8.83411e-07)
(-0.13542 0.0949062 1.05832e-06)
(-0.15445 0.081522 -5.29207e-07)
(-0.168647 0.063188 -3.24458e-06)
(-0.00161439 0.0260151 3.49494e-06)
(-0.00950737 0.0649635 -3.19289e-06)
(-0.0243947 0.0931362 4.28281e-07)
(-0.0429908 0.11224 9.80159e-07)
(-0.0637755 0.123496 8.02085e-07)
(-0.0856034 0.127624 8.15199e-07)
(-0.107317 0.12483 9.23065e-07)
(-0.127711 0.114937 1.63679e-06)
(-0.145479 0.097667 -1.56056e-06)
(-0.158025 0.0729286 -1.12899e-05)
(-0.00135446 0.030822 2.91326e-06)
(-0.00819831 0.0763658 -2.89267e-06)
(-0.0212762 0.109025 2.96795e-07)
(-0.0376596 0.130993 8.205e-07)
(-0.0558829 0.143782 7.52414e-07)
(-0.0747951 0.148285 8.13802e-07)
(-0.0932505 0.144746 1.09215e-06)
(-0.110115 0.132833 3.82456e-06)
(-0.124567 0.111806 1.13877e-06)
(-0.134019 0.0800368 -2.53416e-05)
(-0.00100602 0.034749 2.11469e-06)
(-0.00640505 0.0859038 -2.49726e-06)
(-0.0169408 0.122418 5.28032e-08)
(-0.0301526 0.146741 4.68018e-07)
(-0.0446033 0.160558 4.96037e-07)
(-0.0590225 0.164897 7.25334e-07)
(-0.0720682 0.160107 1.53889e-06)
(-0.0823066 0.145858 9.51408e-06)
(-0.0893259 0.121241 2.22594e-05)
(-0.0925571 0.083633 -7.65316e-06)
(0.000307256 -0.000310636 5.93713e-07)
(1.88192e-05 0.000156897 -0.000217183)
(-0.00184441 0.000665316 -0.000445512)
(-0.00484062 0.00100906 -0.000614924)
(-0.00857281 0.00120418 -0.000681391)
(-0.0126988 0.00128846 -0.00062447)
(-0.0169347 0.00128952 -0.00043784)
(-0.021042 0.00122127 -0.000121996)
(-0.02481 0.0010911 0.000317044)
(-0.0280614 0.000911114 0.000866363)
(-0.000182329 -1.99382e-05 0.000217693)
(-0.0024853 0.00239504 -4.78059e-06)
(-0.00807601 0.00475131 -0.000174197)
(-0.0159652 0.0064509 -0.000275448)
(-0.025407 0.00748765 -0.000290369)
(-0.0357206 0.00795459 -0.000202995)
(-0.046264 0.00793853 -6.59462e-06)
(-0.0564553 0.00749985 0.000301242)
(-0.0657748 0.00669434 0.000719229)
(-0.0737953 0.00561203 0.00124085)
(-0.000779892 0.0019729 0.000451542)
(-0.00522395 0.00810585 0.000157582)
(-0.0143261 0.0135681 -1.2767e-05)
(-0.0264015 0.0175645 -9.23314e-05)
(-0.040445 0.0200528 -8.97438e-05)
(-0.0555826 0.0211635 3.8709e-06)
(-0.0709433 0.0210396 0.000192835)
(-0.0857007 0.0198048 0.000481029)
(-0.0990947 0.0176074 0.000871657)
(-0.110488 0.0146991 0.00136444)
(-0.00125969 0.00539678 0.000610423)
(-0.00751134 0.0166348 0.000229858)
(-0.0195831 0.0259301 3.54005e-05)
(-0.0350784 0.0326384 -4.63114e-05)
(-0.0527508 0.0367916 -4.60711e-05)
(-0.0715915 0.0385773 3.89617e-05)
(-0.0905728 0.0381811 0.000211403)
(-0.108685 0.0357744 0.000477756)
(-0.124958 0.0316015 0.000847529)
(-0.138531 0.0261193 0.00132919)
(-0.00158902 0.00991925 0.000619171)
(-0.0091482 0.0273767 0.000163379)
(-0.0234047 0.0410414 -5.67884e-05)
(-0.0413926 0.0507077 -0.000151136)
(-0.0616684 0.0566098 -0.000166606)
(-0.0831273 0.0590286 -0.000103897)
(-0.104634 0.0581778 4.04725e-05)
(-0.125038 0.0542403 0.000278544)
(-0.143166 0.0475207 0.000630014)
(-0.157864 0.0386827 0.00111902)
(-0.0017615 0.0151473 0.000427951)
(-0.0100451 0.0395913 -8.39228e-05)
(-0.0255408 0.0580044 -0.000325446)
(-0.0449448 0.0707936 -0.000439788)
(-0.0666906 0.0784907 -0.000483553)
(-0.0896202 0.081503 -0.000458256)
(-0.112541 0.0800549 -0.000356283)
(-0.134208 0.0742819 -0.000156146)
(-0.153264 0.0644607 0.000177689)
(-0.168135 0.0513768 0.000700065)
(-0.00177717 0.0206546 1.262e-05)
(-0.0101655 0.0524193 -0.000533156)
(-0.0258649 0.0757508 -0.000788444)
(-0.0454934 0.0917307 -0.000927982)
(-0.0674477 0.101237 -0.00101204)
(-0.0905628 0.104825 -0.00104088)
(-0.113646 0.102712 -0.000999731)
(-0.135433 0.094911 -0.00085378)
(-0.154468 0.0815113 -0.000545764)
(-0.168618 0.0631495 4.07458e-05)
(-0.00164305 0.0260117 -0.000627312)
(-0.00952526 0.0649642 -0.00118485)
(-0.0243787 0.0931353 -0.00144502)
(-0.0429852 0.112239 -0.00161334)
(-0.0637747 0.123496 -0.0017489)
(-0.0856024 0.127625 -0.0018501)
(-0.107318 0.124835 -0.00189361)
(-0.127734 0.114952 -0.00182926)
(-0.145531 0.0976711 -0.00157739)
(-0.157978 0.0728672 -0.000903826)
(-0.00137939 0.0308169 -0.00146952)
(-0.00821364 0.0763669 -0.00201944)
(-0.0212617 0.109023 -0.00227537)
(-0.0376539 0.130989 -0.00247362)
(-0.0558809 0.143778 -0.00266869)
(-0.0747906 0.148281 -0.00285846)
(-0.0932394 0.144749 -0.00301183)
(-0.110132 0.132867 -0.00306263)
(-0.124674 0.111882 -0.00292098)
(-0.13397 0.0800671 -0.0021462)
(-0.00102596 0.0347429 -0.00247137)
(-0.00641741 0.0859052 -0.00299979)
(-0.0169294 0.122414 -0.00324254)
(-0.0301485 0.146732 -0.00346762)
(-0.044602 0.160545 -0.00372373)
(-0.0590157 0.164874 -0.00401317)
(-0.0720349 0.160063 -0.00430665)
(-0.082265 0.145793 -0.00453408)
(-0.0894158 0.121178 -0.00466352)
(-0.0924779 0.0835134 -0.00406905)
(-0.0306831 0.00070682 -0.00150524)
(-0.032661 0.000512468 -0.00220819)
(-0.0340711 0.000351028 -0.00295227)
(-0.0350339 0.000230387 -0.0037202)
(-0.0356745 0.000148337 -0.00450052)
(-0.0361023 9.81889e-05 -0.00528656)
(-0.0364046 7.27691e-05 -0.00607514)
(-0.0366481 6.63486e-05 -0.00686551)
(-0.036884 7.50095e-05 -0.00765879)
(-0.0371519 9.6149e-05 -0.0084577)
(-0.037482 0.000127536 -0.00926665)
(-0.0378946 0.000166112 -0.0100919)
(-0.038395 0.000206617 -0.0109414)
(-0.0389664 0.00024016 -0.0118249)
(-0.039558 0.000253004 -0.0127527)
(-0.0400732 0.000226223 -0.0137342)
(-0.0403594 0.000137567 -0.0147746)
(-0.0402064 -3.2682e-05 -0.0158718)
(-0.0393659 -0.000296449 -0.0170095)
(-0.0375982 -0.000641787 -0.0181557)
(-0.0802577 0.00440532 -0.00185238)
(-0.0851471 0.00325949 -0.00253399)
(-0.0886618 0.00229792 -0.00326718)
(-0.0910944 0.00156524 -0.0040366)
(-0.0927426 0.00105219 -0.00483046)
(-0.0938646 0.000724163 -0.00564048)
(-0.0946656 0.000541724 -0.00646149)
(-0.0953018 0.00047092 -0.00729084)
(-0.0958903 0.000485625 -0.008128)
(-0.0965175 0.000565313 -0.00897432)
(-0.097243 0.000690459 -0.00983283)
(-0.098098 0.00083672 -0.0107082)
(-0.0990757 0.000968627 -0.0116064)
(-0.100115 0.00103365 -0.0125346)
(-0.101082 0.000958373 -0.0134999)
(-0.101742 0.000649884 -0.0145082)
(-0.101751 7.25534e-06 -0.0155617)
(-0.100657 -0.00105229 -0.0166559)
(-0.097943 -0.00255513 -0.0177769)
(-0.0931271 -0.00441771 -0.018897)
(-0.119499 0.0114938 -0.0019502)
(-0.126157 0.00848592 -0.00260875)
(-0.130836 0.00598575 -0.00332259)
(-0.134012 0.00409177 -0.00407701)
(-0.136131 0.00276681 -0.00486003)
(-0.137557 0.00191415 -0.00566279)
(-0.138563 0.0014285 -0.00647933)
(-0.139348 0.0012198 -0.00730616)
(-0.140057 0.0012177 -0.00814186)
(-0.140789 0.00136542 -0.00898678)
(-0.141613 0.00160852 -0.00984285)
(-0.142555 0.00188127 -0.0107134)
(-0.143599 0.00209237 -0.0116029)
(-0.144661 0.00211212 -0.0125168)
(-0.145566 0.00176499 -0.0134607)
(-0.146019 0.000834568 -0.0144397)
(-0.145578 -0.000908946 -0.0154568)
(-0.143659 -0.00364999 -0.01651)
(-0.139573 -0.00743164 -0.0175902)
(-0.132642 -0.0120407 -0.0186766)
(-0.14887 0.0201285 -0.00191744)
(-0.156113 0.0146264 -0.00258238)
(-0.160923 0.0101667 -0.00330344)
(-0.16402 0.00686495 -0.0040648)
(-0.16599 0.004597 -0.00485367)
(-0.167262 0.00315409 -0.00566099)
(-0.168127 0.00233193 -0.00648078)
(-0.168783 0.00196523 -0.00730945)
(-0.169359 0.00192924 -0.00814528)
(-0.169945 0.00212576 -0.00898804)
(-0.170594 0.0024629 -0.00983873)
(-0.171332 0.00283215 -0.0106995)
(-0.17214 0.00308495 -0.0115733)
(-0.172947 0.00301116 -0.0124645)
(-0.173595 0.00232477 -0.0133779)
(-0.173804 0.00066758 -0.0143192)
(-0.17313 -0.00235204 -0.0152942)
(-0.170936 -0.0070674 -0.0163071)
(-0.166393 -0.0135932 -0.0173574)
(-0.15857 -0.0216076 -0.018435)
(-0.16833 0.0290647 -0.00174677)
(-0.1749 0.0205175 -0.00245359)
(-0.178757 0.0138707 -0.00321155)
(-0.180945 0.00913747 -0.00400306)
(-0.182171 0.00599138 -0.00481466)
(-0.18287 0.00403867 -0.00563814)
(-0.183295 0.00294111 -0.00646873)
(-0.183588 0.0024469 -0.00730375)
(-0.183833 0.00237768 -0.00814191)
(-0.184078 0.00260063 -0.00898278)
(-0.184356 0.00299686 -0.0098266)
(-0.184682 0.00342914 -0.0106742)
(-0.185057 0.00370918 -0.0115271)
(-0.18545 0.00356554 -0.0123879)
(-0.185777 0.00261686 -0.0132607)
(-0.185856 0.000362169 -0.0141523)
(-0.185342 -0.00378738 -0.0150722)
(-0.183637 -0.0103982 -0.0160333)
(-0.179805 -0.0197923 -0.0170486)
(-0.172542 -0.0316722 -0.0181288)
(-0.177461 0.0370735 -0.00143099)
(-0.181952 0.0249844 -0.00222992)
(-0.183737 0.0161626 -0.00305979)
(-0.184264 0.0102403 -0.00390507)
(-0.184276 0.00649622 -0.00475429)
(-0.184119 0.00426211 -0.00560287)
(-0.183927 0.00304039 -0.00644945)
(-0.183739 0.00249713 -0.0072937)
(-0.183558 0.00241538 -0.00813554)
(-0.183376 0.00264595 -0.00897477)
(-0.183191 0.0030639 -0.00981097)
(-0.183008 0.00352883 -0.0106436)
(-0.182847 0.00384512 -0.0114722)
(-0.18274 0.00371941 -0.0122973)
(-0.18272 0.00271563 -0.0131213)
(-0.18278 0.000215043 -0.0139509)
(-0.182786 -0.00459257 -0.0147998)
(-0.182332 -0.0126218 -0.0156901)
(-0.180499 -0.0246495 -0.0166539)
(-0.175483 -0.040738 -0.0177414)
(-0.175314 0.0426554 -0.000990558)
(-0.176067 0.0266925 -0.00195054)
(-0.174716 0.0161387 -0.00288734)
(-0.173067 0.00964729 -0.00380325)
(-0.171666 0.00583286 -0.00469643)
(-0.170607 0.00368552 -0.0055716)
(-0.169818 0.00256175 -0.00643389)
(-0.169192 0.00207975 -0.00728668)
(-0.168634 0.00201677 -0.00813167)
(-0.168072 0.00223484 -0.00896906)
(-0.167464 0.00262868 -0.00979772)
(-0.166797 0.00308421 -0.0106155)
(-0.166105 0.00343807 -0.0114195)
(-0.165473 0.00342979 -0.0122073)
(-0.165056 0.0026391 -0.012978)
(-0.165066 0.000402516 -0.013736)
(-0.165701 -0.00427689 -0.014497)
(-0.16698 -0.0127484 -0.0152915)
(-0.168335 -0.026595 -0.0161739)
(-0.167515 -0.0469634 -0.017267)
(-0.15989 0.0436373 -0.000483245)
(-0.15496 0.0240396 -0.00168846)
(-0.149805 0.0130483 -0.00275441)
(-0.146043 0.00714229 -0.00374115)
(-0.143514 0.0040278 -0.00466967)
(-0.141855 0.00241911 -0.00556197)
(-0.14073 0.00163236 -0.00643267)
(-0.139885 0.00131791 -0.00728928)
(-0.139143 0.00129747 -0.00813497)
(-0.138384 0.00147467 -0.00896994)
(-0.137532 0.00178504 -0.00979205)
(-0.136555 0.00216264 -0.0105972)
(-0.135474 0.0025089 -0.0113799)
(-0.134391 0.00265191 -0.0121336)
(-0.13353 0.00228089 -0.0128525)
(-0.133286 0.000830332 -0.0135357)
(-0.134215 -0.00271093 -0.0141982)
(-0.137007 -0.0100281 -0.0148731)
(-0.142149 -0.0238247 -0.0156308)
(-0.1477 -0.0477611 -0.016707)
(-0.126761 0.0374969 -0.000200325)
(-0.114426 0.0161153 -0.00167787)
(-0.106207 0.00712706 -0.00279196)
(-0.101613 0.00331567 -0.00378633)
(-0.0989918 0.00165204 -0.00470755)
(-0.0974469 0.000916536 -0.00559035)
(-0.0964707 0.000601448 -0.00645426)
(-0.0957584 0.000496709 -0.00730688)
(-0.0951256 0.000515403 -0.00815026)
(-0.0944531 0.000620168 -0.00898323)
(-0.0936607 0.000791803 -0.00980198)
(-0.0926997 0.00101315 -0.0106002)
(-0.0915619 0.00125572 -0.0113691)
(-0.0903057 0.00145998 -0.0120971)
(-0.0891118 0.00149475 -0.012771)
(-0.0883742 0.00106522 -0.0133794)
(-0.0887802 -0.000510244 -0.0139304)
(-0.0916443 -0.00485368 -0.0144294)
(-0.0994535 -0.0155367 -0.0149205)
(-0.113298 -0.040591 -0.0157999)
(-0.0645083 0.0229742 -0.000851603)
(-0.04813 0.00662538 -0.00232187)
(-0.0414151 0.00202107 -0.0030759)
(-0.0389798 0.000649868 -0.00382443)
(-0.037922 0.000224144 -0.00458927)
(-0.0373813 9.36501e-05 -0.00536697)
(-0.0370588 5.86049e-05 -0.00615529)
(-0.0368146 5.79271e-05 -0.00694905)
(-0.0365741 7.46422e-05 -0.00774323)
(-0.0362886 0.000105394 -0.00853278)
(-0.035919 0.000150954 -0.00931149)
(-0.0354306 0.000213223 -0.0100707)
(-0.0347957 0.000293623 -0.0107982)
(-0.0340009 0.0003898 -0.0114761)
(-0.0330691 0.00048525 -0.0120791)
(-0.0321114 0.000517512 -0.0125715)
(-0.0314717 0.000261676 -0.0129055)
(-0.0321138 -0.00113979 -0.0130447)
(-0.0377337 -0.00641788 -0.0128679)
(-0.056456 -0.0257177 -0.0130077)
(-0.0306868 0.000692269 1.693e-06)
(-0.032664 0.00050118 1.18548e-06)
(-0.0340734 0.000342685 7.85777e-07)
(-0.0350354 0.000224427 4.97003e-07)
(-0.0356753 0.000144153 3.05785e-07)
(-0.0361027 9.52147e-05 1.90723e-07)
(-0.0364047 7.05253e-05 1.31102e-07)
(-0.036648 6.44482e-05 1.10921e-07)
(-0.0368838 7.31501e-05 1.19634e-07)
(-0.0371515 9.41035e-05 1.50613e-07)
(-0.0374816 0.000125154 1.99063e-07)
(-0.037894 0.000163334 2.59878e-07)
(-0.0383944 0.000203513 3.25437e-07)
(-0.0389658 0.000236982 3.83058e-07)
(-0.0395576 0.000250249 4.11715e-07)
(-0.0400732 0.000224689 3.77465e-07)
(-0.0403602 0.000138326 2.3782e-07)
(-0.0402085 -2.84354e-05 -3.35588e-08)
(-0.0393697 -0.00028745 -5.11125e-07)
(-0.0376037 -0.00062729 -1.23034e-06)
(-0.0802568 0.00439327 -1.51188e-06)
(-0.0851456 0.00324962 -1.26292e-06)
(-0.0886599 0.00229038 -9.99874e-07)
(-0.0910925 0.00155972 -7.65151e-07)
(-0.0927409 0.00104828 -5.73577e-07)
(-0.0938633 0.000721407 -4.32541e-07)
(-0.0946647 0.000539727 -3.41991e-07)
(-0.0953013 0.000469346 -2.96274e-07)
(-0.0958901 0.000484205 -2.87073e-07)
(-0.0965174 0.00056384 -3.04886e-07)
(-0.097243 0.000688777 -3.38175e-07)
(-0.0980978 0.000834738 -3.71675e-07)
(-0.0990751 0.000966337 -3.84518e-07)
(-0.100114 0.00103117 -3.49057e-07)
(-0.10108 0.00095603 -2.31268e-07)
(-0.101739 0.000648248 4.48985e-09)
(-0.101747 7.14422e-06 3.81516e-07)
(-0.100651 -0.00104988 8.91215e-07)
(-0.0979386 -0.00254912 1.50182e-06)
(-0.0931245 -0.00440804 2.07622e-06)
(-0.119501 0.0114959 -1.86956e-07)
(-0.126158 0.00848631 -3.25513e-07)
(-0.130835 0.00598571 -3.574e-07)
(-0.13401 0.00409166 -3.40286e-07)
(-0.13613 0.00276681 -2.91271e-07)
(-0.137555 0.00191432 -2.33074e-07)
(-0.138562 0.00142885 -1.80264e-07)
(-0.139347 0.00122033 -1.3848e-07)
(-0.140056 0.00121842 -1.08311e-07)
(-0.140789 0.00136632 -8.77921e-08)
(-0.141612 0.00160958 -7.34665e-08)
(-0.142555 0.0018824 -6.09124e-08)
(-0.143599 0.00209343 -4.48519e-08)
(-0.14466 0.0021129 -1.87501e-08)
(-0.145565 0.00176524 2.60919e-08)
(-0.146016 0.000834025 9.69761e-08)
(-0.145575 -0.00091055 1.89884e-07)
(-0.143657 -0.00365261 2.98713e-07)
(-0.139572 -0.00743514 4.10852e-07)
(-0.132644 -0.0120466 3.49597e-07)
(-0.148875 0.020125 -2.97496e-07)
(-0.156114 0.0146224 -4.79115e-07)
(-0.160921 0.0101641 -4.76488e-07)
(-0.164018 0.00686353 -4.24169e-07)
(-0.165988 0.00459645 -3.38127e-07)
(-0.16726 0.00315409 -2.50702e-07)
(-0.168126 0.00233222 -1.78094e-07)
(-0.168782 0.00196567 -1.23054e-07)
(-0.169358 0.00192972 -8.38165e-08)
(-0.169944 0.00212626 -5.72611e-08)
(-0.170594 0.00246335 -4.01534e-08)
(-0.171331 0.0028325 -2.9548e-08)
(-0.17214 0.00308512 -2.26505e-08)
(-0.172947 0.00301103 -1.50762e-08)
(-0.173594 0.0023243 4.18306e-09)
(-0.173802 0.00066686 4.73038e-08)
(-0.173128 -0.00235284 1.01069e-07)
(-0.170934 -0.00706739 2.0244e-07)
(-0.166393 -0.0135909 3.96515e-07)
(-0.158576 -0.0216047 3.50202e-07)
(-0.168339 0.0290558 -8.06902e-07)
(-0.1749 0.0205099 -9.05036e-07)
(-0.178754 0.0138671 -7.34538e-07)
(-0.180942 0.00913612 -5.75061e-07)
(-0.182169 0.00599134 -4.05516e-07)
(-0.182868 0.00403924 -2.67134e-07)
(-0.183294 0.00294184 -1.71149e-07)
(-0.183587 0.0024476 -1.091e-07)
(-0.183832 0.00237828 -7.16792e-08)
(-0.184078 0.00260111 -5.16759e-08)
(-0.184356 0.0029972 -4.40934e-08)
(-0.184682 0.00342932 -4.56269e-08)
(-0.185057 0.00370915 -5.38497e-08)
(-0.185449 0.00356524 -6.38861e-08)
(-0.185776 0.00261632 -5.6693e-08)
(-0.185854 0.000361634 -5.44764e-09)
(-0.185339 -0.00378743 4.86645e-08)
(-0.183631 -0.010396 1.9944e-07)
(-0.179802 -0.0197837 6.98339e-07)
(-0.172551 -0.0316593 1.00254e-06)
(-0.177477 0.0370556 -1.71974e-06)
(-0.181948 0.0249722 -1.47001e-06)
(-0.183729 0.0161589 -9.23265e-07)
(-0.184259 0.0102401 -6.18917e-07)
(-0.184273 0.00649737 -3.64779e-07)
(-0.184116 0.00426358 -1.931e-07)
(-0.183925 0.0030417 -9.62058e-08)
(-0.183738 0.00249818 -4.47444e-08)
(-0.183558 0.00241619 -1.95593e-08)
(-0.183376 0.00264657 -9.83644e-09)
(-0.183191 0.00306438 -1.02583e-08)
(-0.183008 0.00352916 -1.89714e-08)
(-0.182847 0.00384528 -3.61361e-08)
(-0.18274 0.00371932 -6.10614e-08)
(-0.182719 0.00271528 -7.59023e-08)
(-0.182778 0.000214763 -4.58356e-08)
(-0.182781 -0.00459199 -2.49381e-08)
(-0.182321 -0.0126179 1.09893e-07)
(-0.180488 -0.0246331 1.20232e-06)
(-0.175499 -0.0407103 2.54755e-06)
(-0.175346 0.0426306 -4.57081e-06)
(-0.176053 0.0266844 -3.02314e-06)
(-0.174701 0.0161423 -1.40049e-06)
(-0.173059 0.00965166 -7.30818e-07)
(-0.171662 0.00583643 -3.11316e-07)
(-0.170605 0.00368816 -9.71442e-08)
(-0.169817 0.00256357 -1.28502e-08)
(-0.169192 0.00208104 1.49098e-08)
(-0.168634 0.00201777 1.8427e-08)
(-0.168072 0.00223573 1.08675e-08)
(-0.167464 0.00262956 -3.35935e-09)
(-0.166798 0.0030851 -2.38715e-08)
(-0.166105 0.00343891 -5.17287e-08)
(-0.165473 0.00343036 -8.95133e-08)
(-0.165055 0.00263911 -1.18185e-07)
(-0.165064 0.000401968 -6.03281e-08)
(-0.165694 -0.00427841 7.24124e-08)
(-0.166959 -0.0127509 3.63385e-07)
(-0.168309 -0.0265835 2.90847e-06)
(-0.167548 -0.0469277 7.00155e-06)
(-0.15995 0.043596 -7.76158e-06)
(-0.154929 0.0240499 -3.16032e-06)
(-0.149787 0.0130702 -6.44891e-07)
(-0.146038 0.00715464 -2.45305e-07)
(-0.143512 0.00403411 3.06476e-08)
(-0.141854 0.00242253 1.27748e-07)
(-0.14073 0.00163433 1.20956e-07)
(-0.139885 0.00131927 9.94985e-08)
(-0.139143 0.00129873 8.24977e-08)
(-0.138384 0.00147609 7.06647e-08)
(-0.137532 0.00178677 6.0999e-08)
(-0.136555 0.00216475 4.87756e-08)
(-0.135475 0.00251128 2.66507e-08)
(-0.134392 0.00265414 -2.58829e-08)
(-0.133531 0.00228206 -1.02716e-07)
(-0.133286 0.000828921 -3.31594e-08)
(-0.134214 -0.00271945 9.70165e-08)
(-0.136986 -0.0100507 -3.60912e-07)
(-0.142103 -0.023838 2.56947e-06)
(-0.14776 -0.047705 1.11825e-05)
(-0.126834 0.0372998 -9.69464e-06)
(-0.114357 0.0160556 4.29503e-06)
(-0.106195 0.00711597 4.81407e-06)
(-0.101622 0.00330845 2.05883e-06)
(-0.0989972 0.00164667 1.06629e-06)
(-0.0974495 0.000913181 6.47768e-07)
(-0.096472 0.000599241 4.0802e-07)
(-0.0957589 0.000495056 3.0979e-07)
(-0.0951254 0.000513964 2.98204e-07)
(-0.0944526 0.000618708 3.35906e-07)
(-0.0936601 0.000790174 4.03263e-07)
(-0.0926993 0.00101129 4.83256e-07)
(-0.0915622 0.00125374 5.46122e-07)
(-0.0903073 0.00145822 5.15443e-07)
(-0.0891154 0.00149399 2.93607e-07)
(-0.088383 0.00106643 -6.82348e-08)
(-0.0887993 -0.000506943 -1.29468e-06)
(-0.0916407 -0.0048464 -5.98513e-06)
(-0.0993632 -0.0154722 -8.13223e-06)
(-0.11335 -0.0403344 1.20758e-05)
(-0.0645513 0.0228289 -5.39009e-05)
(-0.0479709 0.00655629 -9.19295e-06)
(-0.04137 0.0019932 -6.72826e-07)
(-0.0389755 0.000634126 -1.47761e-06)
(-0.037919 0.000214966 -9.61163e-07)
(-0.0373792 8.84748e-05 -4.5303e-07)
(-0.0370579 5.54439e-05 -2.57404e-07)
(-0.0368142 5.56169e-05 -1.8318e-07)
(-0.036574 7.25386e-05 -1.62686e-07)
(-0.0362888 0.000103108 -1.78879e-07)
(-0.0359192 0.000148246 -2.21051e-07)
(-0.035431 0.000209996 -2.78718e-07)
(-0.034796 0.000290008 -3.36966e-07)
(-0.0340009 0.000386387 -3.69526e-07)
(-0.033068 0.000483391 -2.85659e-07)
(-0.0321104 0.000519448 1.61258e-07)
(-0.0314741 0.000271025 6.00968e-07)
(-0.0320719 -0.00111614 -1.99716e-06)
(-0.0375173 -0.00634361 3.95445e-06)
(-0.0564427 -0.0255225 6.82443e-05)
(-0.0306868 0.000692269 -1.69543e-06)
(-0.032664 0.00050118 -1.18794e-06)
(-0.0340734 0.000342685 -7.88085e-07)
(-0.0350354 0.000224427 -4.99117e-07)
(-0.0356753 0.000144152 -3.07781e-07)
(-0.0361027 9.52145e-05 -1.92383e-07)
(-0.0364047 7.05252e-05 -1.32398e-07)
(-0.036648 6.4448e-05 -1.12181e-07)
(-0.0368838 7.315e-05 -1.20897e-07)
(-0.0371515 9.41034e-05 -1.51724e-07)
(-0.0374816 0.000125153 -1.99967e-07)
(-0.037894 0.000163334 -2.60603e-07)
(-0.0383944 0.000203513 -3.25965e-07)
(-0.0389658 0.000236982 -3.83403e-07)
(-0.0395576 0.000250249 -4.11932e-07)
(-0.0400732 0.000224689 -3.77609e-07)
(-0.0403602 0.000138326 -2.37925e-07)
(-0.0402085 -2.84355e-05 3.3456e-08)
(-0.0393697 -0.00028745 5.10991e-07)
(-0.0376037 -0.00062729 1.23017e-06)
(-0.0802567 0.00439327 1.50922e-06)
(-0.0851456 0.00324962 1.26023e-06)
(-0.0886599 0.00229038 9.97368e-07)
(-0.0910925 0.00155972 7.62772e-07)
(-0.0927409 0.00104828 5.71457e-07)