/*--------------------------------*- C++ -*----------------------------------*\
| =========                 |                                                 |
| \\      /  F ield         | OpenFOAM: The Open Source CFD Toolbox           |
|  \\    /   O peration     | Version:  2.4.0                                 |
|   \\  /    A nd           | Web:      www.OpenFOAM.org                      |
|    \\/     M anipulation  |                                                 |
\*---------------------------------------------------------------------------*/
FoamFile
{
    version     2.0;
    format      ascii;
    class       volScalarField;
    location    "3.8";
    object      p;
}
// * * * * * * * * * * * * * * * * * * * * * * * * * * * * * * * * * * * * * //

dimensions      [0 2 -2 0 0 0 0];

internalField   nonuniform List<scalar> 
4800
(
5.26357e-06
-0.00159309
-0.0032748
-0.00452103
-0.00500716
-0.00458179
-0.00319776
-0.000858774
0.0023904
0.00645398
0.00160318
-2.85127e-05
-0.00122346
-0.00193496
-0.00203938
-0.00142662
-4.90617e-05
0.00210983
0.00504044
0.00869622
0.00332479
0.00111688
-8.60267e-05
-0.000641937
-0.000620153
3.78182e-05
0.00136355
0.00338426
0.006122
0.00957364
0.00449054
0.00162604
0.00024861
-0.000322687
-0.00031634
0.000282052
0.00149262
0.00336112
0.00595408
0.00932846
0.00454769
0.00116219
-0.000400512
-0.00106136
-0.00116469
-0.000722229
0.000292491
0.00196417
0.00443176
0.00785987
0.00312881
-0.000567352
-0.0022823
-0.00308348
-0.0033844
-0.00320327
-0.00248473
-0.00107798
0.00127018
0.00493692
5.56697e-05
-0.00371073
-0.00552262
-0.00650017
-0.00708281
-0.00727996
-0.0069869
-0.00596058
-0.00378723
0.000342153
-0.00467546
-0.00827144
-0.010116
-0.0112947
-0.0122375
-0.0129401
-0.0132386
-0.0127862
-0.0109929
-0.00620223
-0.0108993
-0.0141122
-0.0159239
-0.0173114
-0.0186709
-0.0199928
-0.0210604
-0.0214277
-0.0204083
-0.014785
-0.0183014
-0.0209729
-0.0226878
-0.0242621
-0.026049
-0.0280691
-0.0301204
-0.0317619
-0.0327524
-0.0283635
6.85368e-06
-0.00161376
-0.00330612
-0.00456133
-0.00505282
-0.00462968
-0.0032458
-0.000904935
0.00234847
0.00641893
0.00162116
-3.29953e-05
-0.00120603
-0.00190739
-0.00200674
-0.00139079
-1.31294e-05
0.00214323
0.00506974
0.00872149
0.00335536
0.00109087
-8.71927e-05
-0.000640829
-0.000621497
3.65557e-05
0.00136215
0.00338217
0.00611912
0.00957187
0.00453488
0.00158933
0.000248816
-0.000319386
-0.00031729
0.000280606
0.00149069
0.00335796
0.0059486
0.00932364
0.00460187
0.00111898
-0.000395532
-0.00105064
-0.00115819
-0.000716028
0.000298027
0.00196743
0.00442832
0.0078531
0.00318778
-0.000615213
-0.00227581
-0.00306986
-0.00337494
-0.00319387
-0.00247554
-0.00107058
0.00126424
0.00491806
0.000114489
-0.00375987
-0.00551568
-0.00648528
-0.00707145
-0.00726817
-0.00697384
-0.00594492
-0.00379504
0.000294215
-0.004621
-0.00831859
-0.0101097
-0.0112802
-0.0122257
-0.012928
-0.0132249
-0.012762
-0.011016
-0.00636913
-0.0108539
-0.0141549
-0.0159195
-0.0172993
-0.0186598
-0.0199808
-0.0210442
-0.0213711
-0.0203915
-0.0151597
-0.0182684
-0.0210098
-0.022687
-0.0242552
-0.0260417
-0.0280583
-0.0300976
-0.0316211
-0.0324232
-0.0284765
7.18709e-06
-0.00161356
-0.00330596
-0.00456121
-0.00505273
-0.00462961
-0.00324575
-0.000904895
0.0023485
0.00641895
0.00162136
-3.28334e-05
-0.00120588
-0.00190727
-0.00200665
-0.00139072
-1.30772e-05
0.00214327
0.00506977
0.00872151
0.00335552
0.00109102
-8.70658e-05
-0.000640724
-0.000621415
3.66186e-05
0.00136219
0.00338221
0.00611915
0.00957189
0.00453499
0.00158945
0.00024892
-0.000319299
-0.000317219
0.000280661
0.00149073
0.003358
0.00594863
0.00932366
0.00460195
0.00111907
-0.000395451
-0.00105057
-0.00115813
-0.000715981
0.000298064
0.00196746
0.00442835
0.00785312
0.00318784
-0.000615145
-0.00227575
-0.0030698
-0.00337489
-0.00319383
-0.0024755
-0.00107055
0.00126427
0.00491808
0.000114546
-0.00375982
-0.00551563
-0.00648523
-0.00707141
-0.00726813
-0.0069738
-0.00594489
-0.00379501
0.000294237
-0.00462096
-0.00831855
-0.0101096
-0.0112802
-0.0122256
-0.012928
-0.0132249
-0.0127619
-0.0110159
-0.00636911
-0.0108539
-0.0141549
-0.0159195
-0.0172993
-0.0186598
-0.0199808
-0.0210442
-0.0213711
-0.0203914
-0.0151597
-0.0182684
-0.0210098
-0.022687
-0.0242552
-0.0260417
-0.0280583
-0.0300976
-0.0316211
-0.0324232
-0.0284765
8.41515e-06
-0.00159211
-0.00327429
-0.00452068
-0.00500691
-0.00458161
-0.00319763
-0.000858671
0.00239048
0.00645404
0.00160414
-2.7925e-05
-0.00122302
-0.00193462
-0.00203913
-0.00142644
-4.89234e-05
0.00210994
0.00504053
0.00869628
0.0033253
0.00111731
-8.56658e-05
-0.000641652
-0.000619934
3.79845e-05
0.00136368
0.00338436
0.00612208
0.0095737
0.00449088
0.00162636
0.000248892
-0.000322455
-0.000316154
0.000282197
0.00149273
0.00336121
0.00595415
0.00932852
0.00454792
0.00116242
-0.000400297
-0.00106117
-0.00116454
-0.000722107
0.000292588
0.00196425
0.00443183
0.00785993
0.00312897
-0.000567181
-0.00228214
-0.00308333
-0.00338428
-0.00320316
-0.00248464
-0.0010779
0.00127025
0.00493698
5.57832e-05
-0.0037106
-0.00552249
-0.00650005
-0.00708271
-0.00727988
-0.00698682
-0.00596051
-0.00378717
0.000342205
-0.00467537
-0.00827134
-0.0101159
-0.0112946
-0.0122374
-0.01294
-0.0132385
-0.0127861
-0.0109928
-0.00620218
-0.0108993
-0.0141121
-0.0159238
-0.0173114
-0.0186709
-0.0199928
-0.0210603
-0.0214276
-0.0204083
-0.014785
-0.0183013
-0.0209729
-0.0226877
-0.024262
-0.026049
-0.028069
-0.0301204
-0.0317619
-0.0327524
-0.0283635
0.0111791
0.0163784
0.0218826
0.027564
0.0333377
0.0391543
0.0449899
0.0508391
0.0567099
0.0626225
0.0686093
0.0747162
0.0810026
0.0875397
0.0944039
0.101664
0.109358
0.11747
0.12588
0.13435
0.0129805
0.0177554
0.0228912
0.0282802
0.0338396
0.0395116
0.0452601
0.0510665
0.0569272
0.0628515
0.0688609
0.0749879
0.0812749
0.0877714
0.0945276
0.101585
0.108959
0.116618
0.124465
0.132304
0.0136741
0.018285
0.0232833
0.0285658
0.0340483
0.0396689
0.0453858
0.0511745
0.057025
0.0629399
0.0689326
0.0750262
0.0812525
0.0876489
0.0942553
0.101107
0.108224
0.115595
0.123153
0.130752
0.0134442
0.0180995
0.0231486
0.0284798
0.0340036
0.0396562
0.0453959
0.0511975
0.0570489
0.0629487
0.0689038
0.0749289
0.0810459
0.0872834
0.0936763
0.100265
0.107088
0.114177
0.121526
0.129065
0.0122473
0.0171963
0.0225046
0.0280473
0.0337305
0.0394964
0.0453116
0.0511576
0.0570253
0.0629117
0.0688187
0.074752
0.0807224
0.0867479
0.0928575
0.0990982
0.105537
0.112264
0.119373
0.126932
0.0100334
0.015629
0.0214428
0.0273624
0.033309
0.0392505
0.0451774
0.0510877
0.0569809
0.0628558
0.0687095
0.0745381
0.0803389
0.0861148
0.0918832
0.0976912
0.103634
0.109867
0.116621
0.12424
0.00693405
0.0136654
0.0202345
0.0266503
0.0329052
0.0390327
0.0450692
0.0510389
0.0569539
0.0628158
0.0686167
0.0743414
0.0799705
0.0854859
0.0908821
0.09619
0.10152
0.107085
0.113281
0.120962
0.00336484
0.0118332
0.0193116
0.0262203
0.032721
0.0389671
0.0450616
0.0510576
0.0569773
0.0628221
0.0685772
0.0742142
0.0796938
0.0849711
0.0900051
0.0947906
0.0994322
0.104157
0.109485
0.117083
0.00137444
0.0118157
0.0196153
0.0265536
0.0329936
0.0391694
0.0452146
0.0511819
0.0570855
0.0629166
0.0686488
0.0742379
0.0796216
0.0847198
0.0894378
0.0936981
0.0975509
0.101015
0.104442
0.110752
0.00592417
0.017145
0.0227894
0.0283213
0.0339846
0.0397432
0.045578
0.0514522
0.0573292
0.0631719
0.0689343
0.0745529
0.0799368
0.0849552
0.0894213
0.0930726
0.0955546
0.0965731
0.0953243
0.0968729
0.0111527
0.0163599
0.0218704
0.0275563
0.033333
0.0391513
0.0449879
0.0508374
0.0567081
0.0626201
0.0686062
0.0747122
0.0809976
0.0875338
0.0943975
0.101658
0.109355
0.117471
0.125888
0.134369
0.0130029
0.0177741
0.022906
0.0282915
0.033848
0.039518
0.0452651
0.0510708
0.0569314
0.062856
0.0688659
0.0749934
0.0812806
0.0877766
0.094531
0.101585
0.108953
0.116605
0.124442
0.132273
0.0136769
0.0182898
0.0232886
0.0285708
0.0340526
0.0396724
0.0453885
0.0511766
0.0570266
0.0629412
0.0689337
0.0750271
0.0812531
0.0876492
0.0942549
0.101106
0.108221
0.11559
0.123146
0.130747
0.0134486
0.0181066
0.0231556
0.028486
0.0340085
0.0396599
0.0453985
0.0511993
0.0570501
0.0629495
0.0689043
0.0749293
0.0810463
0.0872837
0.0936762
0.100264
0.107087
0.114174
0.12152
0.12906
0.0122592
0.0172096
0.0225155
0.0280558
0.0337365
0.0395003
0.0453141
0.0511592
0.0570263
0.0629125
0.0688193
0.0747527
0.0807232
0.0867488
0.0928583
0.0990982
0.105537
0.112261
0.119362
0.126917
0.0100589
0.0156507
0.0214564
0.0273715
0.0333144
0.0392533
0.0451788
0.0510883
0.0569812
0.0628559
0.0687097
0.0745384
0.0803394
0.0861157
0.0918843
0.0976918
0.103634
0.109866
0.116603
0.124202
0.00700165
0.0137101
0.0202552
0.0266611
0.0329098
0.0390342
0.0450694
0.0510386
0.0569536
0.0628156
0.0686167
0.0743418
0.0799713
0.0854872
0.0908839
0.0961909
0.101519
0.10708
0.113238
0.120858
0.00347965
0.0118799
0.0193211
0.0262239
0.0327205
0.0389652
0.0450598
0.0510561
0.056976
0.062821
0.0685763
0.0742135
0.0796935
0.0849714
0.0900066
0.0947911
0.0994308
0.104162
0.109447
0.116918
0.00151787
0.0117522
0.0195441
0.0265231
0.0329778
0.0391598
0.0452085
0.0511773
0.057081
0.0629117
0.0686429
0.0742307
0.0796135
0.0847122
0.0894335
0.0936991
0.0975701
0.101103
0.104563
0.110573
0.00676446
0.0172882
0.0227998
0.0283443
0.0339996
0.0397502
0.045582
0.0514551
0.0573317
0.0631746
0.0689377
0.0745572
0.079942
0.084961
0.0894258
0.0930701
0.0955453
0.0966042
0.0952626
0.0958094
0.0111527
0.0163599
0.0218704
0.0275563
0.033333
0.0391513
0.0449879
0.0508374
0.0567081
0.0626202
0.0686062
0.0747122
0.0809976
0.0875338
0.0943975
0.101658
0.109355
0.117471
0.125888
0.134369
0.0130029
0.0177741
0.022906
0.0282915
0.0338481
0.039518
0.0452651
0.0510708
0.0569314
0.062856
0.0688659
0.0749934
0.0812806
0.0877766
0.094531
0.101585
0.108953
0.116605
0.124442
0.132273
0.0136769
0.0182898
0.0232886
0.0285708
0.0340526
0.0396724
0.0453885
0.0511766
0.0570266
0.0629412
0.0689337
0.0750271
0.0812531
0.0876492
0.0942549
0.101106
0.108221
0.11559
0.123146
0.130747
0.0134486
0.0181066
0.0231556
0.0284861
0.0340085
0.0396599
0.0453985
0.0511993
0.0570502
0.0629495
0.0689043
0.0749293
0.0810463
0.0872837
0.0936762
0.100264
0.107087
0.114174
0.12152
0.12906
0.0122593
0.0172096
0.0225155
0.0280558
0.0337365
0.0395003
0.0453141
0.0511592
0.0570263
0.0629125
0.0688193
0.0747527
0.0807232
0.0867488
0.0928583
0.0990982
0.105537
0.112261
0.119362
0.126917
0.0100589
0.0156507
0.0214565
0.0273715
0.0333144
0.0392533
0.0451788
0.0510883
0.0569812
0.0628559
0.0687097
0.0745384
0.0803394
0.0861157
0.0918843
0.0976918
0.103634
0.109866
0.116603
0.124202
0.00700167
0.0137101
0.0202552
0.0266611
0.0329098
0.0390342
0.0450694
0.0510386
0.0569536
0.0628156
0.0686167
0.0743418
0.0799713
0.0854872
0.0908839
0.0961909
0.101519
0.10708
0.113238
0.120858
0.00347966
0.0118799
0.0193211
0.0262239
0.0327205
0.0389652
0.0450598
0.0510561
0.056976
0.062821
0.0685763
0.0742135
0.0796935
0.0849714
0.0900066
0.0947911
0.0994308
0.104162
0.109447
0.116918
0.00151788
0.0117522
0.0195441
0.0265231
0.0329778
0.0391598
0.0452085
0.0511773
0.057081
0.0629117
0.0686429
0.0742307
0.0796135
0.0847122
0.0894335
0.0936991
0.0975701
0.101103
0.104563
0.110573
0.00676446
0.0172882
0.0227998
0.0283443
0.0339996
0.0397502
0.045582
0.0514551
0.0573317
0.0631746
0.0689377
0.0745572
0.079942
0.084961
0.0894258
0.0930701
0.0955453
0.0966042
0.0952626
0.0958094
0.0111791
0.0163784
0.0218826
0.027564
0.0333377
0.0391543
0.0449899
0.0508391
0.0567099
0.0626225
0.0686093
0.0747162
0.0810026
0.0875397
0.0944039
0.101664
0.109358
0.11747
0.12588
0.13435
0.0129806
0.0177555
0.0228913
0.0282802
0.0338396
0.0395117
0.0452601
0.0510665
0.0569272
0.0628515
0.0688609
0.0749879
0.0812749
0.0877714
0.0945276
0.101585
0.108959
0.116618
0.124465
0.132304
0.0136742
0.018285
0.0232833
0.0285658
0.0340483
0.039669
0.0453859
0.0511745
0.0570251
0.0629399
0.0689326
0.0750262
0.0812525
0.0876489
0.0942553
0.101107
0.108224
0.115595
0.123153
0.130752
0.0134442
0.0180996
0.0231486
0.0284798
0.0340036
0.0396562
0.0453959
0.0511975
0.0570489
0.0629487
0.0689038
0.0749289
0.0810459
0.0872834
0.0936763
0.100265
0.107088
0.114177
0.121526
0.129065
0.0122474
0.0171963
0.0225046
0.0280473
0.0337305
0.0394964
0.0453116
0.0511576
0.0570253
0.0629117
0.0688187
0.074752
0.0807225
0.0867479
0.0928575
0.0990982
0.105537
0.112264
0.119373
0.126932
0.0100335
0.015629
0.0214428
0.0273624
0.033309
0.0392505
0.0451774
0.0510877
0.0569809
0.0628558
0.0687095
0.0745381
0.0803389
0.0861148
0.0918832
0.0976911
0.103634
0.109867
0.116621
0.12424
0.0069341
0.0136654
0.0202345
0.0266503
0.0329052
0.0390328
0.0450692
0.0510389
0.0569539
0.0628158
0.0686167
0.0743414
0.0799705
0.0854859
0.0908821
0.09619
0.10152
0.107085
0.113281
0.120962
0.00336488
0.0118332
0.0193116
0.0262203
0.032721
0.0389671
0.0450617
0.0510576
0.0569773
0.0628221
0.0685772
0.0742142
0.0796938
0.0849711
0.0900051
0.0947906
0.0994323
0.104157
0.109485
0.117083
0.00137449
0.0118158
0.0196153
0.0265536
0.0329936
0.0391694
0.0452146
0.0511819
0.0570855
0.0629166
0.0686488
0.0742379
0.0796216
0.0847198
0.0894378
0.0936981
0.0975509
0.101015
0.104442
0.110752
0.0059242
0.0171449
0.0227894
0.0283213
0.0339846
0.0397432
0.045578
0.0514522
0.0573292
0.0631719
0.0689343
0.0745529
0.0799368
0.0849552
0.0894213
0.0930726
0.0955546
0.0965731
0.0953242
0.0968729
0.14251
0.149914
0.15614
0.160875
0.163952
0.165375
0.16532
0.164155
0.162434
0.160836
0.13984
0.146702
0.152545
0.157109
0.160256
0.161988
0.162454
0.161946
0.1608
0.159234
0.138126
0.144891
0.150701
0.155297
0.158541
0.160425
0.161076
0.160743
0.159605
0.157551
0.136552
0.143503
0.149521
0.154319
0.157739
0.159765
0.160506
0.160188
0.158894
0.156305
0.134764
0.142142
0.148577
0.153735
0.157438
0.159662
0.160513
0.160211
0.158791
0.15582
0.132743
0.140818
0.147873
0.153536
0.157618
0.160105
0.161114
0.160872
0.159408
0.156248
0.130691
0.139748
0.147571
0.153827
0.158336
0.161121
0.162328
0.162203
0.160791
0.157638
0.129048
0.139377
0.148019
0.15485
0.159742
0.162794
0.164201
0.164231
0.162959
0.159986
0.128055
0.14039
0.149805
0.157018
0.162088
0.165265
0.166801
0.166979
0.165903
0.16325
0.132439
0.146
0.154583
0.16114
0.165753
0.168697
0.170184
0.170445
0.169577
0.167336
0.142543
0.149959
0.156195
0.160934
0.164011
0.165429
0.165364
0.164186
0.162451
0.160835
0.139803
0.14666
0.152498
0.15706
0.160208
0.161945
0.162417
0.16192
0.160795
0.159213
0.138127
0.144895
0.150707
0.155304
0.158547
0.16043
0.161077
0.160741
0.159622
0.15752
0.136558
0.143515
0.149536
0.154334
0.157753
0.159775
0.160509
0.160189
0.158921
0.156264
0.134771
0.142153
0.148589
0.153746
0.157447
0.159668
0.160512
0.16021
0.158824
0.155774
0.132754
0.14083
0.147885
0.153548
0.157628
0.160111
0.161112
0.160871
0.159443
0.1562
0.130714
0.139764
0.147585
0.15384
0.158345
0.161126
0.162326
0.162201
0.160827
0.15759
0.129188
0.139433
0.148043
0.154865
0.159749
0.162798
0.164198
0.164229
0.162992
0.15994
0.128384
0.140406
0.149782
0.15701
0.162082
0.165261
0.166795
0.166976
0.165932
0.163208
0.132326
0.145626
0.154417
0.161092
0.165734
0.16869
0.17018
0.170443
0.169602
0.167301
0.142543
0.149959
0.156195
0.160934
0.164011
0.165429
0.165364
0.164186
0.162451
0.160835
0.139803
0.14666
0.152498
0.15706
0.160208
0.161945
0.162417
0.16192
0.160795
0.159213
0.138127
0.144895
0.150707
0.155304
0.158547
0.16043
0.161077
0.160741
0.159622
0.15752
0.136558
0.143515
0.149536
0.154334
0.157753
0.159775
0.160509
0.160189
0.158921
0.156264
0.134771
0.142153
0.148589
0.153746
0.157447
0.159668
0.160512
0.16021
0.158824
0.155774
0.132754
0.14083
0.147885
0.153548
0.157628
0.160111
0.161112
0.160871
0.159443
0.1562
0.130714
0.139764
0.147585
0.15384
0.158345
0.161126
0.162326
0.162201
0.160827
0.15759
0.129188
0.139433
0.148043
0.154865
0.159749
0.162798
0.164198
0.164229
0.162992
0.15994
0.128384
0.140406
0.149782
0.15701
0.162082
0.165261
0.166795
0.166976
0.165932
0.163208
0.132326
0.145626
0.154417
0.161092
0.165734
0.16869
0.17018
0.170443
0.169602
0.167301
0.14251
0.149914
0.15614
0.160875
0.163952
0.165375
0.16532
0.164155
0.162434
0.160836
0.13984
0.146702
0.152545
0.157109
0.160256
0.161988
0.162454
0.161946
0.1608
0.159234
0.138126
0.144891
0.150701
0.155297
0.158541
0.160425
0.161076
0.160743
0.159605
0.157551
0.136552
0.143503
0.149521
0.154319
0.157739
0.159765
0.160506
0.160188
0.158894
0.156305
0.134764
0.142142
0.148577
0.153735
0.157438
0.159662
0.160513
0.160211
0.158791
0.15582
0.132743
0.140818
0.147873
0.153536
0.157618
0.160105
0.161114
0.160872
0.159408
0.156248
0.130691
0.139748
0.147571
0.153827
0.158336
0.161121
0.162328
0.162203
0.160791
0.157638
0.129048
0.139377
0.148019
0.15485
0.159742
0.162794
0.164201
0.164231
0.162959
0.159986
0.128055
0.14039
0.149805
0.157018
0.162088
0.165265
0.166801
0.166979
0.165903
0.16325
0.132439
0.146
0.154583
0.16114
0.165753
0.168697
0.170184
0.170445
0.169577
0.167336
0.166678
0.162128
0.164129
0.167719
0.170846
0.173089
0.174312
0.174564
0.173886
0.172093
0.177838
0.172527
0.172569
0.174434
0.176437
0.178043
0.178983
0.179199
0.178694
0.177336
0.183417
0.180282
0.180016
0.180985
0.182245
0.183358
0.184049
0.184224
0.183868
0.182896
0.188876
0.187174
0.186896
0.187384
0.188159
0.188906
0.189396
0.189533
0.189298
0.188645
0.194463
0.193574
0.193375
0.193628
0.194103
0.194593
0.194931
0.195036
0.194895
0.194492
0.200151
0.199728
0.199618
0.199758
0.200046
0.200358
0.200581
0.200659
0.200587
0.200377
0.205943
0.205789
0.205747
0.205821
0.205983
0.206163
0.206295
0.206344
0.20632
0.206255
0.211826
0.211848
0.21184
0.21186
0.211918
0.211985
0.21203
0.212041
0.212042
0.212091
0.217829
0.217958
0.217955
0.21791
0.217859
0.217805
0.217751
0.217705
0.217708
0.217839
0.223988
0.224179
0.224145
0.224002
0.223813
0.223609
0.223426
0.223293
0.223268
0.223449
0.230371
0.230572
0.230457
0.230166
0.229788
0.229385
0.229024
0.228762
0.228668
0.228857
0.237069
0.237203
0.236939
0.23643
0.23579
0.235118
0.234517
0.234068
0.233853
0.233987
0.244199
0.244142
0.243631
0.242812
0.241821
0.240796
0.239879
0.239175
0.238769
0.238754
0.251905
0.251448
0.250555
0.249317
0.247875
0.246409
0.245096
0.244062
0.243375
0.243073
0.260367
0.259132
0.257688
0.255912
0.253925
0.251946
0.25017
0.248733
0.247663
0.246875
0.269694
0.267163
0.264913
0.262489
0.259905
0.257389
0.255129
0.253238
0.251664
0.250145
0.279946
0.275208
0.271889
0.268782
0.265652
0.262694
0.260024
0.257689
0.255499
0.252929
0.290798
0.282506
0.277909
0.274269
0.270851
0.26775
0.264923
0.262272
0.259398
0.255399
0.30224
0.288072
0.281803
0.278006
0.274889
0.272292
0.269866
0.267254
0.263736
0.257904
0.313234
0.288326
0.280374
0.277822
0.27651
0.275753
0.27481
0.272976
0.269082
0.261046
0.167518
0.162271
0.164243
0.167787
0.170871
0.173101
0.174317
0.174567
0.173909
0.172066
0.177981
0.172464
0.172616
0.174479
0.176458
0.178057
0.17899
0.179204
0.178712
0.177317
0.183427
0.180211
0.180026
0.181006
0.182259
0.183369
0.184056
0.184229
0.183882
0.182884
0.188899
0.187145
0.186899
0.187395
0.188168
0.188915
0.189402
0.189538
0.189308
0.188637
0.194477
0.19356
0.193375
0.193633
0.194108
0.194599
0.194935
0.19504
0.194901
0.194488
0.200156
0.199721
0.199617
0.199759
0.200049
0.200362
0.200585
0.200662
0.200591
0.200375
0.205945
0.205787
0.205746
0.205822
0.205985
0.206166
0.206297
0.206346
0.206321
0.206255
0.211826
0.211849
0.211839
0.21186
0.211919
0.211986
0.212031
0.212042
0.212041
0.212092
0.217827
0.217961
0.217955
0.217909
0.217859
0.217806
0.217752
0.217706
0.217705
0.217842
0.223985
0.224184
0.224145
0.224001
0.223812
0.223609
0.223426
0.223293
0.223264
0.223453
0.230366
0.230577
0.230457
0.230166
0.229787
0.229384
0.229024
0.228762
0.228663
0.228862
0.237063
0.237207
0.236938
0.236428
0.235789
0.235117
0.234517
0.234068
0.233849
0.233992
0.244193
0.244143
0.243628
0.24281
0.241819
0.240795
0.239879
0.239176
0.238767
0.238759
0.251901
0.251443
0.250551
0.249314
0.247872
0.246408
0.245096
0.244063
0.243377
0.243077
0.260366
0.259114
0.257681
0.255908
0.253922
0.251944
0.25017
0.248736
0.247672
0.246876
0.269707
0.267125
0.264906
0.262486
0.2599
0.257387
0.255129
0.253243
0.251685
0.25014
0.279997
0.275138
0.271882
0.268781
0.265647
0.262693
0.260025
0.257697
0.255538
0.252914
0.290864
0.282332
0.277885
0.274267
0.270843
0.267749
0.264925
0.262285
0.259463
0.25537
0.302355
0.287748
0.281809
0.278048
0.274904
0.272305
0.269874
0.267275
0.263835
0.257855
0.314564
0.288434
0.280669
0.278006
0.276578
0.275787
0.274826
0.273006
0.269225
0.26097
0.167518
0.162271
0.164243
0.167787
0.170871
0.173101
0.174317
0.174567
0.173909
0.172066
0.177981
0.172464
0.172616
0.174479
0.176458
0.178057
0.17899
0.179204
0.178712
0.177317
0.183427
0.180211
0.180026
0.181006
0.182259
0.183369
0.184056
0.184229
0.183882
0.182884
0.188899
0.187145
0.186899
0.187395
0.188168
0.188915
0.189402
0.189538
0.189308
0.188637
0.194477
0.19356
0.193375
0.193633
0.194108
0.194599
0.194935
0.19504
0.194901
0.194488
0.200156
0.199721
0.199617
0.199759
0.200049
0.200362
0.200585
0.200662
0.200591
0.200375
0.205945
0.205787
0.205746
0.205822
0.205985
0.206166
0.206297
0.206346
0.206321
0.206255
0.211826
0.211849
0.211839
0.21186
0.211919
0.211986
0.212031
0.212042
0.212041
0.212092
0.217827
0.217961
0.217955
0.217909
0.217859
0.217806
0.217752
0.217706
0.217705
0.217842
0.223985
0.224184
0.224145
0.224001
0.223812
0.223609
0.223426
0.223293
0.223264
0.223453
0.230366
0.230577
0.230457
0.230166
0.229787
0.229384
0.229024
0.228762
0.228663
0.228862
0.237063
0.237207
0.236938
0.236428
0.235789
0.235117
0.234517
0.234068
0.233849
0.233992
0.244193
0.244143
0.243628
0.24281
0.241819
0.240795
0.239879
0.239176
0.238767
0.238759
0.251901
0.251443
0.250551
0.249314
0.247872
0.246408
0.245096
0.244063
0.243377
0.243077
0.260366
0.259114
0.257681
0.255908
0.253922
0.251944
0.25017
0.248736
0.247672
0.246876
0.269707
0.267125
0.264906
0.262486
0.2599
0.257387
0.255129
0.253243
0.251685
0.25014
0.279997
0.275138
0.271882
0.268781
0.265647
0.262693
0.260025
0.257697
0.255538
0.252914
0.290864
0.282332
0.277885
0.274267
0.270843
0.267749
0.264925
0.262285
0.259463
0.25537
0.302355
0.287748
0.281809
0.278048
0.274904
0.272305
0.269874
0.267275
0.263835
0.257855
0.314564
0.288434
0.280669
0.278006
0.276578
0.275787
0.274826
0.273006
0.269225
0.26097
0.166678
0.162128
0.164129
0.167719
0.170846
0.173089
0.174312
0.174564
0.173886
0.172093
0.177838
0.172527
0.172569
0.174434
0.176437
0.178043
0.178983
0.179199
0.178693
0.177336
0.183417
0.180282
0.180016
0.180985
0.182245
0.183358
0.184049
0.184224
0.183868
0.182896
0.188876
0.187174
0.186896
0.187384
0.188159
0.188906
0.189396
0.189533
0.189298
0.188645
0.194463
0.193574
0.193375
0.193628
0.194103
0.194593
0.194931
0.195036
0.194895
0.194492
0.200151
0.199728
0.199618
0.199758
0.200046
0.200358
0.200581
0.200659
0.200587
0.200377
0.205943
0.205789
0.205747
0.205821
0.205983
0.206163
0.206295
0.206344
0.20632
0.206255
0.211826
0.211848
0.21184
0.21186
0.211918
0.211985
0.21203
0.212041
0.212042
0.212091
0.217829
0.217958
0.217955
0.21791
0.217859
0.217805
0.217751
0.217705
0.217708
0.217839
0.223988
0.224179
0.224145
0.224002
0.223813
0.223609
0.223426
0.223293
0.223268
0.223449
0.230371
0.230572
0.230457
0.230166
0.229788
0.229385
0.229024
0.228762
0.228668
0.228857
0.237069
0.237203
0.236939
0.23643
0.23579
0.235118
0.234517
0.234068
0.233853
0.233987
0.244199
0.244142
0.243631
0.242812
0.241821
0.240796
0.239879
0.239175
0.238769
0.238754
0.251905
0.251448
0.250555
0.249317
0.247875
0.246409
0.245096
0.244062
0.243375
0.243073
0.260367
0.259132
0.257688
0.255912
0.253925
0.251946
0.25017
0.248733
0.247663
0.246875
0.269694
0.267163
0.264913
0.262489
0.259905
0.257389
0.255129
0.253238
0.251664
0.250145
0.279946
0.275208
0.271889
0.268782
0.265652
0.262694
0.260024
0.257689
0.255499
0.252929
0.290798
0.282506
0.277909
0.274269
0.270851
0.26775
0.264923
0.262272
0.259398
0.255399
0.30224
0.288072
0.281803
0.278006
0.274889
0.272292
0.269866
0.267254
0.263736
0.257904
0.313234
0.288326
0.280374
0.277822
0.27651
0.275753
0.27481
0.272976
0.269082
0.261046
0.252785
0.261395
0.266626
0.270725
0.274287
0.277534
0.279748
0.279929
0.276289
0.265816
0.223661
0.23947
0.250694
0.260245
0.26933
0.277985
0.285065
0.288903
0.286624
0.273784
0.206184
0.221508
0.234869
0.248373
0.26284
0.277817
0.29147
0.301054
0.301924
0.287408
0.192675
0.206513
0.220712
0.237144
0.256589
0.278421
0.300276
0.318147
0.324883
0.310632
0.182849
0.195508
0.210189
0.228958
0.252967
0.281933
0.313531
0.342757
0.359479
0.349917
0.176955
0.189305
0.20482
0.225916
0.254374
0.290774
0.333716
0.378175
0.411299
0.415372
0.174806
0.187903
0.205012
0.228921
0.262175
0.306641
0.362888
0.427607
0.486841
0.521314
0.175516
0.190094
0.209364
0.236506
0.274977
0.328416
0.400486
0.491268
0.591053
0.694912
0.177456
0.193154
0.213862
0.243053
0.285143
0.34603
0.43402
0.557344
0.726182
1.00604
0.17881
0.194015
0.213536
0.240747
0.280338
0.339662
0.432709
0.587004
0.873366
1.49048
0.253125
0.260932
0.266498
0.270715
0.274285
0.277543
0.279753
0.279962
0.276484
0.265704
0.22408
0.239395
0.250629
0.26021
0.269307
0.277979
0.285057
0.288939
0.286887
0.273631
0.206439
0.221526
0.234837
0.248332
0.2628
0.27779
0.291439
0.301088
0.302264
0.287213
0.192765
0.206498
0.220659
0.237075
0.256515
0.278353
0.300201
0.318163
0.325293
0.310393
0.182875
0.195474
0.210118
0.228861
0.252852
0.281811
0.313392
0.342733
0.359912
0.349663
0.176963
0.189268
0.20474
0.225796
0.254216
0.290575
0.333473
0.378056
0.411653
0.415325
0.174821
0.187881
0.204944
0.228798
0.261978
0.306329
0.362457
0.427272
0.486819
0.521804
0.17556
0.190128
0.209385
0.236507
0.274925
0.328215
0.400108
0.490921
0.589756
0.694594
0.177524
0.193267
0.214046
0.243343
0.285574
0.34659
0.434763
0.557946
0.722951
1.00375
0.17886
0.194054
0.213555
0.24075
0.280351
0.339736
0.433066
0.587438
0.869677
1.49974
0.253125
0.260932
0.266498
0.270715
0.274285
0.277543
0.279753
0.279962
0.276484
0.265704
0.22408
0.239395
0.250629
0.26021
0.269307
0.277979
0.285057
0.288939
0.286887
0.273631
0.206439
0.221526
0.234837
0.248332
0.2628
0.27779
0.291439
0.301088
0.302264
0.287213
0.192765
0.206498
0.220659
0.237075
0.256515
0.278353
0.300201
0.318163
0.325293
0.310393
0.182875
0.195474
0.210118
0.228861
0.252852
0.281811
0.313392
0.342733
0.359912
0.349663
0.176963
0.189268
0.20474
0.225796
0.254216
0.290575
0.333473
0.378056
0.411653
0.415325
0.174821
0.187881
0.204944
0.228798
0.261978
0.306329
0.362457
0.427272
0.486819
0.521804
0.17556
0.190128
0.209385
0.236507
0.274925
0.328215
0.400108
0.490921
0.589756
0.694594
0.177524
0.193267
0.214046
0.243343
0.285574
0.34659
0.434763
0.557946
0.722951
1.00375
0.17886
0.194054
0.213555
0.24075
0.280351
0.339736
0.433066
0.587438
0.869677
1.49974
0.252785
0.261395
0.266626
0.270725
0.274287
0.277534
0.279748
0.279929
0.276289
0.265816
0.223661
0.23947
0.250694
0.260245
0.26933
0.277985
0.285065
0.288903
0.286624
0.273784
0.206184
0.221508
0.234869
0.248373
0.26284
0.277817
0.29147
0.301054
0.301924
0.287408
0.192675
0.206513
0.220712
0.237144
0.256589
0.278421
0.300276
0.318147
0.324883
0.310632
0.182849
0.195508
0.210189
0.228958
0.252967
0.281933
0.313531
0.342757
0.359479
0.349917
0.176955
0.189305
0.20482
0.225916
0.254374
0.290774
0.333716
0.378175
0.411299
0.415372
0.174806
0.187903
0.205012
0.228921
0.262175
0.306641
0.362888
0.427607
0.486841
0.521314
0.175516
0.190094
0.209364
0.236506
0.274977
0.328416
0.400486
0.491268
0.591053
0.694912
0.177456
0.193154
0.213862
0.243053
0.285143
0.34603
0.43402
0.557344
0.726182
1.00604
0.17881
0.194015
0.213536
0.240747
0.280338
0.339662
0.432709
0.587004
0.873366
1.49048
-0.153734
-0.133067
-0.115026
-0.0983862
-0.0817701
-0.0649706
-0.0479792
-0.0308312
-0.0135871
0.00368203
0.0208998
0.037994
0.0548988
0.0715652
0.0880201
0.104451
0.121342
0.139732
0.162922
0.200683
-0.139776
-0.126293
-0.111772
-0.096521
-0.0805905
-0.0641903
-0.0474555
-0.0304831
-0.0133573
0.00384704
0.0210648
0.0382376
0.0553257
0.0723324
0.0893298
0.106524
0.124312
0.143317
0.165048
0.192953
-0.136567
-0.124573
-0.110874
-0.0960159
-0.0803205
-0.0640517
-0.0473827
-0.0304354
-0.0133039
0.00393717
0.0212269
0.0385164
0.0557724
0.0729882
0.0902026
0.107532
0.12519
0.143469
0.162925
0.18446
-0.137758
-0.125456
-0.111579
-0.0965877
-0.0807889
-0.0644234
-0.0476603
-0.0306201
-0.0133908
0.00396115
0.0213825
0.0388282
0.0562578
0.0736359
0.0909354
0.108144
0.125264
0.142294
0.159293
0.176362
-0.140454
-0.127476
-0.11311
-0.0977385
-0.0816472
-0.0650519
-0.0481044
-0.0309095
-0.0135403
0.00394966
0.0215166
0.0391169
0.056698
0.0741894
0.091493
0.108479
0.124973
0.140772
0.155705
0.169731
-0.142882
-0.129289
-0.114455
-0.0987213
-0.0823543
-0.065549
-0.0484393
-0.0311138
-0.0136319
0.00396366
0.0216349
0.039336
0.0570003
0.0745243
0.0917532
0.108483
0.124427
0.1393
0.152895
0.165271
-0.143384
-0.129551
-0.114582
-0.0987704
-0.0823574
-0.0655239
-0.0483944
-0.0310515
-0.0135507
0.00406653
0.0217599
0.0394766
0.0571357
0.0746118
0.0917203
0.108214
0.123795
0.138181
0.151231
0.163164
-0.141081
-0.127605
-0.11302
-0.0975582
-0.081439
-0.0648383
-0.0478863
-0.0306755
-0.013272
0.00427132
0.0219031
0.039558
0.057143
0.0745214
0.0915019
0.107841
0.123268
0.137564
0.150694
0.163017
-0.135985
-0.123644
-0.110034
-0.0953635
-0.0798571
-0.0637153
-0.0470987
-0.03013
-0.0129017
0.00451213
0.0220447
0.0396153
0.0571215
0.0744255
0.0913429
0.10765
0.123114
0.137572
0.151058
0.164003
-0.127728
-0.117683
-0.105831
-0.0924626
-0.0778918
-0.0624059
-0.0462403
-0.0295774
-0.0125546
0.00472212
0.0221627
0.0396848
0.0571857
0.0745296
0.0915423
0.108011
0.12371
0.138464
0.152259
0.16542
-0.154116
-0.13295
-0.115011
-0.0984085
-0.0817828
-0.0649782
-0.0479845
-0.0308346
-0.0135888
0.00368166
0.0209004
0.0379948
0.0548987
0.0715623
0.0880104
0.104431
0.121319
0.139683
0.162592
0.200083
-0.139718
-0.126122
-0.111694
-0.096484
-0.080564
-0.0641718
-0.0474429
-0.0304745
-0.0133518
0.00385044
0.0210672
0.0382404
0.055331
0.0723433
0.089349
0.106556
0.124372
0.143388
0.164947
0.192695
-0.136628
-0.124548
-0.110849
-0.0959976
-0.0803057
-0.0640411
-0.0473753
-0.0304303
-0.0133003