/*--------------------------------*- C++ -*----------------------------------*\
| =========                 |                                                 |
| \\      /  F ield         | OpenFOAM: The Open Source CFD Toolbox           |
|  \\    /   O peration     | Version:  2.4.0                                 |
|   \\  /    A nd           | Web:      www.OpenFOAM.org                      |
|    \\/     M anipulation  |                                                 |
\*---------------------------------------------------------------------------*/
FoamFile
{
    version     2.0;
    format      ascii;
    class       surfaceScalarField;
    location    "3.8";
    object      phi;
}
// * * * * * * * * * * * * * * * * * * * * * * * * * * * * * * * * * * * * * //

dimensions      [0 3 -1 0 0 0 0];

internalField   nonuniform List<scalar> 
12720
(
1.54229e-07
-1.55383e-07
-1.24305e-10
-5.41102e-07
6.93631e-07
1.70105e-09
-2.0684e-06
1.52472e-06
2.57701e-09
-4.18056e-06
2.10885e-06
3.31642e-09
-6.64124e-06
2.45692e-06
3.75788e-09
-9.25564e-06
2.61047e-06
3.94082e-09
-1.18634e-05
2.60383e-06
3.95349e-09
-1.43256e-05
2.45842e-06
3.79875e-09
-1.6521e-05
2.19185e-06
3.45033e-09
1.83295e-06
2.88479e-09
-1.83568e-05
-7.25614e-07
5.71713e-07
-1.48028e-09
-3.29565e-06
3.26328e-06
3.89412e-10
-7.4992e-06
5.72978e-06
-1.51457e-09
-1.29119e-05
7.52397e-06
-2.39464e-09
-1.90851e-05
8.63298e-06
-2.83555e-09
-2.55996e-05
9.12806e-06
-3.11276e-09
-3.20754e-05
9.08268e-06
-3.12153e-09
-3.81696e-05
8.55558e-06
-2.90163e-09
-4.3587e-05
7.61177e-06
-2.54468e-09
6.35966e-06
-2.19524e-09
-4.81115e-05
-1.69326e-06
2.26749e-06
-2.51543e-09
-6.13272e-06
7.70047e-06
2.25888e-09
-1.27227e-05
1.23197e-05
1.01286e-10
-2.08675e-05
1.56688e-05
-9.63253e-11
-2.998e-05
1.77454e-05
1.16754e-10
-3.95018e-05
1.86498e-05
1.09676e-10
-4.89049e-05
1.84856e-05
1.22086e-10
-5.76954e-05
1.73459e-05
1.81712e-10
-6.54383e-05
1.53544e-05
2.50585e-10
1.27348e-05
1.54106e-10
-7.18137e-05
-2.48865e-06
4.75979e-06
-3.64882e-09
-8.51156e-06
1.37202e-05
3.189e-09
-1.70831e-05
2.08912e-05
-1.79169e-11
-2.74184e-05
2.60044e-05
-2.8675e-10
-3.88165e-05
2.91434e-05
8.25457e-11
-5.06216e-05
3.04547e-05
1.25607e-10
-6.21997e-05
3.00635e-05
1.67306e-10
-7.29347e-05
2.80807e-05
2.74486e-10
-8.22595e-05
2.46787e-05
4.75606e-10
2.02118e-05
4.19317e-10
-8.97368e-05
-3.05147e-06
7.81573e-06
-4.4584e-09
-1.02325e-05
2.08975e-05
3.75349e-09
-2.02538e-05
3.09129e-05
-4.32619e-10
-3.2172e-05
3.79235e-05
-9.31015e-10
-4.51967e-05
4.21687e-05
-5.64443e-10
-5.86044e-05
4.3863e-05
-5.38707e-10
-7.16833e-05
4.31429e-05
-4.80871e-10
-8.371e-05
4.01078e-05
-2.83216e-10
-9.39706e-05
3.4939e-05
2.99045e-10
2.80979e-05
5.88311e-10
-0.000101857
-3.3573e-06
1.11779e-05
-4.85277e-09
-1.11892e-05
2.87252e-05
4.15782e-09
-2.20326e-05
4.17569e-05
-5.64174e-10
-3.48459e-05
5.07381e-05
-1.18277e-09
-4.87851e-05
5.61087e-05
-8.21814e-10
-6.309e-05
5.81687e-05
-8.16515e-10
-7.7001e-05
5.70547e-05
-7.98215e-10
-8.97042e-05
5.28117e-05
-6.4258e-10
-0.000100317
4.55511e-05
5.1633e-10
3.57319e-05
1.63885e-09
-0.000107953
-3.39685e-06
1.45797e-05
-5.01166e-09
-1.13311e-05
3.66552e-05
4.2696e-09
-2.23054e-05
5.27318e-05
-6.02622e-10
-3.52506e-05
6.36845e-05
-1.29342e-09
-4.93091e-05
7.01682e-05
-9.87451e-10
-6.3719e-05
7.25796e-05
-1.02472e-09
-7.77128e-05
7.10496e-05
-1.13513e-09
-9.04265e-05
6.55268e-05
-1.36044e-09
-0.000100811
5.59351e-05
6.77776e-10
4.24571e-05
4.16445e-09
-0.000107541
-3.17676e-06
1.7761e-05
-4.48182e-09
-1.06642e-05
4.41385e-05
4.0964e-09
-2.10571e-05
6.31253e-05
-5.50097e-10
-3.33189e-05
7.59476e-05
-1.25758e-09
-4.66083e-05
8.34586e-05
-1.02957e-09
-6.01861e-05
8.61584e-05
-1.04742e-09
-7.33199e-05
8.41847e-05
-1.18669e-09
-8.51682e-05
7.73771e-05
-2.10346e-09
-9.46028e-05
6.53677e-05
2.0034e-09
4.75197e-05
1.44993e-08
-9.96799e-05
-2.72795e-06
2.04927e-05
-3.73952e-09
-9.27356e-06
5.06804e-05
3.71208e-09
-1.84174e-05
7.22695e-05
-3.81313e-10
-2.91904e-05
8.67217e-05
-1.05349e-09
-4.07655e-05
9.50346e-05
-9.66867e-10
-5.24094e-05
9.78034e-05
-1.04696e-09
-6.34245e-05
9.52012e-05
-1.40586e-09
-7.30445e-05
8.70021e-05
-4.91564e-09
-8.02823e-05
7.2607e-05
-1.46443e-09
4.98231e-05
3.25497e-08
-8.26182e-05
-2.11481e-06
-2.71296e-09
2.26102e-05
-7.34867e-06
3.20561e-09
5.59111e-05
-1.47198e-05
-6.81231e-11
7.96407e-05
-2.33304e-05
-6.01408e-10
9.53329e-05
-3.23232e-05
-6.38343e-10
0.000104028
-4.08681e-05
-9.34685e-10
0.000106349
-4.8143e-05
-1.98256e-09
0.000102478
-5.32278e-05
-1.22289e-08
9.20991e-05
-5.50109e-05
-2.86007e-08
7.44187e-05
9.81658e-09
-5.23187e-05
4.71211e-05
1.5598e-07
-1.56078e-07
-2.54119e-11
-5.41583e-07
6.9928e-07
-1.45144e-11
-2.06908e-06
1.53008e-06
-1.21976e-11
-4.18065e-06
2.11491e-06
-1.02897e-11
-6.64107e-06
2.46418e-06
-7.89937e-12
-9.25548e-06
2.61836e-06
-6.00866e-12
-1.18634e-05
2.61185e-06
-4.59532e-12
-1.43258e-05
2.4662e-06
-3.55621e-12
-1.65213e-05
2.19901e-06
-2.75255e-12
1.83894e-06
-2.10259e-12
-1.83574e-05
-7.30186e-07
5.72643e-07
-1.43445e-11
-3.30119e-06
3.27068e-06
-1.19942e-11
-7.50412e-06
5.73152e-06
-1.23663e-11
-1.29153e-05
7.52372e-06
-1.06887e-11
-1.90868e-05
8.63281e-06
-8.44092e-12
-2.55997e-05
9.12819e-06
-6.47733e-12
-3.20742e-05
9.08322e-06
-4.95171e-12
-3.81676e-05
8.5567e-06
-3.81631e-12
-4.35846e-05
7.6135e-06
-2.93961e-12
6.36126e-06
-2.23915e-12
-4.81091e-05
-1.69863e-06
2.26877e-06
-1.19379e-11
-6.13342e-06
7.70774e-06
-1.22211e-11
-1.27235e-05
1.23217e-05
-1.13793e-11
-2.08684e-05
1.56685e-05
-9.62298e-12
-2.99805e-05
1.7745e-05
-7.7202e-12
-3.95018e-05
1.86496e-05
-5.96125e-12
-4.89045e-05
1.8486e-05
-4.56803e-12
-5.76947e-05
1.73472e-05
-3.54112e-12
-6.54379e-05
1.53569e-05
-2.75354e-12
1.27371e-05
-2.11902e-12
-7.18136e-05
-2.49548e-06
4.76061e-06
-9.92918e-12
-8.5104e-06
1.37259e-05
-1.0422e-11
-1.70818e-05
2.08931e-05
-9.50899e-12
-2.74181e-05
2.60046e-05
-8.14202e-12
-3.88164e-05
2.91434e-05
-6.6653e-12
-5.06215e-05
3.04548e-05
-5.20847e-12
-6.21994e-05
3.00641e-05
-4.04505e-12
-7.29344e-05
2.80825e-05
-3.21446e-12
-8.22598e-05
2.46827e-05
-2.58041e-12
2.02158e-05
-2.0465e-12
-8.97381e-05
-3.06001e-06
7.81617e-06
-7.50933e-12
-1.02311e-05
2.09007e-05
-8.1536e-12
-2.02521e-05
3.09137e-05
-7.57373e-12
-3.21715e-05
3.79231e-05
-6.61763e-12
-4.51966e-05
4.21679e-05
-5.54535e-12
-5.86044e-05
4.38621e-05
-4.43047e-12
-7.16831e-05
4.31424e-05
-3.54848e-12
-8.37095e-05
4.01085e-05
-2.95198e-12
-9.39709e-05
3.49445e-05
-2.48751e-12
2.8105e-05
-2.05155e-12
-0.00010186
-3.36677e-06
1.11781e-05
-5.8505e-12
-1.11877e-05
2.87258e-05
-6.38765e-12
-2.20309e-05
4.17564e-05
-6.00042e-12
-3.48458e-05
5.07368e-05
-5.3352e-12
-4.87855e-05
5.61068e-05
-4.56312e-12
-6.30908e-05
5.81666e-05
-3.77276e-12
-7.70015e-05
5.70523e-05
-3.18297e-12
-8.97037e-05
5.28101e-05
-2.80922e-12
-0.000100317
4.55582e-05
-2.47486e-12
3.57466e-05
-2.08969e-12
-0.000107957
-3.40648e-06
1.45796e-05
-5.288e-12
-1.13296e-05
3.66531e-05
-5.09286e-12
-2.2304e-05
5.27302e-05
-4.6973e-12
-3.5251e-05
6.36825e-05
-4.24263e-12
-4.93106e-05
7.01654e-05
-3.71797e-12
-6.37213e-05
7.25762e-05
-3.22362e-12
-7.7715e-05
7.10449e-05
-2.89788e-12
-9.04265e-05
6.55202e-05
-2.68131e-12
-0.00010081
5.59424e-05
-2.38001e-12
4.24895e-05
-1.96456e-12
-0.000107549
-3.18564e-06
1.77607e-05
-3.52542e-12
-1.06628e-05
4.41344e-05
-3.77571e-12
-2.1056e-05
6.31228e-05
-3.64313e-12
-3.33201e-05
7.59453e-05
-3.33035e-12
-4.66111e-05
8.34554e-05
-3.00559e-12
-6.01901e-05
8.61542e-05
-2.76105e-12
-7.33244e-05
8.41781e-05
-2.62244e-12
-8.51683e-05
7.7362e-05
-2.44897e-12
-9.45901e-05
6.53662e-05
-2.06879e-12
4.76026e-05
-1.57841e-12
-9.96886e-05
-2.73538e-06
2.04924e-05
-2.54045e-12
-9.27224e-06
5.0675e-05
-2.85713e-12
-1.84166e-05
7.22668e-05
-2.82001e-12
-2.91923e-05
8.67199e-05
-2.61355e-12
-4.07702e-05
9.50324e-05
-2.45292e-12
-5.24178e-05
9.78008e-05
-2.3885e-12
-6.34389e-05
9.51977e-05
-2.32631e-12
-7.30643e-05
8.69825e-05
-2.10626e-12
-8.02583e-05
7.25588e-05
-1.65593e-12
4.99408e-05
-1.2212e-12
-8.2564e-05
-2.12021e-06
-1.95607e-12
2.26099e-05
-7.34706e-06
-2.20716e-12
5.59051e-05
-1.47184e-05
-2.19426e-12
7.96381e-05
-2.33313e-05
-2.07041e-12
9.53321e-05
-3.23279e-05
-2.0356e-12
0.000104028
-4.088e-05
-2.06078e-12
0.000106352
-4.81718e-05
-1.96647e-12
0.000102488
-5.33163e-05
-1.66811e-12
9.21148e-05
-5.51521e-05
-1.18723e-12
7.43661e-05
-8.97987e-13
-5.20898e-05
4.68883e-05
1.56065e-07
-1.55993e-07
-9.60029e-11
-5.41518e-07
6.99333e-07
-1.76453e-09
-2.06903e-06
1.53011e-06
-2.60619e-09
-4.18063e-06
2.11492e-06
-3.33529e-09
-6.64105e-06
2.46419e-06
-3.77078e-09
-9.25547e-06
2.61836e-06
-3.95006e-09
-1.18634e-05
2.61186e-06
-3.96031e-09
-1.43258e-05
2.4662e-06
-3.80397e-09
-1.65213e-05
2.19901e-06
-3.4544e-09
1.83894e-06
-2.88796e-09
-1.83574e-05
-7.30132e-07
5.72709e-07
1.4171e-09
-3.30113e-06
3.27074e-06
-4.26405e-10
-7.50407e-06
5.73156e-06
1.48877e-09
-1.29153e-05
7.52374e-06
2.37591e-09
-1.90867e-05
8.63282e-06
2.82201e-09
-2.55997e-05
9.12819e-06
3.10277e-09
-3.20742e-05
9.08323e-06
3.11406e-09
-3.81676e-05
8.5567e-06
2.89589e-09
-4.35846e-05
7.6135e-06
2.54022e-09
6.36126e-06
2.19179e-09
-4.81091e-05
-1.6986e-06
2.26882e-06
2.48648e-09
-6.13338e-06
7.70779e-06
-2.28407e-09
-1.27235e-05
1.23218e-05
-1.21621e-10
-2.08684e-05
1.56686e-05
8.06277e-11
-2.99805e-05
1.77451e-05
-1.28654e-10
-3.95018e-05
1.86496e-05
-1.1866e-10
-4.89044e-05
1.8486e-05
-1.2882e-10
-5.76947e-05
1.73472e-05
-1.86865e-10
-6.54379e-05
1.53569e-05
-2.54586e-10
1.27371e-05
-1.57203e-10
-7.18136e-05
-2.49547e-06
4.76064e-06
3.63042e-09
-8.51038e-06
1.37259e-05
-3.20688e-09
-1.70818e-05
2.08931e-05
2.44844e-12
-2.74181e-05
2.60046e-05
2.74136e-10
-3.88164e-05
2.91434e-05
-9.25752e-11
-5.06214e-05
3.04549e-05
-1.33409e-10
-6.21994e-05
3.00641e-05
-1.73264e-10
-7.29344e-05
2.80825e-05
-2.7915e-10
-8.22598e-05
2.46827e-05
-4.79333e-10
2.02158e-05
-4.22289e-10
-8.9738e-05
-3.06e-06
7.81619e-06
4.44623e-09
-1.02311e-05
2.09007e-05
-3.76614e-09
-2.02521e-05
3.09138e-05
4.20936e-10
-3.21715e-05
3.79231e-05
9.21089e-10
-4.51966e-05
4.21679e-05
5.56272e-10
-5.86044e-05
4.38621e-05
5.32169e-10
-7.16831e-05
4.31424e-05
4.7572e-10
-8.37095e-05
4.01085e-05
2.79005e-10
-9.39709e-05
3.49445e-05
-3.02571e-10
2.8105e-05
-5.91237e-10
-0.00010186
-3.36677e-06
1.11781e-05
4.84463e-09
-1.11877e-05
2.87258e-05
-4.16679e-09
-2.20309e-05
4.17564e-05
5.55348e-10
-3.48458e-05
5.07368e-05
1.17501e-09
-4.87855e-05
5.61069e-05
8.15216e-10
-6.30908e-05
5.81666e-05
8.11035e-10
-7.70015e-05
5.70523e-05
7.93667e-10
-8.97037e-05
5.28101e-05
6.38648e-10
-0.000100317
4.55582e-05
-5.1975e-10
3.57466e-05
-1.64176e-09
-0.000107957
-3.40648e-06
1.45796e-05
5.00002e-09
-1.13296e-05
3.66532e-05
-4.27595e-09
-2.2304e-05
5.27302e-05
5.95873e-10
-3.5251e-05
6.36825e-05
1.28729e-09
-4.93106e-05
7.01655e-05
9.82051e-10
-6.37212e-05
7.25762e-05
1.02002e-09
-7.7715e-05
7.10449e-05
1.13098e-09
-9.04265e-05
6.55202e-05
1.35672e-09
-0.00010081
5.59424e-05
-6.80983e-10
4.24895e-05
-4.16716e-09
-0.000107549
-3.18564e-06
1.77607e-05
4.47764e-09
-1.06628e-05
4.41344e-05
-4.10114e-09
-2.1056e-05
6.31228e-05
5.44939e-10
-3.33201e-05
7.59453e-05
1.25278e-09
-4.66111e-05
8.34554e-05
1.02519e-09
-6.01901e-05
8.61542e-05
1.04339e-09
-7.33244e-05
8.41781e-05
1.18297e-09
-8.51683e-05
7.7362e-05
2.10018e-09
-9.45901e-05
6.53662e-05
-2.006e-09
4.76026e-05
-1.45015e-08
-9.96886e-05
-2.73538e-06
2.04924e-05
3.73626e-09
-9.27224e-06
5.0675e-05
-3.71564e-09
-1.84166e-05
7.22668e-05
3.77376e-10
-2.91923e-05
8.67199e-05
1.04974e-09
-4.07702e-05
9.50324e-05
9.63298e-10
-5.24178e-05
9.78008e-05
1.04352e-09
-6.34389e-05
9.51977e-05
1.40266e-09
-7.30643e-05
8.69825e-05
4.91309e-09
-8.02583e-05
7.25588e-05
1.46275e-09
4.99408e-05
-3.25516e-08
-8.2564e-05
-2.12021e-06
2.71047e-09
2.26099e-05
-7.34706e-06
-3.2084e-09
5.59051e-05
-1.47184e-05
6.50688e-11
7.96381e-05
-2.33312e-05
5.98439e-10
9.53321e-05
-3.23279e-05
6.3539e-10
0.000104028
-4.088e-05
9.31771e-10
0.000106352
-4.81718e-05
1.97998e-09
0.000102488
-5.33163e-05
1.22272e-08
9.21148e-05
-5.51521e-05
2.86004e-08
7.43661e-05
-9.81734e-09
-5.20898e-05
4.68883e-05
1.54758e-07
-1.54853e-07
-5.40854e-07
6.93847e-07
-2.06826e-06
1.5248e-06
-4.18049e-06
2.10889e-06
-6.64119e-06
2.45693e-06
-9.25561e-06
2.61047e-06
-1.18634e-05
2.60384e-06
-1.43256e-05
2.45842e-06
-1.65209e-05
2.19186e-06
1.83295e-06
-1.83568e-05
-7.25399e-07
5.71963e-07
-3.29545e-06
3.26347e-06
-7.49905e-06
5.72989e-06
-1.29118e-05
7.52403e-06
-1.90851e-05
8.63301e-06
-2.55996e-05
9.12808e-06
-3.20753e-05
9.08269e-06
-3.81696e-05
8.55558e-06
-4.3587e-05
7.61177e-06
6.35967e-06
-4.81115e-05
-1.69318e-06
2.26762e-06
-6.1326e-06
7.70062e-06
-1.27226e-05
1.23198e-05
-2.08674e-05
1.56688e-05
-2.998e-05
1.77455e-05
-3.95018e-05
1.86498e-05
-4.89049e-05
1.84856e-05
-5.76954e-05
1.73459e-05
-6.54383e-05
1.53544e-05
1.27349e-05
-7.18136e-05
-2.48862e-06
4.75987e-06
-8.5115e-06
1.37203e-05
-1.7083e-05
2.08913e-05
-2.74183e-05
2.60045e-05
-3.88164e-05
2.91435e-05
-5.06215e-05
3.04548e-05
-6.21996e-05
3.00635e-05
-7.29347e-05
2.80807e-05
-8.22594e-05
2.46787e-05
2.02118e-05
-8.97368e-05
-3.05146e-06
7.81578e-06
-1.02325e-05
2.08975e-05
-2.02537e-05
3.0913e-05
-3.21719e-05
3.79236e-05
-4.51966e-05
4.21687e-05
-5.86043e-05
4.3863e-05
-7.16833e-05
4.3143e-05
-8.371e-05
4.01078e-05
-9.39706e-05
3.4939e-05
2.80979e-05
-0.000101857
-3.3573e-06
1.11779e-05
-1.11892e-05
2.87253e-05
-2.20326e-05
4.17569e-05
-3.48459e-05
5.07381e-05
-4.87851e-05
5.61087e-05
-6.309e-05
5.81687e-05
-7.70009e-05
5.70547e-05
-8.97042e-05
5.28117e-05
-0.000100317
4.55511e-05
3.57319e-05
-0.000107953
-3.39685e-06
1.45798e-05
-1.1331e-05
3.66552e-05
-2.23054e-05
5.27319e-05
-3.52506e-05
6.36845e-05
-4.93091e-05
7.01682e-05
-6.3719e-05
7.25796e-05
-7.77128e-05
7.10496e-05
-9.04265e-05
6.55268e-05
-0.000100811
5.59351e-05
4.24571e-05
-0.000107541
-3.17676e-06
1.7761e-05
-1.06642e-05
4.41385e-05
-2.10571e-05
6.31253e-05
-3.33189e-05
7.59476e-05
-4.66083e-05
8.34587e-05
-6.01861e-05
8.61584e-05
-7.33199e-05
8.41847e-05
-8.51682e-05
7.73771e-05
-9.46028e-05
6.53677e-05
4.75197e-05
-9.96799e-05
-2.72795e-06
2.04927e-05
-9.27355e-06
5.06804e-05
-1.84174e-05
7.22695e-05
-2.91904e-05
8.67217e-05
-4.07655e-05
9.50346e-05
-5.24093e-05
9.78034e-05
-6.34245e-05
9.52012e-05
-7.30445e-05
8.70021e-05
-8.02823e-05
7.2607e-05
4.98231e-05
-8.26182e-05
-2.11481e-06
2.26102e-05
-7.34867e-06
5.59111e-05
-1.47198e-05
7.96407e-05
-2.33304e-05
9.53329e-05
-3.23232e-05
0.000104028
-4.08681e-05
0.000106349
-4.8143e-05
0.000102478
-5.32278e-05
9.20991e-05
-5.50109e-05
7.44187e-05
-5.23187e-05
4.71211e-05
-1.97915e-05
1.43255e-06
2.17121e-09
-2.08464e-05
1.05333e-06
1.52051e-09
-2.15842e-05
7.36804e-07
1.00801e-09
-2.20822e-05
4.97362e-07
6.37627e-10
-2.24138e-05
3.31206e-07
3.92466e-10
-2.26402e-05
2.26232e-07
2.44843e-10
-2.28095e-05
1.69054e-07
1.68163e-10
-2.2958e-05
1.48427e-07
1.42244e-10
-2.31141e-05
1.55944e-07
1.5342e-10
-2.32995e-05
1.85205e-07
1.93025e-10
-2.353e-05
2.302e-07
2.54957e-10
-2.38136e-05
2.83319e-07
3.32777e-10
-2.41472e-05
3.33148e-07
4.16678e-10
-2.451e-05
3.62347e-07
4.90402e-10
-2.48567e-05
3.46161e-07
5.27032e-10
-2.51098e-05
2.52641e-07
4.83084e-10
-2.51574e-05
4.72904e-08
3.04048e-10
-2.48547e-05
-3.02738e-07
-4.36528e-11
-2.40488e-05
-8.05245e-07
-6.55685e-10
-1.43471e-06
-1.57747e-09
-2.26125e-05
-5.16545e-05
4.97749e-06
-1.94181e-09
-5.4276e-05
3.67646e-06
-1.62157e-09
-5.61302e-05
2.59228e-06
-1.2835e-09
-5.74016e-05
1.76978e-06
-9.81802e-10
-5.82641e-05
1.19443e-06
-7.35641e-10
-5.88624e-05
8.25062e-07
-5.54606e-10
-5.93092e-05
6.16329e-07
-4.38311e-10
-5.96898e-05
5.29385e-07
-3.79386e-10
-6.00675e-05
5.3401e-07
-3.6745e-10
-6.04879e-05
6.05984e-07
-3.90289e-10
-6.09794e-05
7.22101e-07
-4.33043e-10
-6.15496e-05
8.54046e-07
-4.76061e-10
-6.21779e-05
9.61915e-07
-4.92554e-10
-6.28034e-05
9.8831e-07
-4.47032e-10
-6.33118e-05
8.54807e-07
-2.95809e-10
-6.35232e-05
4.64026e-07
6.87905e-12
-6.31884e-05
-2.8795e-07
4.91008e-10
-6.20066e-05
-1.48565e-06
1.14533e-09
-5.96644e-05
-3.14942e-06
1.92928e-09
-5.1848e-06
2.66673e-09
-5.5917e-05
-7.67039e-05
9.86794e-06
-2.39607e-10
-8.0241e-05
7.21397e-06
-4.17331e-10
-8.26908e-05
5.04252e-06
-4.58158e-10
-8.43414e-05
3.42091e-06
-4.36142e-10
-8.54458e-05
2.2992e-06
-3.73294e-10
-8.62028e-05
1.58231e-06
-2.98669e-10
-8.676e-05
1.17381e-06
-2.30843e-10
-8.72245e-05
9.94065e-07
-1.77017e-10
-8.76726e-05
9.82215e-07
-1.38243e-10
-8.81564e-05
1.0899e-06
-1.11967e-10
-8.87056e-05
1.27143e-06
-9.37034e-11
-8.93239e-05
1.47236e-06
-7.77249e-11
-8.99796e-05
1.61771e-06
-5.72156e-11
-9.05924e-05
1.60114e-06
-2.37668e-11
-9.10158e-05
1.27816e-06
3.38175e-11
-9.10207e-05
4.68826e-07
1.24918e-10
-9.02875e-05
-1.0214e-06
2.44336e-10
-8.84191e-05
-3.35448e-06
3.8422e-10
-8.49897e-05
-6.57929e-06
5.2834e-10
-1.05259e-05
4.49764e-10
-7.9649e-05
-9.52209e-05
1.53524e-05
-3.81071e-10
-9.89803e-05
1.0974e-05
-6.14262e-10
-0.000101446
7.50925e-06
-6.10843e-10
-0.000103026
5.00084e-06
-5.43644e-10
-0.000104036
3.30944e-06
-4.33321e-10
-0.000104701
2.24784e-06
-3.21209e-10
-0.000105174
1.64711e-06
-2.28021e-10
-0.000105557
1.3772e-06
-1.57199e-10
-0.000105918
1.34354e-06
-1.06764e-10
-0.000106302
1.47401e-06
-7.27554e-11
-0.000106733
1.70283e-06
-5.09678e-11
-0.000107214
1.95335e-06
-3.75444e-11
-0.000107717
2.12042e-06
-2.88404e-11
-0.00010817
2.05362e-06
-1.91757e-11
-0.000108436
1.54433e-06
5.65296e-12
-0.000108291
3.23596e-07
6.12713e-11
-0.000107398
-1.91448e-06
1.30442e-10
-0.0001053
-5.45244e-06
2.60783e-10
-0.000101453
-1.04263e-05
5.10098e-10
-1.66375e-05
4.50591e-10
-9.53423e-05
-0.00010716
2.06565e-05
-1.03534e-09
-0.000110409
1.4224e-05
-1.16122e-09
-0.000112294
9.3947e-06
-9.42035e-10
-0.000113356
6.06436e-06
-7.37219e-10
-0.000113955
3.90868e-06
-5.19715e-10
-0.000114305
2.59753e-06
-3.4214e-10
-0.000114528
1.8704e-06
-2.18958e-10
-0.000114695
1.54436e-06
-1.39165e-10
-0.000114847
1.49583e-06
-9.10797e-11
-0.000115009
1.63665e-06
-6.55036e-11
-0.000115197
1.89067e-06
-5.59768e-11
-0.000115415
2.17126e-06
-5.81719e-11
-0.000115653
2.35863e-06
-6.88894e-11
-0.000115876
2.27645e-06
-8.18156e-11
-0.000116001
1.66927e-06
-7.23986e-11
-0.000115863
1.85835e-07
-6.14529e-12
-0.00011517
-2.60792e-06
6.32458e-11
-0.000113443
-7.17917e-06
2.56912e-10
-0.00011
-1.38708e-05
8.97525e-10
-2.26018e-05
1.28782e-09
-0.000104037
-0.000112216
2.49218e-05
-2.20859e-09
-0.000114162
1.61721e-05
-1.88701e-09
-0.000114881
1.01152e-05
-1.18438e-09
-0.000115046
6.23006e-06
-7.93549e-10
-0.000114999
3.86201e-06
-4.67365e-10
-0.000114889
2.48816e-06
-2.46914e-10
-0.000114771
1.75204e-06
-1.2261e-10
-0.000114656
1.42959e-06
-5.6501e-11
-0.000114543
1.38302e-06
-2.41439e-11
-0.000114429
1.52241e-06
-1.17903e-11
-0.000114314
1.7758e-06
-1.25818e-11
-0.000114207
2.06379e-06
-2.40206e-11
-0.000114122
2.27446e-06
-4.62224e-11
-0.000114081
2.23503e-06
-7.827e-11
-0.00011409
1.67815e-06
-9.72465e-11
-0.000114105
2.01702e-07
-5.84693e-11
-0.00011396
-2.75344e-06
-3.16612e-11
-0.000113237
-7.90217e-06
1.4154e-10
-0.000111124
-1.5985e-05
1.5443e-09
-2.73744e-05
3.27106e-09
-0.000106355
-0.00010971
2.70971e-05
-5.87258e-09
-0.0001095
1.59656e-05
-3.88225e-09
-0.000108565
9.18206e-06
-1.79732e-09
-0.00010761
5.27637e-06
-9.37284e-10
-0.000106842
3.09458e-06
-3.98695e-10
-0.000106267
1.9127e-06
-1.23655e-10
-0.000105827
1.31195e-06
-1.55226e-11
-0.000105459
1.06151e-06
2.01199e-11
-0.000105111
1.03494e-06
2.46478e-11
-0.000104747
1.15854e-06
1.48032e-11
-0.00010435
1.37917e-06
-3.72146e-12
-0.000103927
1.64064e-06
-3.0293e-11
-0.000103514
1.86123e-06
-6.61855e-11
-0.000103184
1.9059e-06
-1.1474e-10
-0.000103052
1.54603e-06
-1.51686e-10
-0.000103246
3.95983e-07
-7.77864e-11
-0.00010383
-2.17007e-06
9.28208e-11
-0.000104616
-7.11633e-06
4.66599e-10
-0.000104805
-1.57997e-05
3.73504e-09
-2.97098e-05
8.99031e-09
-0.000102479
-9.82768e-05
2.5704e-05
-9.97366e-09
-9.51049e-05
1.27978e-05
-4.05832e-09
-9.23419e-05
6.41991e-06
-8.26647e-10
-9.03793e-05
3.31405e-06
-3.13753e-10
-8.90766e-05
1.79179e-06
4.043e-11
-8.82121e-05
1.04811e-06
1.65047e-10
-8.76004e-05
7.0007e-07
1.56224e-10
-8.71074e-05
5.6841e-07
1.28669e-10
-8.66411e-05
5.68524e-07
1.06814e-10
-8.61407e-05
6.57986e-07
9.1444e-11
-8.55721e-05
8.10488e-07
7.87778e-11
-8.49315e-05
1.00003e-06
6.28818e-11
-8.42571e-05
1.1868e-06
3.43719e-11
-8.36492e-05
1.29801e-06
-3.31719e-11
-8.32973e-05
1.19427e-06
-1.321e-10
-8.35026e-05
6.01338e-07
-4.32223e-11
-8.46417e-05
-1.03116e-06
1.23846e-10
-8.70294e-05
-4.72808e-06
-4.64109e-10
-9.0333e-05
-1.24995e-05
3.30026e-09
-2.79646e-05
1.43608e-08
-9.20925e-05
-7.50546e-05
1.81529e-05
-1.24601e-08
-6.87383e-05
6.47589e-06
5.51951e-09
-6.4849e-05
2.5245e-06
6.1852e-09
-6.26075e-05
1.06988e-06
2.64516e-09
-6.13156e-05
4.98458e-07
1.37008e-09
-6.05356e-05
2.67328e-07
8.32372e-10
-6.00123e-05
1.7626e-07
5.24325e-10
-5.9595e-05
1.50698e-07
3.98116e-10
-5.91899e-05
1.62991e-07
3.83096e-10
-5.8735e-05
2.02673e-07
4.31215e-10
-5.81903e-05
2.65237e-07
5.17361e-10
-5.75379e-05
3.47052e-07
6.19794e-10
-5.67933e-05
4.41471e-07
7.00316e-10
-5.60287e-05
5.32778e-07
6.60682e-10
-5.54174e-05
5.82589e-07
3.75407e-10
-5.53178e-05
5.01844e-07
-8.96733e-11
-5.63135e-05
-3.37998e-08
-1.66468e-09
-5.94476e-05
-1.58628e-06
-7.68743e-09
-6.58132e-05
-6.12341e-06
-1.04408e-08
-1.93891e-05
1.55144e-08
-7.44042e-05
-3.40967e-05
-6.915e-08
-2.7609e-05
-1.17847e-08
-2.50836e-05
-8.5926e-10
-2.40118e-05
-1.89307e-09
-2.35121e-05
-1.23085e-09
-2.32442e-05
-5.794e-10
-2.30676e-05
-3.28707e-10
-2.29167e-05
-2.33604e-10
-2.27535e-05
-2.07427e-10
-2.25506e-05
-2.28335e-10
-2.22851e-05
-2.8251e-10
-2.19377e-05
-3.56446e-10
-2.14958e-05
-4.31072e-10
-2.09625e-05
-4.72824e-10
-2.03796e-05
-3.65384e-10
-1.98779e-05
2.07513e-10
-1.99125e-05
7.70971e-10
-2.14962e-05
-2.55978e-09
-2.76247e-05
5.07727e-09
8.75236e-08
-4.71014e-05
-1.97921e-05
1.43687e-06
-1.58506e-12
-2.08468e-05
1.05626e-06
-1.20469e-12
-2.15845e-05
7.38695e-07
-9.42131e-13
-2.20824e-05
4.98523e-07
-7.53297e-13
-2.24139e-05
3.31902e-07
-5.9814e-13
-2.26403e-05
2.26665e-07
-4.59015e-13
-2.28095e-05
1.69368e-07
-3.36721e-13
-2.29581e-05
1.48719e-07
-2.38726e-13
-2.31142e-05
1.56284e-07
-1.55583e-13
-2.32997e-05
1.85641e-07
-8.57665e-14
-2.35302e-05
2.30767e-07
-2.77337e-14
-2.38139e-05
2.84036e-07
1.51546e-14
-2.41475e-05
3.34008e-07
2.78882e-14
-2.45103e-05
3.63305e-07
1.40672e-14
-2.48569e-05
3.47126e-07
-7.16769e-15
-2.51099e-05
2.53472e-07
-2.05859e-14
-2.51571e-05
4.75407e-08
-1.42494e-14
-2.48542e-05
-3.02952e-07
6.06703e-15
-2.40483e-05
-8.06556e-07
3.25796e-14
-1.43773e-06
5.48645e-14
-2.26122e-05
-5.1652e-05
4.97776e-06
-1.69216e-12
-5.42734e-05
3.67612e-06
-1.29399e-12
-5.61279e-05
2.59183e-06
-1.01829e-12
-5.73997e-05
1.76938e-06
-8.19864e-13
-5.82627e-05
1.19414e-06
-6.56028e-13
-5.88614e-05
8.24866e-07
-4.99489e-13
-5.93087e-05
6.16206e-07
-3.47698e-13
-5.96897e-05
5.29299e-07
-2.29289e-13
-6.00677e-05
5.33922e-07
-1.31134e-13
-6.04883e-05
6.05857e-07
-5.58093e-14
-6.09798e-05
7.21895e-07
-3.53976e-15
-6.155e-05
8.53724e-07
2.31108e-14
-6.21779e-05
9.61453e-07
2.42709e-14
-6.28028e-05
9.87718e-07
6.96851e-15
-6.33101e-05
8.54165e-07
-1.21383e-14
-6.35201e-05
4.63509e-07
-1.69817e-14
-6.3184e-05
-2.88099e-07
-4.39239e-15
-6.20009e-05
-1.48487e-06
1.67763e-14
-5.96582e-05
-3.14742e-06
4.16998e-14
-5.18224e-06
5.77322e-14
-5.5911e-05
-7.67031e-05
9.86704e-06
-1.61471e-12
-8.02395e-05
7.21211e-06
-1.23915e-12
-8.2689e-05
5.04087e-06
-9.76255e-13
-8.43397e-05
3.41968e-06
-7.91007e-13
-8.54444e-05
2.2984e-06
-6.45451e-13
-8.62016e-05
1.58185e-06
-5.02572e-13
-8.67592e-05
1.17357e-06
-3.40599e-13
-8.7224e-05
9.9394e-07
-2.19963e-13
-8.76724e-05
9.82112e-07
-1.37779e-13
-8.81564e-05
1.08974e-06
-8.45882e-14
-8.87057e-05
1.27114e-06
-5.17514e-14
-8.93239e-05
1.47188e-06
-2.88215e-14
-8.99795e-05
1.61698e-06
-1.40685e-14
-9.0592e-05
1.60015e-06
-5.0936e-15
-9.10148e-05
1.27701e-06
8.55359e-15
-9.10189e-05
4.67791e-07
3.41361e-14
-9.02849e-05
-1.0219e-06
6.86365e-14
-8.84158e-05
-3.35362e-06
9.78856e-14
-8.49865e-05
-6.57617e-06
1.07788e-13
-1.05218e-05
9.08238e-14
-7.96465e-05
-9.52206e-05
1.53492e-05
-1.59412e-12
-9.89786e-05
1.09695e-05
-1.23198e-12
-0.000101444
7.50591e-06
-9.63459e-13
-0.000103024
4.99859e-06
-7.69631e-13
-0.000104034
3.3081e-06
-6.30601e-13
-0.000104699
2.24714e-06
-5.07891e-13
-0.000105173
1.64679e-06
-3.40178e-13
-0.000105556
1.37708e-06
-2.15779e-13
-0.000105918
1.34347e-06
-1.56487e-13
-0.000106302
1.4739e-06
-1.35198e-13
-0.000106733
1.70259e-06
-1.25206e-13
-0.000107214
1.95288e-06
-1.06354e-13
-0.000107717
2.11962e-06
-7.27012e-14
-0.000108169
2.05245e-06
-2.62182e-14
-0.000108435
1.54287e-06
2.98698e-14
-0.00010829
3.22222e-07
8.60838e-14
-0.000107396
-1.91549e-06
1.21573e-13
-0.000105298
-5.4517e-06
1.21311e-13
-0.000101451
-1.04218e-05
8.33987e-14
-1.66313e-05
1.73449e-14
-9.53415e-05
-0.000107159
2.06478e-05
-1.63882e-12
-0.000110406
1.42152e-05
-1.27271e-12
-0.00011229
9.38926e-06
-9.82308e-13
-0.000113354
6.06115e-06
-7.6117e-13
-0.000113953
3.90699e-06
-6.17798e-13
-0.000114303
2.59677e-06
-5.10192e-13
-0.000114527
1.87012e-06
-3.32927e-13
-0.000114694
1.54429e-06
-1.84158e-13
-0.000114846
1.49582e-06
-1.34163e-13
-0.000115009
1.63659e-06
-1.4676e-13
-0.000115197
1.89046e-06
-1.63291e-13
-0.000115415
2.17078e-06
-1.43256e-13
-0.000115653
2.35778e-06
-7.61276e-14
-0.000115876
2.2751e-06
2.39016e-14
-0.000116001
1.66743e-06
1.19658e-13
-0.000115863
1.84172e-07
1.6463e-13
-0.000115168
-2.60974e-06
1.40558e-13
-0.000113441
-7.17898e-06
4.49432e-14
-0.000109998
-1.3864e-05
-8.52687e-14
-2.25907e-05
-1.98099e-13
-0.000104037
-0.000112213
2.49015e-05
-1.68631e-12
-0.000114156
1.61567e-05
-1.30789e-12
-0.000114876
1.01082e-05
-1.00672e-12
-0.000115043
6.22678e-06
-7.59108e-13
-0.000114997
3.86065e-06
-6.33397e-13
-0.000114888
2.48776e-06
-5.52061e-13
-0.00011477
1.75202e-06
-3.80681e-13
-0.000114655
1.42969e-06
-1.97882e-13
-0.000114543
1.38312e-06
-1.26772e-13
-0.000114429
1.52243e-06
-1.47916e-13
-0.000114314
1.77566e-06
-1.73311e-13
-0.000114206
2.06339e-06
-1.34915e-13
-0.000114122
2.27366e-06
-2.13299e-14
-0.000114081
2.23366e-06
1.21953e-13
-0.00011409
1.67609e-06
2.09768e-13
-0.000114105
1.99666e-07
1.93842e-13
-0.000113959
-2.75646e-06
5.29015e-14
-0.000113234
-7.90351e-06
-1.46994e-13
-0.000111122
-1.59749e-05
-3.03548e-13
-2.73513e-05
-3.59158e-13
-0.000106358
-0.000109703
2.70492e-05
-1.54491e-12
-0.000109489
1.59396e-05
-1.16922e-12
-0.000108558
9.17509e-06
-9.40847e-13
-0.000107607
5.27443e-06
-7.1577e-13
-0.000106841
3.0943e-06
-6.49859e-13
-0.000106266
1.91297e-06
-5.95257e-13
-0.000105826
1.31227e-06
-4.39079e-13
-0.000105458
1.06175e-06
-2.3993e-13
-0.00010511
1.03508e-06
-1.40619e-13
-0.000104746
1.15857e-06
-1.43915e-13
-0.00010435
1.37904e-06
-1.51806e-13
-0.000103927
1.64027e-06
-8.35277e-14
-0.000103514
1.86048e-06
5.9866e-14
-0.000103185
1.90453e-06
1.84483e-13
-0.000103052
1.54381e-06
1.93976e-13
-0.000103246
3.93314e-07
2.12468e-14
-0.000103828
-2.17419e-06
-2.5378e-13
-0.000104612
-7.11949e-06
-4.60898e-13
-0.000104801
-1.57823e-05
-4.86865e-13
-2.96549e-05
-3.45978e-13
-0.000102488
-9.82622e-05
2.56129e-05
-1.18125e-12
-9.50944e-05
1.27677e-05
-8.2362e-13
-9.23384e-05
6.41831e-06
-6.9566e-13
-9.03791e-05
3.31473e-06
-5.09489e-13
-8.90771e-05
1.79241e-06
-5.61435e-13
-8.82126e-05
1.04865e-06
-5.835e-13
-8.76006e-05
7.00416e-07
-4.53471e-13
-8.71074e-05
5.68599e-07
-2.59406e-13
-8.66408e-05
5.68614e-07
-1.45293e-13
-8.61401e-05
6.58001e-07
-1.21018e-13
-8.55714e-05
8.10422e-07
-9.31994e-14
-8.4931e-05
9.99851e-07
7.477e-15
-8.42569e-05
1.18642e-06
1.45891e-13
-8.36496e-05
1.29724e-06
1.98914e-13
-8.32987e-05
1.19279e-06
4.98629e-14
-8.35046e-05
5.9912e-07
-2.76976e-13
-8.46453e-05
-1.03334e-06
-5.76496e-13
-8.70321e-05
-4.73313e-06
-6.63032e-13
-9.03307e-05
-1.24804e-05
-5.05352e-13
-2.78629e-05
-1.81024e-13
-9.21083e-05
-7.5036e-05
1.80724e-05
-9.81588e-13
-6.87458e-05
6.4831e-06
-7.26542e-13
-6.48578e-05
2.53646e-06
-7.18567e-13
-6.2614e-05
1.07353e-06
-5.75158e-13
-6.13193e-05
4.99172e-07
-5.83744e-13
-6.05374e-05
2.6757e-07
-5.87989e-13
-6.00129e-05
1.7646e-07
-4.5358e-13
-5.95949e-05
1.50948e-07
-2.69319e-13
-5.91892e-05
1.63347e-07
-1.54997e-13
-5.8734e-05
2.03188e-07
-1.07912e-13
-5.8189e-05
2.65977e-07
-4.61869e-14
-5.75367e-05
3.48095e-07
6.90365e-14
-5.67925e-05
4.4291e-07
1.69698e-13
-5.60293e-05
5.34731e-07
1.10803e-13
-5.54211e-05
5.85013e-07
-1.62362e-13
-5.53242e-05
5.02081e-07
-5.15192e-13
-5.63286e-05
-3.05388e-08
-6.83689e-13
-5.94741e-05
-1.5953e-06
-6.00914e-13
-6.58293e-05
-6.13575e-06
-2.72801e-13
-1.9325e-05
1.12892e-13
-7.43517e-05
-3.40866e-05
-7.0188e-13
-2.76152e-05
-2.02149e-13
-2.50796e-05
-4.15984e-13
-2.4008e-05
-5.06235e-13
-2.35101e-05
-5.56157e-13
-2.32431e-05
-5.34202e-13
-2.30669e-05
-4.07072e-13
-2.29162e-05
-2.58351e-13
-2.27531e-05
-1.62948e-13
-2.25501e-05
-1.03155e-13
-2.22844e-05
-2.05806e-14
-2.19367e-05
8.91935e-14
-2.14942e-05
1.21186e-13
-2.096e-05
-1.85345e-14
-2.03753e-05
-3.02178e-13
-1.9873e-05
-5.13255e-13
-1.99028e-05
-5.25486e-13
-2.15006e-05
-2.66215e-13
-2.76313e-05
2.89955e-13
1.39292e-13
-4.68688e-05
-1.97921e-05
1.43687e-06
-2.17363e-09
-2.08468e-05
1.05626e-06
-1.52235e-09
-2.15845e-05
7.38695e-07
-1.00944e-09
-2.20824e-05
4.98523e-07
-6.3877e-10
-2.24139e-05
3.31902e-07
-3.93388e-10
-2.26403e-05
2.26665e-07
-2.45573e-10
-2.28095e-05
1.69368e-07
-1.68726e-10
-2.29581e-05
1.48719e-07
-1.42676e-10
-2.31142e-05
1.56284e-07
-1.53749e-10
-2.32997e-05
1.85641e-07
-1.93255e-10
-2.35302e-05
2.30767e-07
-2.55089e-10
-2.38139e-05
2.84036e-07
-3.32825e-10
-2.41475e-05
3.34008e-07
-4.16687e-10
-2.45103e-05
3.63305e-07
-4.90427e-10
-2.48569e-05
3.47126e-07
-5.27104e-10
-2.51099e-05
2.53472e-07
-4.832e-10
-2.51571e-05
4.75406e-08
-3.04182e-10
-2.48542e-05
-3.02952e-07
4.35305e-11
-2.40483e-05
-8.06556e-07
6.55593e-10
-1.43773e-06
1.57742e-09
-2.26122e-05
-5.16519e-05
4.97776e-06
1.93918e-09
-5.42734e-05
3.67613e-06
1.61955e-09
-5.61279e-05
2.59183e-06
1.2819e-09
-5.73997e-05
1.76938e-06
9.80503e-10
-5.82627e-05