/*--------------------------------*- C++ -*----------------------------------*\
| =========                 |                                                 |
| \\      /  F ield         | OpenFOAM: The Open Source CFD Toolbox           |
|  \\    /   O peration     | Version:  2.4.0                                 |
|   \\  /    A nd           | Web:      www.OpenFOAM.org                      |
|    \\/     M anipulation  |                                                 |
\*---------------------------------------------------------------------------*/
FoamFile
{
    version     2.0;
    format      ascii;
    class       volVectorField;
    location    "3.8";
    object      U;
}
// * * * * * * * * * * * * * * * * * * * * * * * * * * * * * * * * * * * * * //

dimensions      [0 1 -1 0 0 0 0];

internalField   nonuniform List<vector> 
4800
(
(0.00030626 -0.000310624 -7.76747e-07)
(1.7019e-05 0.00015699 0.000216679)
(-0.00184535 0.000665157 0.000444657)
(-0.00483977 0.0010086 0.000613674)
(-0.00856942 0.0012035 0.000679728)
(-0.0126924 0.00128764 0.000622397)
(-0.0169249 0.00128862 0.000435376)
(-0.0210287 0.00122035 0.00011917)
(-0.0247934 0.00109022 -0.000320194)
(-0.0280418 0.00091031 -0.000869791)
(-0.000182859 -1.95033e-05 -0.000217861)
(-0.00248526 0.00239439 4.39343e-06)
(-0.00807246 0.00474878 0.000173535)
(-0.0159558 0.00644665 0.000274453)
(-0.0253899 0.00748213 0.000289009)
(-0.0356945 0.0079483 0.000201244)
(-0.0462284 0.00793191 4.44222e-06)
(-0.0564103 0.00749328 -0.000303791)
(-0.0657208 0.00668819 -0.000722156)
(-0.0737334 0.00560656 -0.00124412)
(-0.000779692 0.00197305 -0.000451361)
(-0.00522075 0.00810167 -0.000157696)
(-0.0143154 0.0135588 1.23728e-05)
(-0.0263801 0.0175509 9.16261e-05)
(-0.0404104 0.0200362 8.86893e-05)
(-0.0555335 0.021145 -5.31242e-06)
(-0.0708792 0.0210206 -0.000194693)
(-0.085622 0.0197863 -0.000483317)
(-0.0990025 0.0175903 -0.000874366)
(-0.110384 0.0146842 -0.00136754)
(-0.00125875 0.0053945 -0.000609825)
(-0.00750471 0.0166233 -0.000229669)
(-0.0195646 0.0259093 -3.55305e-05)
(-0.0350442 0.0326102 4.58624e-05)
(-0.0526983 0.0367584 4.52593e-05)
(-0.0715195 0.0385413 -4.01899e-05)
(-0.090481 0.0381447 -0.000213094)
(-0.108575 0.0357397 -0.000479935)
(-0.124831 0.0315701 -0.000850191)
(-0.138389 0.0260924 -0.00133229)
(-0.00158743 0.0099126 -0.000618213)
(-0.0091385 0.0273541 -0.000162941)
(-0.0233792 0.0410047 5.68603e-05)
(-0.041347 0.0506602 0.000150857)
(-0.0616003 0.0565553 0.00016592)
(-0.0830356 0.0589708 0.000102733)
(-0.104519 0.0581204 -4.21799e-05)
(-0.124902 0.0541863 -0.000280829)
(-0.143012 0.0474728 -0.000632863)
(-0.157694 0.0386429 -0.00112235)
(-0.00175945 0.0151347 -0.000426796)
(-0.0100331 0.0395547 8.44689e-05)
(-0.0255103 0.0579481 0.00032558)
(-0.0448911 0.0707229 0.000439524)
(-0.0666113 0.0784113 0.00048281)
(-0.0895148 0.0814204 0.000456938)
(-0.112411 0.079974 0.000354305)
(-0.134055 0.0742072 0.000153468)
(-0.153092 0.064396 -0.00018103)
(-0.167949 0.0513246 -0.000703927)
(-0.0017749 0.0206353 -1.14972e-05)
(-0.0101526 0.0523668 0.000533614)
(-0.025832 0.0756725 0.00078845)
(-0.0454359 0.0916346 0.000927532)
(-0.0673636 0.101131 0.00101102)
(-0.0904518 0.104716 0.00103915)
(-0.11351 0.102607 0.000997196)
(-0.135275 0.0948157 0.000850393)
(-0.154292 0.0814306 0.000541591)
(-0.16843 0.063087 -4.54549e-05)
(-0.00164089 0.0259855 0.000628139)
(-0.00951268 0.0648954 0.001185)
(-0.0243466 0.0930347 0.00144469)
(-0.042929 0.112117 0.00161249)
(-0.0636927 0.123363 0.00174737)
(-0.085495 0.127491 0.00184772)
(-0.107187 0.124707 0.00189025)
(-0.127584 0.114838 0.00182487)
(-0.145367 0.0975772 0.00157206)
(-0.157805 0.0727981 0.000897954)
(-0.00137759 0.0307843 0.00146981)
(-0.00820269 0.0762829 0.00201908)
(-0.0212333 0.108902 0.00227453)
(-0.0376039 0.130843 0.0024722)
(-0.0558079 0.143621 0.00266648)
(-0.0746957 0.148124 0.00285526)
(-0.0931255 0.144601 0.00300747)
(-0.110004 0.132738 0.00305706)
(-0.124536 0.111779 0.00291427)
(-0.13383 0.0799956 0.00213891)
(-0.00102469 0.034705 0.00247093)
(-0.00640903 0.0858083 0.00299877)
(-0.0169069 0.122275 0.00324106)
(-0.0301085 0.146567 0.00346552)
(-0.0445437 0.160367 0.00372077)
(-0.0589408 0.164698 0.0040091)
(-0.0719472 0.159902 0.00430129)
(-0.0821706 0.145655 0.00452736)
(-0.0893206 0.121073 0.0046554)
(-0.092387 0.083445 0.00406001)
(0.000311625 -0.000314764 -1.17288e-07)
(2.46795e-05 0.000151259 1.31224e-06)
(-0.00184141 0.000651212 1.99702e-06)
(-0.00483706 0.000988864 2.57546e-06)
(-0.00856788 0.00118058 2.92135e-06)
(-0.0126918 0.00126317 3.06531e-06)
(-0.0169251 0.0012641 3.07624e-06)
(-0.0210298 0.00119713 2.95645e-06)
(-0.0247956 0.00106942 2.68563e-06)
(-0.0280452 0.000892572 2.24558e-06)
(-0.000175321 -2.63007e-05 -1.16563e-06)
(-0.00248197 0.00239264 2.91937e-07)
(-0.00807985 0.00473764 -1.18786e-06)
(-0.0159604 0.00643031 -1.87047e-06)
(-0.0253921 0.00746395 -2.21156e-06)
(-0.0356952 0.00792926 -2.42568e-06)
(-0.0462274 0.00791299 -2.43139e-06)
(-0.0564082 0.00747554 -2.25954e-06)
(-0.0657187 0.0066725 -1.98128e-06)
(-0.0737321 0.00559299 -1.70899e-06)
(-0.000763613 0.00196766 -1.96952e-06)
(-0.00520938 0.0081084 1.74712e-06)
(-0.0143223 0.0135621 7.02049e-08)
(-0.0263822 0.0175542 -8.19686e-08)
(-0.0404104 0.0200413 8.52445e-08)
(-0.0555333 0.0211513 8.10568e-08)
(-0.0708782 0.0210272 9.17218e-08)
(-0.0856207 0.0197931 1.38832e-07)
(-0.0990022 0.0175973 1.92958e-07)
(-0.110386 0.0146899 1.18367e-07)
(-0.00123572 0.0053897 -2.84979e-06)
(-0.00748829 0.0166275 2.47253e-06)
(-0.0195738 0.0259085 -2.09131e-08)
(-0.035046 0.0326076 -2.28923e-07)
(-0.0526973 0.0367562 5.94258e-08)
(-0.0715186 0.0385395 9.39994e-08)
(-0.0904795 0.0381433 1.27273e-07)
(-0.108572 0.0357393 2.11223e-07)
(-0.12483 0.0315719 3.68092e-07)
(-0.138394 0.0260945 3.24686e-07)
(-0.00155982 0.00990957 -3.47835e-06)
(-0.00911988 0.0273566 2.91343e-06)
(-0.0233918 0.0410027 -3.4196e-07)
(-0.0413501 0.050656 -7.2888e-07)
(-0.0615993 0.0565507 -4.42972e-07)
(-0.0830344 0.0589661 -4.22135e-07)
(-0.104517 0.0581158 -3.76521e-07)
(-0.124897 0.0541831 -2.22378e-07)
(-0.143009 0.0474741 2.30808e-07)
(-0.157702 0.0386463 4.56098e-07)
(-0.00172933 0.0151339 -3.7842e-06)
(-0.0100135 0.0395561 3.22927e-06)
(-0.0255252 0.057947 -4.43102e-07)
(-0.0448952 0.0707204 -9.23748e-07)
(-0.0666107 0.0784081 -6.42443e-07)
(-0.0895137 0.0814167 -6.37749e-07)
(-0.112408 0.0799697 -6.23106e-07)
(-0.134048 0.0742036 -5.01814e-07)
(-0.153085 0.0644005 3.99779e-07)
(-0.167964 0.0513365 1.27313e-06)
(-0.00174453 0.0206365 -3.77409e-06)
(-0.0101333 0.052367 3.31717e-06)
(-0.0258481 0.0756723 -4.72067e-07)
(-0.0454409 0.0916338 -1.00903e-06)
(-0.0673636 0.101129 -7.7067e-07)
(-0.0904515 0.104714 -7.99312e-07)
(-0.113507 0.102603 -8.84971e-07)
(-0.135261 0.0948108 -1.06009e-06)
(-0.154274 0.0814413 5.25385e-07)
(-0.16846 0.0631254 3.23756e-06)
(-0.00161232 0.0259887 -3.49361e-06)
(-0.00949488 0.0648946 3.18337e-06)
(-0.0243625 0.0930355 -4.30468e-07)
(-0.0429346 0.112118 -9.80501e-07)
(-0.0636934 0.123363 -8.02931e-07)
(-0.0854958 0.12749 -8.16656e-07)
(-0.107186 0.124702 -9.24906e-07)
(-0.127561 0.114823 -1.63785e-06)
(-0.145314 0.097573 1.55663e-06)
(-0.157852 0.0728593 1.12761e-05)
(-0.00135271 0.0307893 -2.91472e-06)
(-0.0081874 0.0762817 2.88511e-06)
(-0.0212477 0.108904 -2.98607e-07)
(-0.0376095 0.130847 -8.21256e-07)
(-0.0558099 0.143625 -7.5378e-07)
(-0.0747001 0.148127 -8.16056e-07)
(-0.0931365 0.144598 -1.09518e-06)
(-0.109987 0.132704 -3.82488e-06)
(-0.124429 0.111703 -1.14028e-06)
(-0.133878 0.0799653 2.53155e-05)
(-0.00100478 0.034711 -2.11466e-06)
(-0.00639669 0.0858068 2.49167e-06)
(-0.0169183 0.122278 -5.45655e-08)
(-0.0301126 0.146574 -4.69257e-07)
(-0.044545 0.16038 -4.97976e-07)
(-0.0589475 0.164721 -7.28513e-07)
(-0.0719805 0.159946 -1.54349e-06)
(-0.082212 0.145721 -9.51267e-06)
(-0.0892306 0.121135 -2.2246e-05)
(-0.092466 0.0835644 7.63443e-06)
(0.000311715 -0.000314673 -9.52118e-08)
(2.48214e-05 0.000151319 -1.38727e-06)
(-0.00184132 0.00065124 -2.04042e-06)
(-0.00483701 0.000988877 -2.60587e-06)
(-0.00856785 0.00118058 -2.94308e-06)
(-0.0126917 0.00126317 -3.08126e-06)
(-0.0169251 0.0012641 -3.0882e-06)
(-0.0210298 0.00119713 -2.96566e-06)
(-0.0247956 0.00106942 -2.69279e-06)
(-0.0280452 0.000892572 -2.25109e-06)
(-0.000175262 -2.61583e-05 1.09127e-06)
(-0.00248186 0.00239275 -3.42587e-07)
(-0.00807976 0.0047377 1.14807e-06)
(-0.0159604 0.00643034 1.83997e-06)
(-0.0253921 0.00746396 2.18877e-06)
(-0.0356951 0.00792926 2.40862e-06)
(-0.0462274 0.00791299 2.41852e-06)
(-0.0564082 0.00747554 2.24965e-06)
(-0.0657187 0.0066725 1.97364e-06)
(-0.0737321 0.00559299 1.70314e-06)
(-0.000763584 0.00196774 1.9267e-06)
(-0.00520931 0.00810849 -1.78628e-06)
(-0.0143222 0.0135621 -1.03167e-07)
(-0.0263822 0.0175542 5.56615e-08)
(-0.0404104 0.0200413 -1.05628e-07)
(-0.0555332 0.0211513 -9.65381e-08)
(-0.0708782 0.0210273 -1.03427e-07)
(-0.0856207 0.0197931 -1.47838e-07)
(-0.0990022 0.0175973 -1.99952e-07)
(-0.110386 0.0146899 -1.23762e-07)
(-0.0012357 0.00538975 2.82035e-06)
(-0.00748826 0.0166275 -2.50204e-06)
(-0.0195737 0.0259085 -5.07344e-09)
(-0.035046 0.0326076 2.07321e-07)
(-0.0526972 0.0367562 -7.67794e-08)
(-0.0715185 0.0385395 -1.07457e-07)
(-0.0904795 0.0381434 -1.37615e-07)
(-0.108572 0.0357393 -2.19383e-07)
(-0.12483 0.0315719 -3.74639e-07)
(-0.138394 0.0260945 -3.29897e-07)
(-0.00155982 0.00990961 3.45789e-06)
(-0.00911987 0.0273566 -2.93517e-06)
(-0.0233918 0.0410027 3.21915e-07)
(-0.0413501 0.0506561 7.11645e-07)
(-0.0615993 0.0565507 4.28696e-07)
(-0.0830344 0.0589661 4.10768e-07)
(-0.104517 0.0581158 3.67494e-07)
(-0.124897 0.0541831 2.14905e-07)
(-0.143009 0.0474741 -2.37116e-07)
(-0.157702 0.0386463 -4.61328e-07)
(-0.00172933 0.0151339 3.76957e-06)
(-0.0100135 0.0395562 -3.24543e-06)
(-0.0255252 0.0579471 4.27637e-07)
(-0.0448952 0.0707204 9.10081e-07)
(-0.0666106 0.0784082 6.30803e-07)
(-0.0895137 0.0814167 6.28123e-07)
(-0.112408 0.0799697 6.15025e-07)
(-0.134048 0.0742036 4.94697e-07)
(-0.153085 0.0644005 -4.06061e-07)
(-0.167964 0.0513365 -1.27846e-06)
(-0.00174453 0.0206365 3.7632e-06)
(-0.0101333 0.0523671 -3.32937e-06)
(-0.0258481 0.0756723 4.60096e-07)
(-0.0454409 0.0916338 9.98196e-07)
(-0.0673636 0.101129 7.61165e-07)
(-0.0904515 0.104714 7.91043e-07)
(-0.113507 0.102603 8.77554e-07)
(-0.135261 0.0948108 1.05326e-06)
(-0.154274 0.0814413 -5.31428e-07)
(-0.16846 0.0631254 -3.24258e-06)
(-0.00161232 0.0259887 3.48534e-06)
(-0.00949488 0.0648946 -3.19249e-06)
(-0.0243625 0.0930355 4.21227e-07)
(-0.0429346 0.112118 9.72e-07)
(-0.0636934 0.123363 7.95214e-07)
(-0.0854958 0.12749 8.09534e-07)
(-0.107186 0.124702 9.18167e-07)
(-0.127561 0.114823 1.63165e-06)
(-0.145314 0.097573 -1.56179e-06)
(-0.157852 0.0728593 -1.12801e-05)
(-0.00135271 0.0307893 2.90852e-06)
(-0.0081874 0.0762817 -2.892e-06)
(-0.0212477 0.108904 2.91485e-07)
(-0.0376095 0.130847 8.14584e-07)
(-0.0558099 0.143625 7.47459e-07)
(-0.0747001 0.148127 8.0988e-07)
(-0.0931365 0.144598 1.08923e-06)
(-0.109987 0.132704 3.81969e-06)
(-0.124429 0.111703 1.13641e-06)
(-0.133878 0.0799653 -2.53187e-05)
(-0.00100478 0.034711 2.1099e-06)
(-0.00639669 0.0858069 -2.49701e-06)
(-0.0169183 0.122278 4.90282e-08)
(-0.0301126 0.146574 4.63957e-07)
(-0.044545 0.16038 4.92705e-07)
(-0.0589475 0.164721 7.23175e-07)
(-0.0719805 0.159946 1.53849e-06)
(-0.082212 0.145721 9.50874e-06)
(-0.0892306 0.121135 2.22438e-05)
(-0.092466 0.0835644 -7.63639e-06)
(0.000306761 -0.000310121 1.00014e-06)
(1.77344e-05 0.000157225 -0.000216599)
(-0.00184503 0.000665246 -0.000444611)
(-0.00483961 0.00100864 -0.000613642)
(-0.00856932 0.00120351 -0.000679705)
(-0.0126923 0.00128764 -0.00062238)
(-0.0169249 0.00128862 -0.000435363)
(-0.0210287 0.00122035 -0.00011916)
(-0.0247934 0.00109022 0.000320201)
(-0.0280418 0.00091031 0.000869797)
(-0.000182624 -1.87869e-05 0.000217939)
(-0.00248486 0.00239478 -4.33989e-06)
(-0.00807218 0.00474896 -0.000173493)
(-0.0159556 0.00644673 -0.000274421)
(-0.0253897 0.00748218 -0.000288985)
(-0.0356944 0.00794832 -0.000201226)
(-0.0462284 0.00793192 -4.42862e-06)
(-0.0564103 0.00749329 0.000303801)
(-0.0657208 0.00668819 0.000722164)
(-0.0737333 0.00560656 0.00124413)
(-0.000779602 0.00197336 0.000451407)
(-0.00522057 0.00810195 0.000157738)
(-0.0143153 0.013559 -1.2338e-05)
(-0.0263799 0.017551 -9.15983e-05)
(-0.0404103 0.0200362 -8.86678e-05)
(-0.0555334 0.0211451 5.32879e-06)
(-0.0708791 0.0210206 0.000194705)
(-0.0856219 0.0197863 0.000483326)
(-0.0990025 0.0175904 0.000874373)
(-0.110384 0.0146843 0.00136754)
(-0.00125871 0.00539466 0.000609856)
(-0.00750462 0.0166235 0.000229701)
(-0.0195645 0.0259095 3.55579e-05)
(-0.0350441 0.0326103 -4.58396e-05)
(-0.0526982 0.0367585 -4.52409e-05)
(-0.0715194 0.0385414 4.02041e-05)
(-0.0904809 0.0381448 0.000213105)
(-0.108574 0.0357397 0.000479944)
(-0.124831 0.0315701 0.000850198)
(-0.138389 0.0260924 0.0013323)
(-0.00158741 0.0099127 0.000618235)
(-0.00913845 0.0273543 0.000162964)
(-0.0233791 0.0410048 -5.68391e-05)
(-0.041347 0.0506603 -0.000150839)
(-0.0616003 0.0565554 -0.000165905)
(-0.0830356 0.0589708 -0.000102721)
(-0.104519 0.0581204 4.21894e-05)
(-0.124902 0.0541864 0.000280837)
(-0.143011 0.0474728 0.00063287)
(-0.157694 0.0386429 0.00112236)
(-0.00175944 0.0151348 0.000426812)
(-0.0100331 0.0395548 -8.44518e-05)
(-0.0255102 0.0579482 -0.000325563)
(-0.044891 0.070723 -0.00043951)
(-0.0666113 0.0784114 -0.000482798)
(-0.0895147 0.0814204 -0.000456928)
(-0.112411 0.079974 -0.000354296)
(-0.134055 0.0742073 -0.000153461)
(-0.153092 0.064396 0.000181037)
(-0.167949 0.0513246 0.000703933)
(-0.0017749 0.0206353 1.15087e-05)
(-0.0101526 0.0523669 -0.000533601)
(-0.025832 0.0756726 -0.000788438)
(-0.0454359 0.0916347 -0.00092752)
(-0.0673635 0.101131 -0.00101101)
(-0.0904517 0.104716 -0.00103914)
(-0.11351 0.102607 -0.000997188)
(-0.135275 0.0948157 -0.000850386)
(-0.154292 0.0814307 -0.000541584)
(-0.16843 0.063087 4.54602e-05)
(-0.00164089 0.0259855 -0.00062813)
(-0.00951268 0.0648954 -0.00118499)
(-0.0243466 0.0930348 -0.00144468)
(-0.042929 0.112117 -0.00161248)
(-0.0636927 0.123363 -0.00174736)
(-0.0854949 0.127491 -0.00184771)
(-0.107187 0.124707 -0.00189024)
(-0.127584 0.114838 -0.00182486)
(-0.145367 0.0975772 -0.00157205)
(-0.157805 0.0727981 -0.00089795)
(-0.00137759 0.0307843 -0.0014698)
(-0.00820269 0.0762829 -0.00201908)
(-0.0212333 0.108902 -0.00227452)
(-0.0376039 0.130843 -0.00247219)
(-0.0558079 0.143621 -0.00266647)
(-0.0746957 0.148124 -0.00285525)
(-0.0931255 0.144601 -0.00300746)
(-0.110004 0.132738 -0.00305705)
(-0.124536 0.111779 -0.00291426)
(-0.13383 0.0799956 -0.00213891)
(-0.00102469 0.034705 -0.00247092)
(-0.00640902 0.0858083 -0.00299876)
(-0.0169069 0.122275 -0.00324105)
(-0.0301085 0.146567 -0.00346551)
(-0.0445437 0.160367 -0.00372076)
(-0.0589408 0.164699 -0.0040091)
(-0.0719472 0.159902 -0.00430129)
(-0.0821706 0.145655 -0.00452735)
(-0.0893205 0.121073 -0.0046554)
(-0.092387 0.083445 -0.00406)
(-0.0306609 0.000706131 -0.0015089)
(-0.0326366 0.000511904 -0.00221204)
(-0.0340451 0.000350582 -0.00295628)
(-0.0350066 0.000230039 -0.00372434)
(-0.0356461 0.000148063 -0.00450478)
(-0.036073 9.79623e-05 -0.00529091)
(-0.0363746 7.25624e-05 -0.00607958)
(-0.0366174 6.6134e-05 -0.00687004)
(-0.0368525 7.47599e-05 -0.00766338)
(-0.0371195 9.58386e-05 -0.00846234)
(-0.0374486 0.000127143 -0.00927132)
(-0.0378598 0.000165621 -0.0100965)
(-0.0383587 0.000206025 -0.010946)
(-0.0389283 0.000239481 -0.0118293)
(-0.0395181 0.000252277 -0.0127568)
(-0.0400315 0.000225521 -0.0137379)
(-0.0403163 0.000136999 -0.0147779)
(-0.0401627 -3.29825e-05 -0.0158744)
(-0.0393226 -0.000296333 -0.0170114)
(-0.0375568 -0.000641129 -0.0181567)
(-0.080189 0.0044007 -0.00185595)
(-0.085073 0.00325574 -0.00253783)
(-0.0885833 0.00229496 -0.00327123)
(-0.0910126 0.00156291 -0.00404083)
(-0.0926582 0.00105034 -0.00483483)
(-0.093778 0.000722606 -0.00564498)
(-0.0945771 0.000540302 -0.00646609)
(-0.0952116 0.000469477 -0.00729552)
(-0.0957982 0.000484018 -0.00813275)
(-0.0964232 0.000563421 -0.00897911)
(-0.0971462 0.000688194 -0.00983763)
(-0.0979984 0.000834047 -0.0107129)
(-0.0989728 0.000965584 -0.0116111)
(-0.100009 0.00103038 -0.0125391)
(-0.100972 0.000955146 -0.0135042)
(-0.10163 0.000647127 -0.0145121)
(-0.101636 5.54481e-06 -0.0155652)
(-0.100542 -0.00105228 -0.0166588)
(-0.097831 -0.00255273 -0.0177791)
(-0.0930209 -0.00441242 -0.0188984)
(-0.119385 0.0114815 -0.00195364)
(-0.126036 0.00847604 -0.00261249)
(-0.130709 0.00597803 -0.00332656)
(-0.133881 0.00408574 -0.00408118)
(-0.135997 0.00276202 -0.00486435)
(-0.13742 0.00191013 -0.00566724)
(-0.138423 0.00142484 -0.00648388)
(-0.139206 0.00121612 -0.00731079)
(-0.139913 0.00121366 -0.00814655)
(-0.140643 0.00136077 -0.00899151)
(-0.141463 0.00160309 -0.00984759)
(-0.142403 0.00187502 -0.0107181)
(-0.143443 0.00208547 -0.0116075)
(-0.144502 0.00210497 -0.0125213)
(-0.145403 0.00175831 -0.013465)
(-0.145853 0.00082941 -0.0144438)
(-0.145411 -0.00091121 -0.0154604)
(-0.143493 -0.0036478 -0.0165132)
(-0.139411 -0.00742349 -0.0175928)
(-0.132489 -0.0120255 -0.0186785)
(-0.148718 0.0201068 -0.00192091)
(-0.155952 0.0146094 -0.00258615)
(-0.160757 0.0101537 -0.00330745)
(-0.16385 0.00685493 -0.00406899)
(-0.165817 0.00458912 -0.00485801)
(-0.167086 0.00314754 -0.00566544)
(-0.16795 0.00232601 -0.00648531)
(-0.168603 0.00195933 -0.00731405)
(-0.169178 0.00192284 -0.00814993)
(-0.169762 0.00211847 -0.00899273)
(-0.170409 0.00245448 -0.00984344)
(-0.171144 0.00282259 -0.0107042)
(-0.17195 0.00307456 -0.011578)
(-0.172754 0.00300062 -0.0124691)
(-0.173399 0.00231526 -0.0133823)
(-0.173606 0.000660831 -0.0143235)
(-0.172932 -0.0023538 -0.0152982)
(-0.17074 -0.00706161 -0.0163107)
(-0.166202 -0.0135774 -0.0173605)
(-0.158388 -0.0215799 -0.0184375)
(-0.16815 0.0290335 -0.00175047)
(-0.174713 0.0204939 -0.00245756)
(-0.178565 0.0138531 -0.00321572)
(-0.180751 0.0091243 -0.00400736)
(-0.181975 0.00598123 -0.00481907)
(-0.182673 0.00403037 -0.00564262)
(-0.183097 0.0029337 -0.00647327)
(-0.183389 0.00243957 -0.00730834)
(-0.183633 0.0023698 -0.00814654)
(-0.183877 0.0025917 -0.00898744)
(-0.184154 0.00298659 -0.00983129)
(-0.18448 0.00341754 -0.0106789)
(-0.184853 0.00369664 -0.0115318)
(-0.185244 0.00355294 -0.0123926)
(-0.18557 0.00260573 -0.0132654)
(-0.185649 0.00035477 -0.0141569)
(-0.185135 -0.00378806 -0.0150767)
(-0.183431 -0.0103886 -0.0160376)
(-0.179604 -0.0197688 -0.0170525)
(-0.17235 -0.0316319 -0.0181321)
(-0.177267 0.0370344 -0.00143517)
(-0.181754 0.0249562 -0.00223427)
(-0.183536 0.0161425 -0.00306423)
(-0.184064 0.0102258 -0.00390957)
(-0.184076 0.00648534 -0.00475881)
(-0.183919 0.00425341 -0.00560742)
(-0.183727 0.00303275 -0.00645402)
(-0.18354 0.00248966 -0.00729829)
(-0.183359 0.00240738 -0.00814015)
(-0.183178 0.00263689 -0.00897941)
(-0.182993 0.00305347 -0.00981566)
(-0.182811 0.00351701 -0.0106483)
(-0.182651 0.00383229 -0.011477)
(-0.182545 0.00370649 -0.0123022)
(-0.182526 0.00270423 -0.0131263)
(-0.182585 0.000207674 -0.0139559)
(-0.182591 -0.00459242 -0.0148049)
(-0.182138 -0.0126097 -0.0156952)
(-0.180307 -0.0246204 -0.0166589)
(-0.175296 -0.0406873 -0.0177458)
(-0.175121 0.0426118 -0.000995408)
(-0.175876 0.0266632 -0.00195539)
(-0.174526 0.016119 -0.00289212)
(-0.17288 0.00963381 -0.00380795)
(-0.171481 0.00582316 -0.00470107)
(-0.170423 0.00367799 -0.00557621)
(-0.169636 0.00255528 -0.00643847)
(-0.169012 0.0020735 -0.00729125)
(-0.168456 0.00201008 -0.00813625)
(-0.167896 0.00222724 -0.00897367)
(-0.16729 0.00261986 -0.00980238)
(-0.166626 0.0030741 -0.0106202)
(-0.165936 0.00342694 -0.0114244)
(-0.165306 0.00341837 -0.0122124)
(-0.164891 0.0026288 -0.0129833)
(-0.164903 0.000395653 -0.0137415)
(-0.165538 -0.0042768 -0.0145028)
(-0.166815 -0.0127363 -0.0152975)
(-0.168169 -0.0265645 -0.01618)
(-0.167348 -0.0469072 -0.0172728)
(-0.159718 0.0435943 -0.000488892)
(-0.154795 0.0240141 -0.0016938)
(-0.149646 0.0130328 -0.00275948)
(-0.145889 0.00713238 -0.00374602)
(-0.143364 0.00402104 -0.00467439)
(-0.141707 0.00241407 -0.0055666)
(-0.140585 0.00162814 -0.00643725)
(-0.139742 0.00131387 -0.00729383)
(-0.139002 0.00129316 -0.00813952)
(-0.138246 0.00146971 -0.00897451)
(-0.137397 0.00177918 -0.00979668)
(-0.136424 0.0021558 -0.010602)
(-0.135346 0.00250117 -0.0113848)
(-0.134267 0.0026437 -0.0121388)
(-0.13341 0.00227309 -0.012858)
(-0.133168 0.000824588 -0.0135415)
(-0.134097 -0.00271177 -0.0142045)
(-0.136886 -0.0100193 -0.0148799)
(-0.142022 -0.0237988 -0.0156381)
(-0.147566 -0.0477069 -0.0167143)
(-0.12663 0.0374618 -0.000206594)
(-0.114308 0.0160988 -0.00168342)
(-0.106098 0.00711867 -0.00279709)
(-0.10151 0.00331093 -0.00379119)
(-0.0988926 0.00164908 -0.00471224)
(-0.0973506 0.00091444 -0.00559494)
(-0.0963766 0.000599744 -0.00645879)
(-0.0956664 0.000495092 -0.00731138)
(-0.0950356 0.000513652 -0.00815475)
(-0.0943654 0.000618108 -0.00898774)
(-0.0935756 0.000789299 -0.00980655)
(-0.0926177 0.00101011 -0.0106049)
(-0.0914835 0.00125214 -0.0113739)
(-0.0902312 0.00145594 -0.0121023)
(-0.0890412 0.00149055 -0.0127765)
(-0.0883069 0.00106152 -0.0133855)
(-0.0887145 -0.000511978 -0.0139372)
(-0.0915769 -0.00485028 -0.014437)
(-0.0993778 -0.0155212 -0.0149289)
(-0.113206 -0.0405484 -0.0158089)
(-0.0644469 0.0229546 -0.00085734)
(-0.0480829 0.00661901 -0.00232656)
(-0.0413751 0.00201873 -0.00308035)
(-0.0389432 0.000648856 -0.00382875)
(-0.0378872 0.000223622 -0.00459352)
(-0.0373477 9.33231e-05 -0.00537118)
(-0.0370261 5.8352e-05 -0.00615946)
(-0.0367827 5.76853e-05 -0.0069532)
(-0.0365431 7.43678e-05 -0.00774736)
(-0.0362586 0.00010505 -0.00853693)
(-0.0358901 0.000150507 -0.00931568)
(-0.0354033 0.000212641 -0.010075)
(-0.0347701 0.000292879 -0.0108026)
(-0.0339775 0.000388876 -0.0114808)
(-0.0330481 0.000484153 -0.0120843)
(-0.0320929 0.000516322 -0.0125772)
(-0.0314553 0.000260727 -0.0129122)
(-0.0320981 -0.00113934 -0.0130525)
(-0.0377132 -0.006412 -0.0128775)
(-0.056416 -0.0256922 -0.0130191)
(-0.0306646 0.000691594 1.69011e-06)
(-0.0326397 0.000500629 1.18353e-06)
(-0.0340473 0.000342249 7.84504e-07)
(-0.035008 0.000224088 4.96129e-07)
(-0.0356469 0.000143885 3.05272e-07)
(-0.0360734 9.49937e-05 1.90382e-07)
(-0.0363747 7.03238e-05 1.30741e-07)
(-0.0366173 6.42389e-05 1.10624e-07)
(-0.0368523 7.29061e-05 1.19395e-07)
(-0.0371191 9.37994e-05 1.503e-07)
(-0.0374481 0.000124768 1.98586e-07)
(-0.0378592 0.000162851 2.59234e-07)
(-0.038358 0.00020293 3.24596e-07)
(-0.0389276 0.000236312 3.8201e-07)
(-0.0395176 0.000249533 4.10526e-07)
(-0.0400315 0.000223996 3.76284e-07)
(-0.0403171 0.000137764 2.3683e-07)
(-0.0401647 -2.87357e-05 -3.3993e-08)
(-0.0393263 -0.000287341 -5.10711e-07)
(-0.0375623 -0.000626647 -1.22872e-06)
(-0.080188 0.00438867 -1.51149e-06)
(-0.0850713 0.00324588 -1.26213e-06)
(-0.0885813 0.00228742 -9.98997e-07)
(-0.0910106 0.0015574 -7.64209e-07)
(-0.0926564 0.00104642 -5.72636e-07)
(-0.0937766 0.000719854 -4.31718e-07)
(-0.0945761 0.000538308 -3.41156e-07)
(-0.0952109 0.000467905 -2.95238e-07)
(-0.0957979 0.000482601 -2.85882e-07)
(-0.096423 0.00056195 -3.03589e-07)
(-0.0971461 0.000686515 -3.36804e-07)
(-0.0979981 0.000832068 -3.70241e-07)
(-0.0989721 0.000963297 -3.83068e-07)
(-0.100008 0.00102791 -3.47677e-07)
(-0.10097 0.000952808 -2.30074e-07)
(-0.101626 0.000645498 5.34451e-09)
(-0.101632 5.44036e-06 3.81899e-07)
(-0.100537 -0.00104986 8.90838e-07)
(-0.0978265 -0.00254672 1.50059e-06)
(-0.0930182 -0.00440275 2.07418e-06)
(-0.119388 0.0114835 -1.87497e-07)
(-0.126037 0.00847643 -3.25463e-07)
(-0.130708 0.00597798 -3.57035e-07)
(-0.133879 0.00408562 -3.39785e-07)
(-0.135995 0.00276201 -2.90803e-07)
(-0.137418 0.0019103 -2.32657e-07)
(-0.138422 0.00142518 -1.79785e-07)
(-0.139206 0.00121664 -1.37831e-07)
(-0.139912 0.00121438 -1.07612e-07)
(-0.140642 0.00136167 -8.7137e-08)
(-0.141463 0.00160414 -7.29091e-08)
(-0.142402 0.00187615 -6.04652e-08)
(-0.143442 0.00208653 -4.45035e-08)
(-0.1445 0.00210575 -1.84818e-08)
(-0.145401 0.00175856 2.63156e-08)
(-0.14585 0.000828865 9.71907e-08)
(-0.145408 -0.00091281 1.90098e-07)
(-0.14349 -0.0036504 2.98919e-07)
(-0.13941 -0.00742697 4.11019e-07)
(-0.132491 -0.0120314 3.49889e-07)
(-0.148723 0.0201032 -2.97518e-07)
(-0.155953 0.0146054 -4.78634e-07)
(-0.160755 0.0101511 -4.75785e-07)
(-0.163848 0.00685351 -4.23385e-07)
(-0.165815 0.00458857 -3.37483e-07)
(-0.167085 0.00314754 -2.50193e-07)
(-0.167948 0.0023263 -1.77589e-07)
(-0.168602 0.00195976 -1.22413e-07)
(-0.169177 0.00192332 -8.3143e-08)
(-0.169761 0.00211896 -5.66789e-08)
(-0.170408 0.00245493 -3.97283e-08)
(-0.171143 0.00282294 -2.92759e-08)
(-0.171949 0.00307471 -2.24821e-08)
(-0.172753 0.00300047 -1.49305e-08)
(-0.173397 0.00231479 4.42302e-09)
(-0.173604 0.000660108 4.77237e-08)
(-0.172929 -0.0023546 1.0155e-07)
(-0.170737 -0.00706159 2.02925e-07)
(-0.166201 -0.013575 3.96804e-07)
(-0.158394 -0.0215771 3.50471e-07)
(-0.168158 0.0290246 -8.06442e-07)
(-0.174712 0.0204863 -9.04087e-07)
(-0.178562 0.0138494 -7.334e-07)
(-0.180748 0.00912294 -5.73943e-07)
(-0.181972 0.00598118 -4.04676e-07)
(-0.182671 0.00403093 -2.66479e-07)
(-0.183095 0.00293442 -1.70537e-07)
(-0.183388 0.00244026 -1.08365e-07)
(-0.183632 0.00237039 -7.09306e-08)
(-0.183877 0.00259216 -5.10522e-08)
(-0.184154 0.00298692 -4.36591e-08)
(-0.184479 0.00341771 -4.53536e-08)
(-0.184853 0.00369659 -5.36393e-08)
(-0.185244 0.00355263 -6.36181e-08)
(-0.185569 0.00260519 -5.62196e-08)
(-0.185647 0.00035423 -4.64966e-09)
(-0.185131 -0.00378811 4.93007e-08)
(-0.183426 -0.0103864 1.99852e-07)
(-0.179601 -0.0197602 6.98004e-07)
(-0.172359 -0.0316189 1.00147e-06)
(-0.177282 0.0370164 -1.71902e-06)
(-0.181749 0.024944 -1.46864e-06)
(-0.183529 0.0161388 -9.21913e-07)
(-0.184058 0.0102255 -6.17754e-07)
(-0.184072 0.00648647 -3.63974e-07)
(-0.183916 0.00425487 -1.9245e-07)
(-0.183725 0.00303405 -9.56371e-08)
(-0.183539 0.0024907 -4.40805e-08)
(-0.183359 0.00240817 -1.88634e-08)
(-0.183178 0.0026375 -9.27677e-09)
(-0.182993 0.00305393 -9.91652e-09)
(-0.182811 0.00351733 -1.87869e-08)
(-0.182651 0.00383244 -3.59692e-08)
(-0.182545 0.00370638 -6.07845e-08)
(-0.182524 0.00270387 -7.54683e-08)
(-0.182583 0.000207386 -4.53284e-08)
(-0.182586 -0.00459185 -2.45961e-08)
(-0.182127 -0.0126058 1.09953e-07)
(-0.180296 -0.0246039 1.20086e-06)
(-0.175312 -0.0406595 2.54386e-06)
(-0.175153 0.0425869 -4.56869e-06)
(-0.17586 0.0266551 -3.0204e-06)
(-0.17451 0.0161227 -1.3986e-06)
(-0.172872 0.00963815 -7.29515e-07)
(-0.171476 0.0058267 -3.10581e-07)
(-0.170421 0.00368062 -9.66209e-08)
(-0.169635 0.00255709 -1.23937e-08)
(-0.169011 0.00207478 1.54823e-08)
(-0.168455 0.00201108 1.9077e-08)
(-0.167896 0.00222812 1.14122e-08)
(-0.167289 0.00262073 -3.00661e-09)
(-0.166626 0.00307498 -2.36236e-08)
(-0.165936 0.00342777 -5.14317e-08)
(-0.165306 0.00341893 -8.90947e-08)
(-0.16489 0.0026288 -1.17831e-07)
(-0.1649 0.000395099 -6.04972e-08)
(-0.165531 -0.00427831 7.19716e-08)
(-0.166795 -0.0127388 3.62518e-07)
(-0.168143 -0.0265529 2.90463e-06)
(-0.16738 -0.0468714 6.99218e-06)
(-0.159778 0.043553 -7.75811e-06)
(-0.154763 0.0240244 -3.15707e-06)
(-0.149627 0.0130546 -6.43438e-07)
(-0.145884 0.0071447 -2.44391e-07)
(-0.143362 0.00402733 3.10265e-08)
(-0.141707 0.00241748 1.27929e-07)
(-0.140585 0.0016301 1.21171e-07)
(-0.139742 0.00131523 9.98908e-08)
(-0.139002 0.0012944 8.2979e-08)
(-0.138246 0.00147111 7.10396e-08)
(-0.137397 0.00178091 6.12063e-08)
(-0.136423 0.00215789 4.89186e-08)
(-0.135346 0.00250353 2.68504e-08)
(-0.134267 0.00264591 -2.5645e-08)
(-0.13341 0.00227425 -1.02712e-07)
(-0.133168 0.000823171 -3.38495e-08)
(-0.134096 -0.00272027 9.58408e-08)
(-0.136865 -0.0100418 -3.61523e-07)
(-0.141976 -0.023812 2.56646e-06)
(-0.147625 -0.0476509 1.11694e-05)
(-0.126703 0.0372648 -9.69183e-06)
(-0.114239 0.0160391 4.29248e-06)
(-0.106086 0.00710758 4.81022e-06)
(-0.101519 0.00330371 2.05696e-06)
(-0.0988979 0.0016437 1.0652e-06)
(-0.0973531 0.000911088 6.46961e-07)
(-0.0963778 0.000597539 4.07471e-07)
(-0.0956667 0.000493441 3.09452e-07)
(-0.0950353 0.000512214 2.97857e-07)
(-0.0943648 0.00061665 3.35317e-07)
(-0.0935749 0.000787672 4.02364e-07)
(-0.0926172 0.00100826 4.82124e-07)
(-0.0914837 0.00125016 5.44827e-07)
(-0.0902327 0.00145419 5.13953e-07)
(-0.0890447 0.00148979 2.91848e-07)
(-0.0883156 0.00106273 -7.01698e-08)
(-0.0887336 -0.000508675 -1.29532e-06)
(-0.0915732 -0.00484299 -5.9796e-06)
(-0.0992875 -0.0154567 -8.12086e-06)
(-0.113258 -0.040292 1.20668e-05)
(-0.0644898 0.0228094 -5.38647e-05)
(-0.0479238 0.00654999 -9.17983e-06)
(-0.04133 0.00199089 -6.69646e-07)
(-0.0389388 0.000633132 -1.47498e-06)
(-0.0378841 0.000214456 -9.59185e-07)
(-0.0373455 8.81565e-05 -4.51724e-07)
(-0.0370252 5.51976e-05 -2.5635e-07)
(-0.0367823 5.53809e-05 -1.82154e-07)
(-0.036543 7.22701e-05 -1.61691e-07)
(-0.0362587 0.000102771 -1.77933e-07)
(-0.0358903 0.000147807 -2.2007e-07)
(-0.0354036 0.000209423 -2.77582e-07)
(-0.0347705 0.000289275 -3.35682e-07)
(-0.0339774 0.000385474 -3.68315e-07)
(-0.033047 0.000482303 -2.84854e-07)
(-0.0320919 0.000518264 1.61216e-07)
(-0.0314577 0.000270072 6.00125e-07)
(-0.0320562 -0.00111571 -1.99415e-06)
(-0.0374971 -0.0063378 3.95516e-06)
(-0.0564026 -0.0254972 6.81765e-05)
(-0.0306646 0.000691594 -1.69429e-06)
(-0.0326397 0.000500629 -1.1867e-06)
(-0.0340473 0.000342249 -7.86982e-07)
(-0.035008 0.000224088 -4.98118e-07)
(-0.0356469 0.000143885 -3.06867e-07)
(-0.0360734 9.49937e-05 -1.91626e-07)
(-0.0363747 7.03238e-05 -1.31678e-07)
(-0.0366173 6.42389e-05 -1.11314e-07)
(-0.0368523 7.29061e-05 -1.19873e-07)
(-0.0371191 9.37994e-05 -1.50592e-07)
(-0.0374481 0.000124768 -1.98713e-07)
(-0.0378592 0.000162851 -2.59235e-07)
(-0.038358 0.00020293 -3.24552e-07)
(-0.0389276 0.000236312 -3.82004e-07)
(-0.0395176 0.000249533 -4.10591e-07)
(-0.0400315 0.000223996 -3.764e-07)
(-0.0403171 0.000137764 -2.36949e-07)
(-0.0401647 -2.87358e-05 3.39182e-08)
(-0.0393263 -0.000287341 5.10705e-07)
(-0.0375623 -0.000626647 1.22878e-06)
(-0.080188 0.00438867 1.50706e-06)
(-0.0850713 0.00324588 1.25874e-06)
(-0.0885813 0.00228742 9.96315e-07)
(-0.0910106 0.0015574 7.62029e-07)