/*--------------------------------*- C++ -*----------------------------------*\
| =========                 |                                                 |
| \\      /  F ield         | OpenFOAM: The Open Source CFD Toolbox           |
|  \\    /   O peration     | Version:  2.4.0                                 |
|   \\  /    A nd           | Web:      www.OpenFOAM.org                      |
|    \\/     M anipulation  |                                                 |
\*---------------------------------------------------------------------------*/
FoamFile
{
    version     2.0;
    format      ascii;
    class       volScalarField;
    location    "0.75";
    object      T;
}
// * * * * * * * * * * * * * * * * * * * * * * * * * * * * * * * * * * * * * //

dimensions      [0 0 0 1 0 0 0];

internalField   nonuniform List<scalar> 
1600
(
101.409
104.227
107.042
109.852
112.657
115.454
118.241
121.017
123.779
126.528
129.259
131.974
134.668
137.343
139.995
142.625
145.23
147.811
150.366
152.895
155.398
157.875
160.325
162.75
165.149
167.523
169.873
172.2
174.506
176.792
179.06
181.31
183.545
185.766
187.976
190.176
192.368
194.553
196.733
198.911
101.41
104.229
107.046
109.859
112.665
115.464
118.252
121.03
123.795
126.544
129.278
131.993
134.69
137.365
140.019
142.649
145.255
147.837
150.392
152.922
155.425
157.901
160.351
162.775
165.173
167.546
169.896
172.222
174.527
176.811
179.077
181.326
183.559
185.779
187.987
190.185
192.374
194.558
196.736
198.913
101.412
104.235
107.055
109.871
112.681
115.483
118.275
121.056
123.824
126.577
129.313
132.032
134.73
137.408
140.064
142.696
145.304
147.887
150.444
152.974
155.477
157.953
160.403
162.826
165.223
167.595
169.942
172.266
174.568
176.849
179.112
181.358
183.587
185.804
188.008
190.202
192.388
194.567
196.742
198.914
101.415
104.243
107.068
109.89
112.705
115.512
118.309
121.095
123.868
126.625
129.366
132.088
134.791
137.472
140.131
142.766
145.377
147.961
150.519
153.05
155.554
158.031
160.479
162.901
165.297
167.666
170.01
172.331
174.629
176.907
179.165
181.405
183.63
185.841
188.04
190.228
192.408
194.582
196.751
198.917
101.418
104.253
107.086
109.914
112.736
115.55
118.354
121.147
123.926
126.689
129.435
132.163
134.871
137.557
140.22
142.858
145.472
148.059
150.619
153.151
155.656
158.132
160.58
163.001
165.394
167.76
170.101
172.418
174.711
176.983
179.235
181.469
183.687
185.891
188.082
190.263
192.436
194.602
196.763
198.921
101.422
104.266
107.108
109.945
112.775
115.598
118.41
121.21
123.997
126.768
129.521
132.255
134.969
137.661
140.329
142.972
145.589
148.179
150.742
153.276
155.781
158.257
160.705
163.123
165.514
167.877
170.214
172.525
174.813
177.078
179.323
181.549
183.759
185.953
188.136
190.307
192.47
194.626
196.777
198.926
101.428
104.282
107.134
109.981
112.822
115.655
118.477
121.286
124.082
126.861
129.623
132.365
135.086
137.784
140.458
143.106
145.728
148.322
150.887
153.423
155.93
158.406
160.853
163.27
165.657
168.017
170.348
172.654
174.935
177.192
179.428
181.645
183.844
186.029
188.2
190.36
192.511
194.656
196.795
198.932
101.434
104.3
107.164
110.024
112.876
115.72
118.554
121.374
124.18
126.97
129.741
132.492
135.221
137.926
140.607
143.261
145.888
148.486
151.055
153.593
156.101
158.578
161.023
163.438
165.823
168.178
170.504
172.803
175.076
177.325
179.551
181.757
183.945
186.116
188.275
190.422
192.56
194.69
196.816
198.939
101.441
104.321
107.199
110.072
112.938
115.795
118.641
121.474
124.292
127.093
129.874
132.635
135.373
138.087
140.776
143.437
146.069
148.672
151.244
153.785
156.294
158.772
161.216
163.629
166.01
168.361
170.681
172.973
175.237
177.476
179.691
181.885
184.059
186.217
188.361
190.493
192.615
194.73
196.84
198.947
101.449
104.344
107.238
110.126
113.007
115.879
118.739
121.586
124.417
127.23
130.024
132.796
135.544
138.267
140.964
143.632
146.271
148.879
151.455
153.999
156.51
158.987
161.431
163.841
166.219
168.564
170.878
173.162
175.417
177.645
179.848
182.028
184.188
186.331
188.458
190.573
192.678
194.775
196.867
198.956
101.457
104.37
107.281
110.186
113.084
115.972
118.848
121.71
124.556
127.383
130.189
132.973
135.733
138.466
141.171
143.847
146.493
149.106
151.687
154.233
156.746
159.223
161.666
164.074
166.448
168.788
171.095
173.37
175.615
177.832
180.022
182.187
184.332
186.457
188.566
190.662
192.748
194.825
196.897
198.966
101.467
104.399
107.329
110.253
113.169
116.075
118.969
121.847
124.709
127.551
130.371
133.168
135.939
138.683
141.398
144.083
146.735
149.354
151.939
154.489
157.003
159.48
161.922
164.327
166.697
169.031
171.331
173.597
175.832
178.036
180.212
182.362
184.489
186.596
188.686
190.761
192.825
194.881
196.931
198.977
101.477
104.431
107.382
110.326
113.263
116.189
119.101
121.998
124.876
127.734
130.57
133.381
136.165
138.92
141.645
144.338
146.998
149.623
152.212
154.764
157.28
159.758
162.198
164.6
166.965
169.294
171.586
173.843
176.066
178.258
180.419
182.553
184.662
186.748
188.817
190.869
192.91
194.942
196.968
198.989
101.489
104.466
107.439
110.407
113.365
116.312
119.245
122.162
125.059
127.934
130.786
133.612
136.409
139.177
141.912
144.615
147.282
149.913
152.506
155.062
157.578
160.056
162.494
164.893
167.253
169.575
171.859
174.106
176.318
178.496
180.642
182.759
184.848
186.914
188.959
190.988
193.003
195.008
197.008
199.003
101.502
104.504
107.503
110.495
113.477
116.448
119.403
122.34
125.258
128.152
131.021
133.863
136.675
139.455
142.201
144.913
147.588
150.225
152.823
155.381
157.899
160.376
162.812
165.208
167.562
169.877
172.152
174.389
176.588
178.752
180.881
182.98
185.049
187.093
189.114
191.116
193.104
195.081
197.052
199.017
101.516
104.545
107.572
110.591
113.599
116.595
119.574
122.535
125.474
128.388
131.276
134.135
136.962
139.755
142.514
145.235
147.918
150.561
153.164
155.725
158.244
160.72
163.154
165.545
167.894
170.2
172.466
174.691
176.877
179.025
181.138
183.217
185.265
187.285
189.281
191.255
193.213
195.16
197.099
199.033
101.531
104.591
107.647
110.696
113.733
116.756
119.762
122.747
125.709
128.646
131.553
134.43
137.273
140.081
142.852
145.583
148.275
150.925
153.532
156.096
158.615
161.091
163.522
165.908
168.25
170.548
172.803
175.016
177.187
179.319
181.413
183.472
185.497
187.492
189.46
191.405
193.332
195.245
197.151
199.05
101.548
104.641
107.73
110.81
113.879
116.932
119.966
122.978
125.966
128.925
131.854
134.75
137.611
140.434
143.218
145.961
148.661
151.318
153.93
156.496
159.017
161.491
163.919
166.3
168.635
170.923
173.167
175.366
177.522
179.635
181.709
183.745
185.746
187.714
189.653
191.567
193.46
195.338
197.207
199.069
101.566
104.696
107.821
110.936
114.038
117.124
120.189
123.231
126.245
129.23
132.182
135.099
137.978
140.817
143.615
146.37
149.08
151.744
154.361
156.931
159.453
161.925
164.35
166.725
169.051
171.33
173.561
175.745
177.883
179.977
182.029
184.04
186.014
187.954
189.862
191.742
193.599
195.439
197.268
199.089
101.586
104.756
107.92
111.074
114.213
117.335
120.434
123.507
126.551
129.563
132.54
135.479
138.378
141.235
144.048
146.815
149.535
152.207
154.83
157.403
159.926
162.397
164.817
167.186
169.504
171.771
173.988
176.156
178.275
180.348
182.375
184.36
186.305
188.213
190.087
191.931
193.749
195.548
197.334
199.111
101.608
104.822
108.029
111.225
114.406
117.566
120.702
123.81
126.886
129.928
132.931
135.895
138.815
141.691
144.52
147.3
150.032
152.712
155.341
157.917
160.441
162.911
165.327
167.689
169.997
172.252
174.454
176.603
178.702
180.751
182.752
184.708
186.621
188.494
190.331
192.136
193.912
195.666
197.406
199.135
101.633
104.895
108.15
111.393
114.617
117.82
120.997
124.142
127.254
130.327
133.36
136.349
139.293
142.189
145.035
147.83
150.573
153.263
155.898
158.478
161.002
163.471
165.882
168.237
170.534
172.776
174.961
177.092
179.168
181.192
183.164
185.088
186.965
188.8
190.597
192.358
194.09
195.795
197.485
199.161
101.66
104.976
108.283
111.577
114.851
118.101
121.321
124.508
127.658
130.766
133.83
136.848
139.816
142.734
145.599
148.41
151.165
153.864
156.506
159.09
161.616
164.082
166.488
168.835
171.122
173.349
175.517
177.626
179.678
181.673
183.614
185.503
187.343
189.136
190.887
192.602
194.283
195.937
197.571
199.189
101.689
105.065
108.431
111.781
115.11
118.411
121.68
124.912
128.103
131.249
134.347
137.395
140.391
143.331
146.216
149.044
151.813
154.522
157.171
159.759
162.286
164.75
167.151
169.489
171.763
173.975
176.124
178.21
180.236
182.201
184.108
185.959
187.757
189.505
191.207
192.869
194.495
196.091
197.666
199.22
101.723
105.164
108.595
112.008
115.397
118.755
122.077
125.358
128.594
131.781
134.916
137.997
141.021
143.987
146.893
149.738
152.521
155.241
157.898
160.49
163.017
165.479
167.874
170.203
172.465
174.66
176.788
178.851
180.848
182.781
184.651
186.461
188.213
189.911
191.559
193.163
194.729
196.262
197.771
199.255
101.76
105.275
108.778
112.26
115.715
119.136
122.516
125.851
129.136
132.368
135.542
138.658
141.713
144.705
147.634
150.497
153.295
156.027
158.692
161.288
163.816
166.275
168.664
170.983
173.232
175.409
177.516
179.552
181.519
183.417
185.247
187.013
188.715
190.359
191.948
193.489
194.987
196.45
197.886
199.294
101.801
105.399
108.982
112.542
116.07
119.559
123.004
126.397
129.736
133.015
136.233
139.386
142.473
145.494
148.446
151.329
154.143
156.886
159.559
162.16
164.689
167.145
169.527
171.836
174.07
176.229
178.312
180.321
182.256
184.116
185.904
187.621
189.27
190.854
192.379
193.85
195.274
196.658
198.014
199.336
101.848
105.537
109.21
112.856
116.466
120.031
123.546
127.003
130.399
133.73
136.993
140.186
143.308
146.358
149.335
152.238
155.068
157.824
160.504
163.11
165.64
168.093
170.468
172.766
174.985
177.124
179.184
181.164
183.064
184.885
186.627
188.292
189.883
191.403
192.857
194.251
195.593
196.891
198.157
199.384
101.9
105.693
109.467
113.209
116.909
120.558
124.149
127.676
131.134
134.519
137.831
141.066
144.224
147.305
150.307
153.232
156.078
158.846
161.535
164.145
166.675
169.125
171.494
173.78
175.983
178.102
180.137
182.087
183.951
185.729
187.423
189.034
190.562
192.013
193.389
194.699
195.949
197.151
198.316
199.437
101.959
105.869
109.756
113.605
117.406
121.147
124.822
128.423
131.947
135.392
138.754
142.033
145.229
148.341
151.37
154.316
157.179
159.96
162.657
165.272
167.802
170.248
172.609
174.884
177.071
179.17
181.178
183.097
184.924
186.658
188.301
189.853
191.315
192.69
193.983
195.2
196.35
197.444
198.495
199.497
102.026
106.069
110.084
114.054
117.965
121.808
125.573
129.255
132.849
136.355
139.77
143.095
146.329
149.474
152.53
155.497
158.378
161.17
163.876
166.495
169.026
171.468
173.821
176.084
178.255
180.332
182.315
184.201
185.99
187.68
189.27
190.76
192.151
193.446
194.647
195.763
196.8
197.774
198.697
199.564
102.103
106.298
110.458
114.563
118.598
122.551
126.413
130.18
133.849
137.418
140.888
144.259
147.533
150.71
153.793
156.782
159.679
162.484
165.198
167.82
170.351
172.79
175.136
177.387
179.541
181.598
183.554
185.409
187.158
188.802
190.338
191.764
193.081
194.29
195.393
196.397
197.311
198.15
198.926
199.642
102.192
106.561
110.887
115.145
119.316
123.389
127.355
131.212
134.957
138.592
142.117
145.534
148.847
152.056
155.165
158.176
161.089
163.906
166.627
169.254
171.785
174.22
176.558
178.798
180.937
182.973
184.903
186.726
188.437
190.035
191.516
192.877
194.117
195.236
196.234
197.117
197.894
198.58
199.19
199.732
102.297
106.87
111.386
115.815
120.136
124.338
128.414
132.363
136.186
139.886
143.466
146.929
150.279
153.52
156.654
159.684
162.613
165.441
168.171
170.801
173.332
175.764
178.095
180.323
182.447
184.463
186.369
188.162
189.836
191.389
192.815
194.112
195.274
196.299
197.187
197.94
198.564
199.078
199.496
199.838
102.422
107.236
111.973
116.594
121.078
125.416
129.605
133.647
137.548
141.311
144.943
148.45
151.836
155.106
158.264
161.314
164.257
167.096
169.832
172.465
174.997
177.425
179.75
181.968
184.078
186.076
187.96
189.724
191.363
192.874
194.248
195.482
196.567
197.498
198.271
198.886
199.344
199.664
199.859
199.967
102.576
107.682
112.676
117.511
122.168
126.646
130.948
135.081
139.055
142.878
146.559
150.106
153.525
156.822
160.001
163.068
166.024
168.872
171.615
174.252
176.784
179.209
181.528
183.738
185.836
187.818
189.682
191.42
193.029
194.501
195.829
197.003
198.015
198.855
199.513
199.983
200.263
200.366
200.299
200.123
102.774
108.245
113.537
118.603
123.439
128.054
132.462
136.679
140.72
144.597
148.322
151.904
155.351
158.671
161.87
164.951
167.919
170.776
173.524
176.164
178.697
181.121
183.435
185.638
187.726
189.696
191.543
193.26
194.843
196.282
197.569
198.693
199.639
200.396
200.945
201.273
201.363
201.224
200.843
200.318
103.047
108.988
114.615
119.919
124.926
129.667
134.17
138.46
142.556
146.478
150.239
153.85
157.321
160.661
163.875
166.969
169.946
172.811
175.564
178.207
180.741
183.165
185.477
187.675
189.756
191.716
193.55
195.252
196.815
198.229
199.484
200.567
201.462
202.149
202.606
202.805
202.712
202.31
201.548
200.579
103.507
110.028
115.99
121.515
126.671
131.515
136.092
140.437
144.577
148.533
152.32
155.953
159.443
162.797
166.023
169.127
172.113
174.983
177.741
180.388
182.923
185.347
187.658
189.854
191.931
193.885
195.712
197.404
198.953
200.351
201.585
202.64
203.499
204.138
204.529
204.633
204.39
203.747
202.561
201.019
104.354
111.613
117.85
123.523
128.77
133.673
138.29
142.664
146.826
150.799
154.601
158.246
161.745
165.108
168.341
171.45
174.44
177.314
180.075
182.724
185.26
187.684
189.995
192.189
194.264
196.216
198.038
199.725
201.268
202.656
203.878
204.918
205.757
206.369
206.722
206.774
206.449
205.669
204.191
202.068
)
;

boundaryField
{
    carasuperior
    {
        type            fixedGradient;
        gradient        uniform 100;
    }
    lateralizquierda
    {
        type            fixedValue;
        value           uniform 100;
    }
    lateralderecha
    {
        type            fixedValue;
        value           uniform 200;
    }
    carainferior
    {
        type            zeroGradient;
    }
    frontAndBack
    {
        type            empty;
    }
}


// ************************************************************************* //
