/*--------------------------------*- C++ -*----------------------------------*\
| =========                 |                                                 |
| \\      /  F ield         | OpenFOAM: The Open Source CFD Toolbox           |
|  \\    /   O peration     | Version:  2.4.0                                 |
|   \\  /    A nd           | Web:      www.OpenFOAM.org                      |
|    \\/     M anipulation  |                                                 |
\*---------------------------------------------------------------------------*/
FoamFile
{
    version     2.0;
    format      ascii;
    class       volScalarField;
    location    "2.8";
    object      p;
}
// * * * * * * * * * * * * * * * * * * * * * * * * * * * * * * * * * * * * * //

dimensions      [0 2 -2 0 0 0 0];

internalField   nonuniform List<scalar> 
4800
(
3.57617e-06
-0.00158591
-0.00324945
-0.00447432
-0.00493806
-0.00449055
-0.00308536
-0.000726732
0.00253993
0.00661851
0.0015925
-2.9472e-05
-0.00121008
-0.00190441
-0.00198987
-0.0013571
4.07825e-05
0.00222021
0.00517014
0.00884341
0.00329513
0.00110259
-8.56614e-05
-0.000625602
-0.000585852
9.19253e-05
0.00143891
0.00348162
0.00624084
0.00971228
0.00443952
0.00159716
0.000236274
-0.00031863
-0.000293669
0.000325925
0.00156004
0.00345343
0.00607088
0.00946747
0.00447867
0.00112174
-0.000422061
-0.00106507
-0.00114771
-0.000680992
0.000361263
0.00206224
0.00455831
0.00801092
0.00305048
-0.000612343
-0.00230609
-0.00308712
-0.0033639
-0.00315373
-0.00240189
-0.00095984
0.00142172
0.00511461
-1.93306e-05
-0.00375042
-0.00553924
-0.00649373
-0.00704763
-0.00720946
-0.0068757
-0.00580655
-0.0035938
0.000562308
-0.00473454
-0.00829509
-0.0101153
-0.0112677
-0.0121765
-0.0128365
-0.0130857
-0.0125817
-0.0107413
-0.00592418
-0.0109293
-0.0141098
-0.0158968
-0.0172552
-0.0185755
-0.0198477
-0.0208574
-0.0211638
-0.0200875
-0.0144369
-0.0182924
-0.0209369
-0.022628
-0.0241715
-0.0259155
-0.0278804
-0.0298672
-0.0314403
-0.0323605
-0.0279271
4.88689e-06
-0.00160647
-0.00328062
-0.00451443
-0.00498346
-0.0045381
-0.00313296
-0.000772523
0.00249832
0.00658372
0.00161043
-3.38782e-05
-0.00119267
-0.00187695
-0.00195736
-0.00132132
7.71369e-05
0.00225358
0.00519931
0.00886856
0.00332555
0.00107671
-8.68391e-05
-0.000624516
-0.000587195
9.07056e-05
0.00143764
0.00347959
0.00623801
0.00971054
0.00448352
0.00156063
0.00023641
-0.00031542
-0.000294675
0.000324448
0.00155811
0.00345027
0.00606542
0.00946266
0.00453229
0.00107875
-0.000417228
-0.00105453
-0.00114136
-0.000674915
0.00036669
0.00206541
0.00455483
0.00800415
0.00310848
-0.000660025
-0.00229981
-0.00307376
-0.00335464
-0.00314451
-0.00239287
-0.0009526
0.00141574
0.00509584
3.73216e-05
-0.00379952
-0.00553257
-0.00647914
-0.00703649
-0.00719787
-0.00686285
-0.00579114
-0.00360165
0.000514677
-0.00468104
-0.00834201
-0.0101092
-0.0112535
-0.0121649
-0.0128246
-0.0130723
-0.0125578
-0.0107644
-0.00609006
-0.0108844
-0.0141522
-0.0158925
-0.0172433
-0.0185646
-0.0198357
-0.0208413
-0.0211077
-0.0200709
-0.0148093
-0.0182597
-0.0209735
-0.0226273
-0.0241647
-0.0259083
-0.0278697
-0.0298444
-0.0313001
-0.032033
-0.0280385
5.49308e-06
-0.0016061
-0.0032804
-0.00451429
-0.00498338
-0.00453805
-0.00313293
-0.000772509
0.00249833
0.00658372
0.00161079
-3.36182e-05
-0.00119249
-0.00187683
-0.00195728
-0.00132127
7.71607e-05
0.00225359
0.00519931
0.00886856
0.00332578
0.0010769
-8.67035e-05
-0.000624424
-0.000587135
9.07407e-05
0.00143766
0.0034796
0.00623801
0.00971054
0.00448366
0.00156076
0.000236501
-0.000315357
-0.000294632
0.000324473
0.00155813
0.00345027
0.00606542
0.00946266
0.00453236
0.00107882
-0.000417174
-0.00105449
-0.00114133
-0.000674901
0.000366696
0.00206541
0.00455483
0.00800415
0.00310851
-0.000659986
-0.00229978
-0.00307374
-0.00335463
-0.00314451
-0.00239287
-0.000952601
0.00141574
0.00509584
3.73363e-05
-0.0037995
-0.00553256
-0.00647913
-0.00703648
-0.00719787
-0.00686285
-0.00579114
-0.00360165
0.000514674
-0.00468104
-0.00834201
-0.0101092
-0.0112535
-0.0121649
-0.0128246
-0.0130723
-0.0125578
-0.0107644
-0.00609007
-0.0108844
-0.0141522
-0.0158925
-0.0172433
-0.0185646
-0.0198357
-0.0208413
-0.0211077
-0.0200709
-0.0148093
-0.0182597
-0.0209735
-0.0226273
-0.0241647
-0.0259083
-0.0278697
-0.0298444
-0.0313001
-0.032033
-0.0280385
6.82195e-06
-0.00158467
-0.00324881
-0.00447394
-0.00493784
-0.00449042
-0.0030853
-0.000726702
0.00253994
0.00661851
0.00159371
-2.87075e-05
-0.00120958
-0.00190409
-0.00198967
-0.00135699
4.08401e-05
0.00222023
0.00517015
0.00884341
0.00329575
0.00110309
-8.53016e-05
-0.000625363
-0.000585705
9.20135e-05
0.00143896
0.00348163
0.00624085
0.00971228
0.00443989
0.00159747
0.000236512
-0.000318468
-0.000293566
0.000325989
0.00156008
0.00345344
0.00607087
0.00946746
0.00447888
0.00112192
-0.000421916
-0.00106497
-0.00114765
-0.000680953
0.000361281
0.00206224
0.0045583
0.00801091
0.00305059
-0.000612247
-0.00230601
-0.00308707
-0.00336387
-0.00315371
-0.00240188
-0.000959847
0.00142171
0.0051146
-1.92835e-05
-0.00375037
-0.00553921
-0.00649371
-0.00704762
-0.00720946
-0.0068757
-0.00580657
-0.00359382
0.000562294
-0.00473452
-0.00829508
-0.0101153
-0.0112677
-0.0121765
-0.0128365
-0.0130857
-0.0125817
-0.0107413
-0.00592419
-0.0109293
-0.0141098
-0.0158968
-0.0172552
-0.0185756
-0.0198477
-0.0208574
-0.0211639
-0.0200875
-0.0144369
-0.0182924
-0.0209369
-0.022628
-0.0241715
-0.0259156
-0.0278804
-0.0298673
-0.0314403
-0.0323605
-0.0279271
0.0113561
0.0165656
0.0220784
0.0277668
0.0335466
0.0393685
0.0452089
0.0510624
0.0569369
0.0628522
0.0688403
0.0749463
0.0812288
0.0877576
0.0946081
0.101848
0.109515
0.117592
0.125961
0.134386
0.013143
0.017931
0.0230776
0.0284756
0.0340425
0.0397207
0.0454744
0.051285
0.057149
0.0630754
0.0690854
0.0752108
0.0814935
0.0879821
0.0947258
0.101765
0.109116
0.116746
0.124558
0.132361
0.0138301
0.0184557
0.023466
0.0287583
0.0342487
0.0398757
0.0455977
0.0513905
0.057244
0.0631609
0.0691541
0.0752465
0.0814692
0.0878591
0.0944553
0.101293
0.10839
0.115736
0.123264
0.13083
0.0136019
0.0182723
0.0233333
0.0286737
0.0342046
0.0398629
0.045607
0.0514121
0.0572662
0.0631679
0.0691239
0.0751487
0.0812639
0.0874975
0.0938839
0.100462
0.107272
0.114341
0.121666
0.129174
0.012417
0.0173796
0.0226977
0.0282472
0.0339354
0.0397051
0.0455233
0.0513718
0.0572415
0.0631298
0.0690382
0.0749726
0.0809435
0.0869688
0.0930769
0.0993144
0.105747
0.112463
0.119552
0.127085
0.0102267
0.0158313
0.0216499
0.027572
0.0335201
0.0394626
0.0453905
0.0513018
0.0571964
0.0630729
0.0689287
0.0747599
0.080564
0.0863439
0.0921168
0.0979292
0.103875
0.110107
0.116852
0.124449
0.00716149
0.0138924
0.0204584
0.0268706
0.0331226
0.0392481
0.0452835
0.0512528
0.0571684
0.0630317
0.0688352
0.074564
0.080199
0.0857226
0.0911294
0.0964498
0.101794
0.107371
0.113571
0.121238
0.00363228
0.0120851
0.0195499
0.0264485
0.0329423
0.039184
0.0452758
0.0512705
0.0571901
0.0630363
0.0687944
0.0744365
0.0799242
0.085213
0.0902628
0.0950688
0.0997347
0.104485
0.109835
0.117433
0.00167307
0.0120781
0.0198566
0.0267817
0.0332135
0.0393843
0.0454264
0.0513922
0.0572954
0.0631277
0.0688629
0.0744575
0.0798502
0.0849622
0.0896999
0.0939872
0.0978746
0.10138
0.104854
0.111191
0.00621501
0.0173787
0.0230095
0.0285354
0.034195
0.0399511
0.0457841
0.0516571
0.0575336
0.0633767
0.0691412
0.0747646
0.080157
0.0851897
0.0896779
0.0933621
0.0958912
0.0969753
0.0958182
0.0974573
0.0113299
0.0165473
0.0220662
0.0277592
0.0335419
0.0393655
0.0452069
0.0510607
0.0569351
0.0628499
0.0688373
0.0749424
0.0812238
0.0877518
0.0946018
0.101842
0.109511
0.117593
0.125969
0.134405
0.0131652
0.0179495
0.0230923
0.0284868
0.0340508
0.039727
0.0454793
0.0512893
0.0571531
0.0630798
0.0690903
0.0752162
0.0814991
0.0879871
0.0947291
0.101765
0.10911
0.116733
0.124536
0.13233
0.0138328
0.0184604
0.0234713
0.0287632
0.034253
0.0398791
0.0456003
0.0513925
0.0572456
0.0631621
0.0691551
0.0752474
0.0814698
0.0878593
0.0944549
0.101291
0.108388
0.115732
0.123258
0.130825
0.0136062
0.0182794
0.0233403
0.0286799
0.0342096
0.0398665
0.0456096
0.0514139
0.0572675
0.0631687
0.0691245
0.0751491
0.0812642
0.0874977
0.0938838
0.100462
0.107271
0.114338
0.12166
0.129169
0.0124288
0.0173928
0.0227084
0.0282556
0.0339413
0.039709
0.0455258
0.0513733
0.0572426
0.0631305
0.0690388
0.0749732
0.0809443
0.0869697
0.0930777
0.0993143
0.105746
0.11246
0.119542
0.12707
0.010252
0.0158528
0.0216634
0.0275811
0.0335254
0.0394654
0.0453919
0.0513025
0.0571967
0.0630731
0.0689288
0.0747602
0.0805645
0.0863448
0.0921179
0.0979298
0.103875
0.110105
0.116834
0.124412
0.00722878
0.0139368
0.0204789
0.0268813
0.0331272
0.0392495
0.0452836
0.0512526
0.0571681
0.0630316
0.0688353
0.0745644
0.0801998
0.0857239
0.0911311
0.0964507
0.101792
0.107365
0.113528
0.121135
0.00374662
0.0121315
0.0195593
0.0264521
0.0329418
0.0391821
0.045274
0.051269
0.0571889
0.0630353
0.0687935
0.0744358
0.0799238
0.0852133
0.0902643
0.0950693
0.0997333
0.10449
0.109797
0.117268
0.00181597
0.0120148
0.0197858
0.0267515
0.0331979
0.0393748
0.0454205
0.0513877
0.0572911
0.0631229
0.0688571
0.0744505
0.0798423
0.0849548
0.0896958
0.0939883
0.0978937
0.101467
0.104973
0.111014
0.00705119
0.0175206
0.0230196
0.0285582
0.0342098
0.039958
0.0457881
0.0516599
0.057536
0.0633794
0.0691446
0.0747688
0.0801621
0.0851953
0.0896822
0.0933595
0.0958819
0.0970061
0.0957566
0.0964011
0.0113299
0.0165473
0.0220662
0.0277592
0.0335419
0.0393655
0.0452069
0.0510607
0.0569351
0.0628499
0.0688373
0.0749424
0.0812238
0.0877518
0.0946018
0.101842
0.109511
0.117593
0.125969
0.134405
0.0131652
0.0179495
0.0230923
0.0284868
0.0340508
0.039727
0.0454793
0.0512893
0.0571531
0.0630798
0.0690903
0.0752162
0.0814991
0.0879871
0.0947291
0.101765
0.10911
0.116733
0.124536
0.13233
0.0138328
0.0184604
0.0234713
0.0287632
0.034253
0.0398791
0.0456003
0.0513925
0.0572456
0.0631621
0.0691551
0.0752474
0.0814698
0.0878593
0.0944549
0.101291
0.108388
0.115732
0.123258
0.130825
0.0136062
0.0182794
0.0233403
0.0286799
0.0342096
0.0398665
0.0456096
0.0514139
0.0572675
0.0631687
0.0691245
0.0751491
0.0812642
0.0874977
0.0938838
0.100462
0.107271
0.114338
0.12166
0.129169
0.0124288
0.0173928
0.0227084
0.0282556
0.0339413
0.039709
0.0455258
0.0513733
0.0572426
0.0631305
0.0690388
0.0749732
0.0809443
0.0869697
0.0930777
0.0993143
0.105746
0.11246
0.119542
0.12707
0.010252
0.0158528
0.0216634
0.0275811
0.0335254
0.0394654
0.0453919
0.0513025
0.0571967
0.0630731
0.0689288
0.0747602
0.0805645
0.0863448
0.0921179
0.0979298
0.103875
0.110105
0.116834
0.124412
0.00722878
0.0139368
0.0204789
0.0268813
0.0331272
0.0392495
0.0452836
0.0512526
0.0571681
0.0630316
0.0688353
0.0745644
0.0801998
0.0857239
0.0911311
0.0964507
0.101792
0.107365
0.113528
0.121135
0.00374662
0.0121315
0.0195593
0.0264521
0.0329418
0.0391821
0.045274
0.051269
0.0571889
0.0630353
0.0687935
0.0744358
0.0799238
0.0852133
0.0902643
0.0950693
0.0997333
0.10449
0.109797
0.117268
0.00181597
0.0120148
0.0197858
0.0267515
0.0331979
0.0393748
0.0454205
0.0513877
0.0572911
0.0631229
0.0688571
0.0744505
0.0798423
0.0849548
0.0896958
0.0939883
0.0978937
0.101467
0.104973
0.111014
0.0070512
0.0175206
0.0230196
0.0285582
0.0342098
0.039958
0.0457881
0.0516599
0.057536
0.0633794
0.0691446
0.0747688
0.0801621
0.0851953
0.0896822
0.0933595
0.0958819
0.0970061
0.0957566
0.0964011
0.0113561
0.0165656
0.0220783
0.0277668
0.0335466
0.0393685
0.0452089
0.0510624
0.0569369
0.0628522
0.0688403
0.0749463
0.0812288
0.0877576
0.0946081
0.101848
0.109515
0.117592
0.125961
0.134386
0.013143
0.017931
0.0230776
0.0284756
0.0340425
0.0397207
0.0454744
0.051285
0.057149
0.0630755
0.0690854
0.0752108
0.0814935
0.0879821
0.0947258
0.101765
0.109116
0.116746
0.124558
0.132361
0.0138301
0.0184556
0.023466
0.0287583
0.0342487
0.0398757
0.0455977
0.0513905
0.057244
0.0631609
0.0691541
0.0752465
0.0814692
0.0878591
0.0944553
0.101293
0.10839
0.115736
0.123264
0.13083
0.0136019
0.0182723
0.0233333
0.0286737
0.0342046
0.0398629
0.045607
0.0514121
0.0572662
0.0631679
0.0691239
0.0751487
0.0812639
0.0874975
0.0938839
0.100462
0.107272
0.114341
0.121666
0.129174
0.012417
0.0173796
0.0226976
0.0282472
0.0339354
0.0397051
0.0455233
0.0513718
0.0572415
0.0631298
0.0690382
0.0749726
0.0809435
0.0869688
0.0930769
0.0993144
0.105747
0.112463
0.119552
0.127085
0.0102267
0.0158313
0.0216499
0.027572
0.0335201
0.0394626
0.0453905
0.0513018
0.0571964
0.0630729
0.0689287
0.0747599
0.080564
0.0863439
0.0921168
0.0979292
0.103875
0.110107
0.116852
0.124449
0.00716148
0.0138924
0.0204584
0.0268706
0.0331226
0.0392481
0.0452835
0.0512528
0.0571684
0.0630317
0.0688352
0.074564
0.080199
0.0857226
0.0911294
0.0964498
0.101794
0.107371
0.113571
0.121238
0.00363227
0.0120851
0.0195499
0.0264485
0.0329423
0.039184
0.0452758
0.0512705
0.0571901
0.0630363
0.0687944
0.0744365
0.0799242
0.085213
0.0902628
0.0950688
0.0997348
0.104485
0.109835
0.117433
0.00167306
0.0120781
0.0198566
0.0267817
0.0332135
0.0393843
0.0454264
0.0513922
0.0572954
0.0631277
0.0688629
0.0744575
0.0798502
0.0849622
0.0896999
0.0939872
0.0978746
0.10138
0.104854
0.111191
0.00621502
0.0173787
0.0230094
0.0285354
0.034195
0.0399511
0.0457841
0.0516571
0.0575336
0.0633767
0.0691412
0.0747646
0.080157
0.0851897
0.0896779
0.0933622
0.0958913
0.0969753
0.0958182
0.0974573
0.142502
0.149867
0.156064
0.160782
0.163857
0.165289
0.165252
0.164109
0.162406
0.160818
0.13986
0.146688
0.152505
0.157052
0.160194
0.161931
0.162408
0.161915
0.160783
0.159225
0.138169
0.144901
0.150685
0.155263
0.1585
0.160387
0.161047
0.160726
0.159601
0.15756
0.136625
0.143542
0.149531
0.154308
0.157718
0.159744
0.160493
0.160187
0.158908
0.156335
0.134881
0.142221
0.148621
0.153753
0.157441
0.159662
0.160519
0.160228
0.158824
0.155872
0.132915
0.140947
0.147959
0.15359
0.157651
0.160129
0.161141
0.160909
0.15946
0.156323
0.130927
0.139934
0.147707
0.153921
0.158402
0.161173
0.162378
0.162261
0.160864
0.157733
0.129352
0.139624
0.148207
0.154987
0.159843
0.162875
0.164276
0.164311
0.163052
0.160101
0.12843
0.140694
0.15004
0.157195
0.162223
0.165374
0.1669
0.16708
0.166015
0.163382
0.132858
0.146332
0.154845
0.161344
0.165914
0.16883
0.170306
0.170566
0.169706
0.167482
0.142535
0.149912
0.156118
0.160841
0.163915
0.165342
0.165296
0.164139
0.162424
0.160817
0.139823
0.146646
0.152458
0.157004
0.160146
0.161888
0.162372
0.161889
0.160778
0.159204
0.13817
0.144905
0.150691
0.15527
0.158506
0.160392
0.161047
0.160725
0.159619
0.157528
0.136632
0.143554
0.149546
0.154323
0.157732
0.159754
0.160496
0.160188
0.158935
0.156294
0.134888
0.142232
0.148633
0.153765
0.157451
0.159668
0.160518
0.160227
0.158856
0.155827
0.132926
0.140959
0.147971
0.153602
0.15766
0.160135
0.161139
0.160908
0.159496
0.156275
0.13095
0.139951
0.14772
0.153934
0.158411
0.161178
0.162376
0.16226
0.1609
0.157685
0.129492
0.13968
0.14823
0.155003
0.15985
0.162878
0.164273
0.164309
0.163085
0.160055
0.128757
0.14071
0.150017
0.157187
0.162217
0.165371
0.166895
0.167077
0.166044
0.16334
0.132747
0.14596
0.15468
0.161296
0.165895
0.168824
0.170301
0.170564
0.169731
0.167447
0.142535
0.149912
0.156118
0.160841
0.163915
0.165342
0.165296
0.164139
0.162424
0.160817
0.139823
0.146646
0.152458
0.157004
0.160146
0.161888
0.162372
0.161889
0.160778
0.159204
0.13817
0.144905
0.150691
0.15527
0.158506
0.160392
0.161047
0.160725
0.159619
0.157528
0.136632
0.143554
0.149546
0.154323
0.157732
0.159754
0.160496
0.160188
0.158935
0.156294
0.134888
0.142232
0.148633
0.153765
0.157451
0.159668
0.160518
0.160227
0.158856
0.155827
0.132926
0.140959
0.147971
0.153602
0.15766
0.160135
0.161139
0.160908
0.159496
0.156275
0.13095
0.139951
0.14772
0.153934
0.158411
0.161178
0.162376
0.16226
0.1609
0.157685
0.129492
0.13968
0.14823
0.155003
0.15985
0.162878
0.164273
0.164309
0.163085
0.160055
0.128757
0.14071
0.150017
0.157187
0.162217
0.165371
0.166895
0.167077
0.166044
0.16334
0.132747
0.14596
0.15468
0.161296
0.165895
0.168824
0.170301
0.170564
0.169731
0.167447
0.142502
0.149867
0.156064
0.160782
0.163857
0.165289
0.165252
0.164109
0.162406
0.160818
0.139859
0.146688
0.152505
0.157052
0.160194
0.161931
0.162408
0.161915
0.160783
0.159225
0.138169
0.144901
0.150685
0.155263
0.1585
0.160387
0.161047
0.160726
0.159601
0.15756
0.136625
0.143542
0.149531
0.154308
0.157718
0.159744
0.160493
0.160187
0.158908
0.156335
0.134881
0.142221
0.148621
0.153753
0.157441
0.159662
0.160519
0.160228
0.158824
0.155872
0.132915
0.140947
0.147959
0.15359
0.157651
0.160129
0.161141
0.160909
0.15946
0.156322
0.130927
0.139934
0.147707
0.153921
0.158402
0.161173
0.162378
0.162261
0.160864
0.157733
0.129352
0.139624
0.148207
0.154987
0.159843
0.162875
0.164276
0.164311
0.163052
0.160101
0.12843
0.140694
0.15004
0.157195
0.162223
0.165374
0.1669
0.16708
0.166015
0.163382
0.132858
0.146332
0.154845
0.161344
0.165914
0.16883
0.170306
0.170566
0.169706
0.167482
0.166953
0.162411
0.16438
0.16793
0.171022
0.173241
0.174452
0.174702
0.17403
0.172251
0.178057
0.172775
0.172806
0.174645
0.176622
0.178209
0.179138
0.179351
0.17885
0.177503
0.183624
0.180509
0.180241
0.181194
0.182436
0.183533
0.184215
0.184387
0.184034
0.183071
0.189079
0.18739
0.18711
0.18759
0.188353
0.189088
0.189571
0.189706
0.189472
0.188826
0.194663
0.193783
0.193583
0.193831
0.194298
0.19478
0.195112
0.195215
0.195075
0.194678
0.20035
0.199932
0.199823
0.199959
0.200242
0.200549
0.200768
0.200845
0.200774
0.200566
0.206142
0.20599
0.205949
0.206022
0.20618
0.206357
0.206486
0.206535
0.206511
0.206448
0.212024
0.212048
0.21204
0.21206
0.212116
0.212181
0.212225
0.212236
0.212237
0.212288
0.218026
0.218157
0.218154
0.218109
0.218058
0.218004
0.217949
0.217904
0.217908
0.21804
0.224184
0.224376
0.224343
0.224201
0.224013
0.22381
0.223628
0.223497
0.223472
0.223655
0.230564
0.230766
0.230654
0.230365
0.229988
0.229588
0.22923
0.22897
0.228878
0.229068
0.237258
0.237395
0.237133
0.236628
0.235991
0.235323
0.234726
0.234281
0.234068
0.234204
0.244385
0.244332
0.243823
0.243009
0.242023
0.241004
0.240093
0.239393
0.23899
0.238978
0.252088
0.251636
0.250746
0.249513
0.248078
0.24662
0.245313
0.244285
0.243602
0.243305
0.260549
0.259318
0.257878
0.256108
0.254129
0.252158
0.250391
0.24896
0.247895
0.247113
0.269878
0.267351
0.265104
0.262685
0.260109
0.257604
0.255353
0.253469
0.251899
0.250388
0.280141
0.275402
0.272082
0.268979
0.265859
0.262911
0.26025
0.257921
0.255737
0.253174
0.291008
0.282708
0.278107
0.274471
0.27106
0.267968
0.265149
0.262504
0.259634
0.255643
0.302454
0.288285
0.282009
0.278214
0.275104
0.272513
0.270092
0.267482
0.263966
0.258139
0.31353
0.288583
0.280596
0.278041
0.276731
0.275977
0.275034
0.273197
0.2693
0.261266
0.167789
0.162553
0.164495
0.167998
0.171048
0.173253
0.174457
0.174705
0.174052
0.172225
0.178199
0.172712
0.172852
0.17469
0.176644
0.178223
0.179144
0.179355
0.178868
0.177485
0.183634
0.180439
0.18025
0.181214
0.182449
0.183544
0.184222
0.184392
0.184048
0.183059
0.189101
0.187361
0.187114
0.1876
0.188362
0.189097
0.189577
0.18971
0.189482
0.188818
0.194677
0.193769
0.193583
0.193836
0.194303
0.194786
0.195117
0.195219
0.195082
0.194674
0.200356
0.199925
0.199822
0.199961
0.200245
0.200552
0.200772
0.200847
0.200777
0.200565
0.206144
0.205988
0.205948
0.206022
0.206182
0.206359
0.206489
0.206536
0.206512
0.206448
0.212024
0.212049
0.212039
0.21206
0.212117
0.212183
0.212227
0.212237
0.212236
0.212289
0.218024
0.21816
0.218154
0.218109
0.218058
0.218004
0.21795
0.217905
0.217905
0.218042
0.22418
0.22438
0.224343
0.2242
0.224012
0.223811
0.223629
0.223497
0.223468
0.223658
0.230559
0.230771
0.230653
0.230364
0.229988
0.229588
0.22923
0.22897
0.228873
0.229073
0.237252
0.237399
0.237132
0.236626
0.23599
0.235323
0.234727
0.234281
0.234064
0.23421
0.244379
0.244333
0.243821
0.243007
0.242022
0.241003
0.240093
0.239394
0.238988
0.238983
0.252084
0.251631
0.250742
0.24951
0.248075
0.246618
0.245313
0.244286
0.243604
0.243309
0.260548
0.2593
0.257872
0.256104
0.254125
0.252157
0.250391
0.248963
0.247904
0.247114
0.269891
0.267313
0.265097
0.262682
0.260105
0.257602
0.255353
0.253474
0.251921
0.250383
0.280192
0.275333
0.272076
0.268979
0.265853
0.262909
0.260251
0.257929
0.255776
0.25316
0.291075
0.282535
0.278083
0.274468
0.271053
0.267968
0.265151
0.262517
0.259698
0.255614
0.302571
0.28796
0.282014
0.278257
0.275119
0.272526
0.2701
0.267503
0.264064
0.25809
0.314863
0.288689
0.280891
0.278225
0.276799
0.276011
0.275049
0.273227
0.269442
0.26119
0.167789
0.162553
0.164495
0.167998
0.171048
0.173253
0.174457
0.174705
0.174052
0.172225
0.178199
0.172712
0.172852
0.17469
0.176644
0.178223
0.179144
0.179355
0.178868
0.177485
0.183634
0.180439
0.18025
0.181214
0.182449
0.183544
0.184222
0.184392
0.184048
0.183059
0.189101
0.187361
0.187114
0.1876
0.188362
0.189097
0.189577
0.18971
0.189482
0.188818
0.194677
0.193769
0.193583
0.193836
0.194303
0.194786
0.195117
0.195219
0.195082
0.194674
0.200356
0.199925
0.199822
0.199961
0.200245
0.200552
0.200772
0.200847
0.200777
0.200565
0.206144
0.205988
0.205948
0.206022
0.206182
0.206359
0.206489
0.206536
0.206512
0.206448
0.212024
0.212049
0.212039
0.21206
0.212117
0.212183
0.212227
0.212237
0.212236
0.212289
0.218024
0.21816
0.218154
0.218109
0.218058
0.218004
0.21795
0.217905
0.217905
0.218042
0.22418
0.22438
0.224343
0.2242
0.224012
0.223811
0.223629
0.223497
0.223468
0.223658
0.230559
0.230771
0.230653
0.230364
0.229988
0.229588
0.22923
0.22897
0.228873
0.229073
0.237252
0.237399
0.237132
0.236626
0.23599
0.235323
0.234727
0.234281
0.234064
0.23421
0.244379
0.244333
0.243821
0.243007
0.242022
0.241003
0.240093
0.239394
0.238988
0.238983
0.252084
0.251631
0.250742
0.24951
0.248075
0.246618
0.245313
0.244286
0.243604
0.243309
0.260548
0.2593
0.257872
0.256104
0.254125
0.252157
0.250391
0.248963
0.247904
0.247114
0.269891
0.267313
0.265097
0.262682
0.260105
0.257602
0.255353
0.253474
0.251921
0.250383
0.280192
0.275333
0.272076
0.268979
0.265853
0.262909
0.260251
0.257929
0.255776
0.25316
0.291075
0.282535
0.278083
0.274468
0.271053
0.267968
0.265151
0.262517
0.259698
0.255614
0.302571
0.28796
0.282014
0.278257
0.275119
0.272526
0.2701
0.267503
0.264064
0.258091
0.314863
0.288689
0.280891
0.278225
0.276799
0.276011
0.275049
0.273227
0.269442
0.26119
0.166953
0.162411
0.16438
0.16793
0.171022
0.173241
0.174452
0.174702
0.17403
0.172251
0.178057
0.172775
0.172806
0.174645
0.176622
0.178209
0.179138
0.179351
0.17885
0.177503
0.183624
0.180509
0.180241
0.181194
0.182436
0.183533
0.184215
0.184387
0.184034
0.183071
0.189079
0.18739
0.18711
0.18759
0.188353
0.189088
0.189571
0.189706
0.189472
0.188826
0.194663
0.193783
0.193583
0.193831
0.194298
0.19478
0.195112
0.195215
0.195075
0.194678
0.20035
0.199932
0.199823
0.199959
0.200242
0.200549
0.200768
0.200845
0.200774
0.200566
0.206142
0.20599
0.205949
0.206022
0.20618
0.206357
0.206486
0.206535
0.206511
0.206448
0.212024
0.212048
0.21204
0.21206
0.212116
0.212181
0.212225
0.212236
0.212237
0.212288
0.218026
0.218157
0.218154
0.218109
0.218058
0.218004
0.217949
0.217904
0.217908
0.21804
0.224184
0.224376
0.224343
0.224201
0.224013
0.22381
0.223628
0.223497
0.223472
0.223655
0.230564
0.230766
0.230654
0.230365
0.229988
0.229588
0.22923
0.22897
0.228878
0.229068
0.237258
0.237395
0.237133
0.236628
0.235991
0.235323
0.234727
0.234281
0.234068
0.234204
0.244385
0.244332
0.243823
0.243009
0.242023
0.241004
0.240093
0.239393
0.23899
0.238978
0.252088
0.251636
0.250746
0.249513
0.248078
0.24662
0.245313
0.244285
0.243602
0.243305
0.260549
0.259318
0.257878
0.256108
0.254129
0.252158
0.250391
0.24896
0.247895
0.247113
0.269878
0.267351
0.265104
0.262685
0.260109
0.257604
0.255353
0.253469
0.251899
0.250388
0.280141
0.275402
0.272082
0.268979
0.265859
0.262911
0.26025
0.257921
0.255737
0.253174
0.291008
0.282708
0.278107
0.274471
0.27106
0.267968
0.265149
0.262504
0.259634
0.255643
0.302454
0.288285
0.282009
0.278214
0.275104
0.272513
0.270092
0.267482
0.263966
0.258139
0.31353
0.288583
0.280597
0.278041
0.276731
0.275977
0.275034
0.273197
0.2693
0.261266
0.252931
0.261558
0.266832
0.270946
0.274509
0.277755
0.279964
0.280136
0.276486
0.26601
0.223809
0.239657
0.250904
0.260462
0.269545
0.278193
0.285263
0.289087
0.286792
0.27394
0.206348
0.221696
0.235067
0.24857
0.263028
0.277994
0.291633
0.3012
0.302049
0.287511
0.192841
0.206684
0.220877
0.237296
0.256725
0.27854
0.300381
0.318236
0.32495
0.310668
0.183003
0.195647
0.210305
0.229047
0.253028
0.281972
0.313555
0.342769
0.359473
0.349874
0.177091
0.189409
0.204884
0.225936
0.254354
0.290722
0.333644
0.378095
0.411207
0.415243
0.174924
0.187976
0.205032
0.228885
0.262085
0.306508
0.362728
0.427434
0.486665
0.521105
0.175623
0.190149
0.20936
0.236439
0.274847
0.328232
0.400263
0.49102
0.590816
0.694641
0.177552
0.193206
0.213856
0.242983
0.285009
0.345837
0.433781
0.557075
0.725899
1.00574
0.178927
0.194083
0.213548
0.240696
0.280223
0.339488
0.432486
0.586746
0.873089
1.4902
0.253269
0.261091
0.266705
0.270935
0.274507
0.277764
0.279968
0.28017
0.276682
0.265898
0.22423
0.239587
0.25084
0.260428
0.269523
0.278187
0.285255
0.289123
0.287055
0.273787
0.206605
0.221715
0.235036
0.248529
0.262988
0.277967
0.291602
0.301234
0.302389
0.287316
0.192931
0.206668
0.220825
0.237228
0.256651
0.278473
0.300306
0.318252
0.325361
0.310429
0.18303
0.195614
0.210235
0.22895
0.252914
0.28185
0.313416
0.342745
0.359907
0.349619
0.177099
0.189372
0.204805
0.225816
0.254195
0.290522
0.333401
0.377977
0.411563
0.415195
0.174939
0.187954
0.204965
0.228762
0.261888
0.306195
0.362296
0.4271
0.486642
0.521594
0.175667
0.190183
0.209381
0.236439
0.274795
0.328031
0.399886
0.490678
0.589512
0.694321
0.17762
0.193319
0.214041
0.243273
0.285439
0.346397
0.434523
0.557677
0.722666
1.00345
0.178977
0.194123
0.213567
0.2407
0.280237
0.339563
0.432843
0.58718
0.8694
1.49945
0.253269
0.261091
0.266705
0.270935
0.274507
0.277764
0.279968
0.28017
0.276682
0.265898
0.22423
0.239587
0.25084
0.260428
0.269523
0.278187
0.285255
0.289123
0.287055
0.273787
0.206605
0.221715
0.235036
0.248529
0.262988
0.277967
0.291602
0.301234
0.302389
0.287316
0.192931
0.206668
0.220825
0.237228
0.256651
0.278473
0.300306
0.318252
0.325361
0.310429
0.18303
0.195614
0.210235
0.22895
0.252914
0.28185
0.313416
0.342745
0.359907
0.349619
0.177099
0.189372
0.204805
0.225816
0.254195
0.290522
0.333401
0.377977
0.411563
0.415195
0.174939
0.187954
0.204965
0.228762
0.261888
0.306195
0.362296
0.4271
0.486642
0.521594
0.175667
0.190183
0.209381
0.236439
0.274795
0.328031
0.399886
0.490678
0.589512
0.694321
0.17762
0.193319
0.214041
0.243273
0.285439
0.346397
0.434523
0.557677
0.722666
1.00345
0.178977
0.194123
0.213567
0.2407
0.280237
0.339563
0.432843
0.58718
0.8694
1.49945
0.252931
0.261558
0.266832
0.270946
0.274509
0.277755
0.279964
0.280136
0.276486
0.26601
0.223809
0.239657
0.250904
0.260462
0.269545
0.278193
0.285263
0.289087
0.286792
0.27394
0.206348
0.221696
0.235067
0.24857
0.263028
0.277994
0.291633
0.3012
0.302049
0.287511
0.192842
0.206684
0.220877
0.237296
0.256725
0.27854
0.300381
0.318236
0.32495
0.310668
0.183003
0.195647
0.210305
0.229047
0.253028
0.281972
0.313555
0.342769
0.359473
0.349874
0.177091
0.189409
0.204884
0.225936
0.254354
0.290722
0.333644
0.378095
0.411207
0.415243
0.174924
0.187976
0.205032
0.228885
0.262085
0.306508
0.362728
0.427434
0.486665
0.521105
0.175623
0.190149
0.20936
0.236439
0.274847
0.328232
0.400263
0.49102
0.590816
0.694641
0.177552
0.193206
0.213856
0.242983
0.285009
0.345837
0.433781
0.557075
0.725899
1.00574
0.178927
0.194083
0.213548
0.240696
0.280223
0.339488
0.432486
0.586746
0.873089
1.4902
-0.153442
-0.132797
-0.114784
-0.098164
-0.0815608
-0.0647703
-0.0477855
-0.0306427
-0.0134029
0.00386199
0.0210751
0.0381642
0.0550617
0.0717184
0.0881597
0.104572
0.121438
0.139796
0.162942
0.200684
-0.139546
-0.126066
-0.111554
-0.0963103
-0.0803867
-0.0639926
-0.0472631
-0.0302954
-0.0131741
0.00402601
0.0212393
0.0384064
0.0554878
0.0724859
0.0894722
0.106653
0.124425
0.143413
0.165128
0.193038
-0.136366
-0.124368
-0.110669
-0.0958135
-0.0801218
-0.0638572
-0.0471924
-0.0302493
-0.0131217
0.00411536
0.021401
0.0386859
0.0559365
0.0731457
0.0903522
0.107673
0.125321
0.143592
0.163045
0.184592
-0.137577
-0.125266
-0.111385
-0.0963928
-0.0805956
-0.0642328
-0.0474731
-0.0304363
-0.0132102
0.00413855
0.0215569
0.0389994
0.0564257
0.0738001
0.0910954
0.1083
0.125415
0.142442
0.15944
0.176516
-0.140298
-0.127304
-0.112928
-0.097553
-0.0814607
-0.0648664
-0.047921
-0.0307285
-0.0133618
0.00412608
0.0216913
0.0392904
0.0568707
0.0743614
0.0916647
0.108649
0.125143
0.140939
0.155869
0.169892
-0.142758
-0.12914
-0.11429
-0.0985481
-0.0821768
-0.0653702
-0.0482608
-0.0309365
-0.0134558
0.00413893
0.02181
0.0395117
0.0571773
0.0747036
0.0919363
0.108661
0.124609
0.139479
0.153066
0.165428
-0.143294
-0.12943
-0.114439
-0.0986122
-0.0821908
-0.0653529
-0.0482215
-0.030878
-0.013377
0.0042406
0.0219351
0.0396537
0.0573156
0.0747952
0.0919073
0.108402
0.123983
0.138364
0.151402
0.163313
-0.141024
-0.127511
-0.112897
-0.097416
-0.081284
-0.0646755
-0.0477191
-0.0305056
-0.0131005
0.00444441
0.0220782
0.0397359
0.0573244
0.0747068
0.0916909
0.108031
0.123458
0.137747
0.150862
0.16316
-0.135958
-0.123574
-0.109931
-0.0952358
-0.0797124
-0.0635594
-0.0469357
-0.0299625
-0.0127313
0.00468479
0.0222199
0.0397934
0.0573033
0.0746112
0.091532
0.10784
0.123303
0.137753
0.151224
0.164142
-0.127731
-0.117637
-0.105746
-0.0923473
-0.0777549
-0.0622542
-0.0460792
-0.0294105
-0.0123841
0.00489539
0.0223382
0.0398631
0.0573672
0.0747149
0.0917313
0.108203
0.123901
0.138649
0.152431
0.16557
-0.15382
-0.132679
-0.114769
-0.0981862
-0.0815735
-0.0647778
-0.0477908
-0.030646
-0.0134047
0.00386164
0.0210756
0.038165
0.0550617
0.0717154
0.08815
0.104552
0.121416
0.139747
0.162612
0.200078
-0.139488
-0.125896
-0.111477
-0.0962736
-0.0803603
-0.0639741
-0.0472505
-0.0302869
-0.0131685
0.00402939
0.0212416
0.0384092
0.055493
0.0724967
0.0894915
0.106685
0.124485
0.143485
0.165028
0.19278
-0.136426
-0.124343
-0.110644
-0.0957952
-0.080107
-0.0638466
-0.047185
-0.0302441
-0.0131182
0.00411774
0.0214025
0.0386868
0.0559371
0.073146