/*--------------------------------*- C++ -*----------------------------------*\
| =========                 |                                                 |
| \\      /  F ield         | OpenFOAM: The Open Source CFD Toolbox           |
|  \\    /   O peration     | Version:  2.4.0                                 |
|   \\  /    A nd           | Web:      www.OpenFOAM.org                      |
|    \\/     M anipulation  |                                                 |
\*---------------------------------------------------------------------------*/
FoamFile
{
    version     2.0;
    format      ascii;
    class       surfaceScalarField;
    location    "2.8";
    object      phi;
}
// * * * * * * * * * * * * * * * * * * * * * * * * * * * * * * * * * * * * * //

dimensions      [0 3 -1 0 0 0 0];

internalField   nonuniform List<scalar> 
12720
(
1.50439e-07
-1.51207e-07
-1.02464e-10
-5.45145e-07
6.9389e-07
1.692e-09
-2.06753e-06
1.51982e-06
2.56516e-09
-4.17029e-06
2.09946e-06
3.30054e-09
-6.6184e-06
2.44438e-06
3.73678e-09
-9.21839e-06
2.59607e-06
3.91303e-09
-1.1811e-05
2.58868e-06
3.91701e-09
-1.42581e-05
2.44336e-06
3.76826e-09
-1.64393e-05
2.17774e-06
3.42419e-09
1.82044e-06
2.86272e-09
-1.82626e-05
-7.25353e-07
5.75619e-07
-1.47584e-09
-3.28592e-06
3.25408e-06
3.82781e-10
-7.46851e-06
5.70392e-06
-1.51259e-09
-1.28506e-05
7.48397e-06
-2.3859e-09
-1.89864e-05
8.58298e-06
-2.82406e-09
-2.54595e-05
9.07227e-06
-3.10896e-09
-3.18928e-05
9.02488e-06
-2.87254e-09
-3.79458e-05
8.49926e-06
-2.89886e-09
-4.33254e-05
7.55981e-06
-2.53414e-09
6.31428e-06
-2.18421e-09
-4.7817e-05
-1.68577e-06
2.26389e-06
-2.50369e-09
-6.10023e-06
7.66629e-06
2.24814e-09
-1.26492e-05
1.22528e-05
1.02306e-10
-2.07402e-05
1.5575e-05
-9.43994e-11
-2.97905e-05
1.76332e-05
1.16669e-10
-3.92459e-05
1.85275e-05
1.05957e-10
-4.85824e-05
1.83613e-05
1.10192e-10
-5.73099e-05
1.72266e-05
1.75516e-10
-6.49965e-05
1.52461e-05
2.46288e-10
1.26419e-05
1.51358e-10
-7.13243e-05
-2.47288e-06
4.74039e-06
-3.621e-09
-8.45412e-06
1.36444e-05
3.17309e-09
-1.69638e-05
2.07624e-05
-1.17588e-11
-2.72228e-05
2.58344e-05
-2.7889e-10
-3.85358e-05
2.89461e-05
8.73909e-11
-5.02527e-05
3.02443e-05
1.28315e-10
-6.17445e-05
2.9853e-05
1.6786e-10
-7.24002e-05
2.78819e-05
2.74403e-10
-8.1656e-05
2.45015e-05
4.74031e-10
2.00632e-05
4.17713e-10
-8.90777e-05
-3.02827e-06
7.77307e-06
-4.41232e-09
-1.01527e-05
2.07651e-05
3.7346e-09
-2.00938e-05
3.07039e-05
-4.19875e-10
-3.19164e-05
3.76579e-05
-9.15245e-10
-4.48375e-05
4.18678e-05
-5.52103e-10
-5.81403e-05
4.35476e-05
-5.27919e-10
-7.11192e-05
4.28324e-05
-4.71468e-10
-8.30564e-05
3.98194e-05
-2.7544e-10
-9.32423e-05
3.46872e-05
3.01736e-10
2.78925e-05
5.87498e-10
-0.000101072
-3.32876e-06
1.11066e-05
-4.77258e-09
-1.10933e-05
2.85255e-05
4.14228e-09
-2.18435e-05
4.14547e-05
-5.44967e-10
-3.45479e-05
5.03635e-05
-1.16086e-09
-4.83714e-05
5.5692e-05
-8.04484e-10
-6.25615e-05
5.77385e-05
-8.0071e-10
-7.63656e-05
5.66372e-05
-7.83187e-10
-8.89761e-05
5.24305e-05
-6.28962e-10
-9.95152e-05
4.52257e-05
5.1954e-10
3.54758e-05
1.63094e-09
-0.0001071
-3.36585e-06
1.44778e-05
-5.34923e-09
-1.12278e-05
3.63832e-05
4.26604e-09
-2.21031e-05
5.23305e-05
-5.79262e-10
-3.49339e-05
6.31956e-05
-1.26809e-09
-4.88727e-05
6.96318e-05
-9.67475e-10
-6.31661e-05
7.20329e-05
-1.00628e-09
-7.70543e-05
7.05266e-05
-1.11606e-09
-8.96797e-05
6.50573e-05
-1.33894e-09
-9.99988e-05
5.55441e-05
6.81975e-10
4.21628e-05
4.13777e-09
-0.00010669
-3.1468e-06
1.7629e-05
-4.4027e-09
-1.05636e-05
4.37959e-05
4.07607e-09
-2.08596e-05
6.26271e-05
-5.30882e-10
-3.30105e-05
7.53477e-05
-1.23441e-09
-4.61853e-05
8.28077e-05
-1.01093e-09
-5.96542e-05
8.55029e-05
-1.03056e-09
-7.26928e-05
8.35663e-05
-1.16827e-09
-8.44657e-05
7.68322e-05
-2.07371e-09
-9.38497e-05
6.4926e-05
2.00689e-09
4.72059e-05
1.44111e-08
-9.89072e-05
-2.70203e-06
2.03347e-05
-3.69414e-09
-9.18495e-06
5.02752e-05
3.68499e-09
-1.82422e-05
7.16846e-05
-3.68752e-10
-2.89164e-05
8.60229e-05
-1.03606e-09
-4.03913e-05
9.42836e-05
-9.53357e-10
-5.19438e-05
9.70563e-05
-1.0371e-09
-6.28842e-05
9.45081e-05
-1.39719e-09
-7.24523e-05
8.64052e-05
-4.87921e-09
-7.9664e-05
7.21392e-05
-1.44097e-09
4.9515e-05
3.23502e-08
-8.20054e-05
-2.09519e-06
-2.68481e-09
2.24326e-05
-7.27926e-06
3.17907e-09
5.5456e-05
-1.45803e-05
-6.18779e-11
7.89858e-05
-2.31115e-05
-5.91104e-10
9.45547e-05
-3.20266e-05
-6.3167e-10
0.000103199
-4.05062e-05
-9.33481e-10
0.000105537
-4.77371e-05
-1.9884e-09
0.000101741
-5.28067e-05
-1.21792e-08
9.1487e-05
-5.46075e-05
-2.84486e-08
7.39685e-05
9.67909e-09
-5.19604e-05
4.68582e-05
1.52049e-07
-1.52112e-07
-4.13873e-11
-5.45701e-07
6.99471e-07
-2.84463e-11
-2.06825e-06
1.52513e-06
-1.95239e-11
-4.17042e-06
2.10548e-06
-1.22096e-11
-6.61828e-06
2.45161e-06
-7.52848e-12
-9.21827e-06
2.6039e-06
-4.30397e-12
-1.18109e-05
2.59657e-06
-2.36284e-12
-1.42582e-05
2.45108e-06
-1.11206e-12
-1.64397e-05
2.18485e-06
-3.62549e-13
1.82639e-06
-1.36539e-13
-1.82632e-05
-7.30023e-07
5.76464e-07
-2.69623e-11
-3.2915e-06
3.26135e-06
-2.29867e-11
-7.47347e-06
5.70561e-06
-1.64181e-11
-1.28541e-05
7.48371e-06
-1.07517e-11
-1.89881e-05
8.58282e-06
-6.84567e-12
-2.54597e-05
9.07243e-06
-3.78771e-12
-3.18916e-05
9.02556e-06
-2.01688e-12
-3.79438e-05
8.50041e-06
-8.66412e-13
-4.33231e-05
7.56154e-06
-1.3942e-13
6.31588e-06
1.13077e-13
-4.78147e-05
-1.69115e-06
2.26513e-06
-1.88751e-11
-6.10099e-06
7.67345e-06
-1.70083e-11
-1.265e-05
1.22548e-05
-1.22693e-11
-2.07412e-05
1.55748e-05
-8.20664e-12
-2.97911e-05
1.76328e-05
-5.3901e-12
-3.9246e-05
1.85274e-05
-3.08963e-12
-4.8582e-05
1.83617e-05
-1.58647e-12
-5.73093e-05
1.72279e-05
-6.51496e-13
-6.49961e-05
1.52486e-05
5.04308e-15
1.26442e-05
2.07169e-13
-7.13243e-05
-2.47969e-06
4.74122e-06
-1.16817e-11
-8.45302e-06
1.365e-05
-1.11514e-11
-1.69626e-05
2.07643e-05
-8.17265e-12
-2.72226e-05
2.58345e-05
-5.56895e-12
-3.85358e-05
2.89461e-05
-3.75693e-12
-5.02526e-05
3.02444e-05
-2.18243e-12
-6.17444e-05
2.98536e-05
-1.09363e-12
-7.24e-05
2.78837e-05
-2.89711e-13
-8.16565e-05
2.45056e-05
1.81567e-13
2.00671e-05
2.69789e-13
-8.90791e-05
-3.03677e-06
7.77358e-06
-6.29976e-12
-1.01513e-05
2.07683e-05
-6.40186e-12
-2.00922e-05
3.07048e-05
-4.69057e-12
-3.19161e-05
3.76575e-05
-3.24889e-12
-4.48376e-05
4.1867e-05
-2.17657e-12
-5.81405e-05
4.35468e-05
-1.19863e-12
-7.11192e-05
4.28319e-05
-4.88597e-13
-8.3056e-05
3.98202e-05
4.39146e-14
-9.32427e-05
3.46927e-05
3.00179e-13
2.78996e-05
3.08585e-13
-0.000101075
-3.33824e-06
1.11071e-05
-3.0711e-12
-1.10919e-05
2.85261e-05
-3.45038e-12
-2.18419e-05
4.14542e-05
-2.46062e-12
-3.45479e-05
5.03623e-05
-1.62226e-12
-4.83719e-05
5.56903e-05
-1.14055e-12
-6.25624e-05
5.77365e-05
-6.03617e-13
-7.63663e-05
5.6635e-05
-1.83548e-13
-8.89758e-05
5.24291e-05
9.52323e-14
-9.95155e-05
4.52329e-05
2.2726e-13
3.54904e-05
3.04484e-13
-0.000107105
-3.37569e-06
1.44774e-05
-1.17257e-12
-1.12265e-05
3.63812e-05
-1.49828e-12
-2.21018e-05
5.23289e-05
-9.88426e-13
-3.49344e-05
6.31937e-05
-5.86622e-13
-4.88743e-05
6.96292e-05
-4.28708e-13
-6.31685e-05
7.20297e-05
-2.85062e-13
-7.70566e-05
7.0522e-05
-1.08945e-13
-8.96799e-05
6.50509e-05
7.49826e-14
-9.99978e-05
5.55515e-05
1.76981e-13
4.21951e-05
2.99814e-13
-0.000106698
-3.15569e-06
1.76287e-05
-6.54109e-14
-1.05623e-05
4.37919e-05
-3.49526e-13
-2.08587e-05
6.26247e-05
-6.83549e-14
-3.30117e-05
7.53455e-05
6.63318e-15
-4.61881e-05
8.28046e-05
-9.3336e-14
-5.96583e-05
8.54988e-05
-1.28738e-13
-7.26974e-05
8.35599e-05
-3.30199e-14
-8.4466e-05
7.68174e-05
1.4973e-13
-9.38372e-05
6.49248e-05
2.13758e-13
4.72884e-05
2.70958e-13
-9.89161e-05
-2.70942e-06
2.03344e-05
4.41466e-13
-9.18371e-06
5.02699e-05
2.77692e-13
-1.82415e-05
7.16821e-05
3.59323e-13
-2.89183e-05
8.60212e-05
2.67215e-13
-4.03961e-05
9.42815e-05
8.31287e-14
-5.19523e-05
9.70539e-05
-1.72409e-14
-6.28986e-05
9.45048e-05
6.38277e-14
-7.2472e-05
8.6386e-05
1.98077e-13
-7.96402e-05
7.20915e-05
2.52352e-13
4.96322e-05
2.85841e-13
-8.19517e-05
-2.10057e-06
7.52437e-13
2.24323e-05
-7.27771e-06
6.65799e-13
5.54502e-05
-1.4579e-05
6.34733e-13
7.89834e-05
-2.31125e-05
4.47565e-13
9.45541e-05
-3.20314e-05
3.1097e-13
0.0001032
-4.05181e-05
2.55205e-13
0.00010554
-4.77658e-05
2.55774e-13
0.000101751
-5.28948e-05
2.17733e-13
9.15027e-05
-5.4748e-05
2.35764e-13
7.39163e-05
2.67316e-13
-5.17329e-05
4.66268e-05
1.52111e-07
-1.52049e-07
-1.03883e-10
-5.45655e-07
6.99502e-07
-1.76363e-09
-2.06822e-06
1.52515e-06
-2.59936e-09
-4.1704e-06
2.10549e-06
-3.31987e-09
-6.61827e-06
2.45161e-06
-3.7475e-09
-9.21826e-06
2.60391e-06
-3.91932e-09
-1.18109e-05
2.59658e-06
-3.92015e-09
-1.42582e-05
2.45108e-06
-3.76961e-09
-1.64396e-05
2.18485e-06
-3.42463e-09
1.82639e-06
-2.86269e-09
-1.82632e-05
-7.29992e-07
5.76509e-07
1.40529e-09
-3.29147e-06
3.26138e-06
-4.26605e-10
-7.47345e-06
5.70562e-06
1.48449e-09
-1.28541e-05
7.48372e-06
2.36833e-09
-1.89881e-05
8.58282e-06
2.81393e-09
-2.54597e-05
9.07243e-06
3.10281e-09
-3.18916e-05
9.02556e-06
2.86943e-09
-3.79438e-05
8.50041e-06
2.89759e-09
-4.3323e-05
7.56154e-06
2.53365e-09
6.31587e-06
2.18417e-09
-4.78147e-05
-1.69114e-06
2.26516e-06
2.47078e-09
-6.10097e-06
7.67347e-06
-2.27513e-09
-1.265e-05
1.22548e-05
-1.21782e-10
-2.07412e-05
1.55748e-05
8.1583e-11
-2.97911e-05
1.76328e-05
-1.24239e-10
-3.9246e-05
1.85274e-05
-1.10574e-10
-4.8582e-05
1.83617e-05
-1.12534e-10
-5.73093e-05
1.72279e-05
-1.76423e-10
-6.49961e-05
1.52486e-05
-2.46427e-10
1.26442e-05
-1.51081e-10
-7.13242e-05
-2.47968e-06
4.74123e-06
3.60219e-09
-8.45301e-06
1.365e-05
-3.18947e-09
-1.69626e-05
2.07643e-05
-9.26688e-13
-2.72226e-05
2.58345e-05
2.70255e-10
-3.85358e-05
2.89461e-05
-9.25774e-11
-5.02526e-05
3.02444e-05
-1.31686e-10
-6.17444e-05
2.98536e-05
-1.69582e-10
-7.24e-05
2.78837e-05
-2.74917e-10
-8.16565e-05
2.45056e-05
-4.7391e-10
2.00671e-05
-4.17339e-10
-8.9079e-05
-3.03677e-06
7.77359e-06
4.40163e-09
-1.01513e-05
2.07683e-05
-3.74422e-09
-2.00922e-05
3.07048e-05
4.11966e-10
-3.19161e-05
3.76575e-05
9.09782e-10
-4.48376e-05
4.1867e-05
5.48867e-10
-5.81405e-05
4.35468e-05
5.2573e-10
-7.11192e-05
4.28319e-05
4.70412e-10
-8.3056e-05
3.98202e-05
2.75306e-10
-9.32427e-05
3.46927e-05
-3.01382e-10
2.78996e-05
-5.87008e-10
-0.000101075
-3.33824e-06
1.11071e-05
4.76708e-09
-1.10919e-05
2.85261e-05
-4.14716e-09
-2.18419e-05
4.14542e-05
5.40748e-10
-3.45479e-05
5.03623e-05
1.15816e-09
-4.83719e-05
5.56903e-05
8.03163e-10
-6.25624e-05
5.77365e-05
7.99918e-10
-7.63663e-05
5.6635e-05
7.83072e-10
-8.89757e-05
5.2429e-05
6.29453e-10
-9.95154e-05
4.52329e-05
-5.18712e-10
3.54904e-05
-1.63007e-09
-0.000107105
-3.37569e-06
1.44774e-05
5.34651e-09
-1.12265e-05
3.63812e-05
-4.26828e-09
-2.21018e-05
5.23289e-05
5.77285e-10
-3.49344e-05
6.31937e-05
1.26707e-09
-4.88742e-05
6.96292e-05
9.67267e-10
-6.31684e-05
7.20297e-05
1.00631e-09
-7.70566e-05
7.0522e-05
1.11649e-09
-8.96799e-05
6.50509e-05
1.3398e-09
-9.99978e-05
5.55515e-05
-6.80946e-10
4.21951e-05
-4.13686e-09
-0.000106698
-3.15569e-06
1.76287e-05
4.40165e-09
-1.05623e-05
4.37919e-05
-4.07684e-09
-2.08587e-05
6.26247e-05
5.30308e-10
-3.30117e-05
7.53455e-05
1.23439e-09
-4.61881e-05
8.28046e-05
1.01132e-09
-5.96583e-05
8.54988e-05
1.0311e-09
-7.26974e-05
8.35599e-05
1.16913e-09
-8.44659e-05
7.68174e-05
2.0748e-09
-9.38372e-05
6.49248e-05
-2.00595e-09
4.72884e-05
-1.44105e-08
-9.89161e-05
-2.70942e-06
2.03344e-05
3.69404e-09
-9.18371e-06
5.02699e-05
-3.68475e-09
-1.82415e-05
7.16821e-05
3.69058e-10
-2.89182e-05
8.60212e-05
1.03667e-09
-4.03961e-05
9.42815e-05
9.54139e-10
-5.19523e-05
9.70539e-05
1.03807e-09
-6.28986e-05
9.45048e-05
1.39844e-09
-7.2472e-05
8.6386e-05
4.88045e-09
-7.96402e-05
7.20915e-05
1.44184e-09
4.96322e-05
-3.23495e-08
-8.19517e-05
-2.10057e-06
2.68526e-09
2.24323e-05
-7.27771e-06
-3.17833e-09
5.54502e-05
-1.4579e-05
6.2649e-11
7.89833e-05
-2.31125e-05
5.92016e-10
9.45541e-05
-3.20314e-05
6.32672e-10
0.0001032
-4.05181e-05
9.34717e-10
0.00010554
-4.77658e-05
1.98976e-09
0.000101751
-5.28948e-05
1.21804e-08
9.15027e-05
-5.4748e-05
2.84492e-08
7.39163e-05
-9.67871e-09
-5.17329e-05
4.66268e-05
1.5077e-07
-1.50875e-07
-5.44997e-07
6.94004e-07
-2.06745e-06
1.51985e-06
-4.17025e-06
2.09948e-06
-6.61838e-06
2.44438e-06
-9.21837e-06
2.59607e-06
-1.1811e-05
2.58868e-06
-1.42581e-05
2.44336e-06
-1.64393e-05
2.17774e-06
1.82044e-06
-1.82626e-05
-7.25237e-07
5.75767e-07
-3.28583e-06
3.25417e-06
-7.46845e-06
5.70396e-06
-1.28506e-05
7.48399e-06
-1.89864e-05
8.58299e-06
-2.54595e-05
9.07227e-06
-3.18928e-05
9.02488e-06
-3.79458e-05
8.49925e-06
-4.33253e-05
7.55981e-06
6.31428e-06
-4.7817e-05
-1.68573e-06
2.26396e-06
-6.10018e-06
7.66635e-06
-1.26492e-05
1.22528e-05
-2.07401e-05
1.55751e-05
-2.97905e-05
1.76332e-05
-3.92459e-05
1.85275e-05
-4.85824e-05
1.83613e-05
-5.73099e-05
1.72266e-05
-6.49964e-05
1.52461e-05
1.26419e-05
-7.13242e-05
-2.47287e-06
4.74043e-06
-8.45409e-06
1.36444e-05
-1.69637e-05
2.07624e-05
-2.72227e-05
2.58344e-05
-3.85358e-05
2.89461e-05
-5.02526e-05
3.02442e-05
-6.17445e-05
2.9853e-05
-7.24001e-05
2.78819e-05
-8.1656e-05
2.45015e-05
2.00632e-05
-8.90776e-05
-3.02826e-06
7.77309e-06
-1.01527e-05
2.07651e-05
-2.00938e-05
3.07039e-05
-3.19164e-05
3.76579e-05
-4.48375e-05
4.18678e-05
-5.81403e-05
4.35475e-05
-7.11192e-05
4.28323e-05
-8.30563e-05
3.98193e-05
-9.32423e-05
3.46872e-05
2.78925e-05
-0.000101072
-3.32875e-06
1.11066e-05
-1.10933e-05
2.85255e-05
-2.18435e-05
4.14546e-05
-3.45479e-05
5.03635e-05
-4.83713e-05
5.5692e-05
-6.25615e-05
5.77385e-05
-7.63656e-05
5.66372e-05
-8.89761e-05
5.24305e-05
-9.95152e-05
4.52257e-05
3.54758e-05
-0.0001071
-3.36585e-06
1.44778e-05
-1.12278e-05
3.63832e-05
-2.21031e-05
5.23305e-05
-3.49338e-05
6.31956e-05
-4.88726e-05
6.96318e-05
-6.31661e-05
7.20329e-05
-7.70543e-05
7.05265e-05
-8.96797e-05
6.50573e-05
-9.99987e-05
5.55441e-05
4.21628e-05
-0.00010669
-3.14679e-06
1.7629e-05
-1.05636e-05
4.37959e-05
-2.08596e-05
6.2627e-05
-3.30105e-05
7.53476e-05
-4.61853e-05
8.28076e-05
-5.96542e-05
8.55029e-05
-7.26928e-05
8.35663e-05
-8.44657e-05
7.68322e-05
-9.38496e-05
6.4926e-05
4.72059e-05
-9.89071e-05
-2.70202e-06
2.03347e-05
-9.18494e-06
5.02751e-05
-1.82422e-05
7.16846e-05
-2.89163e-05
8.60229e-05
-4.03913e-05
9.42836e-05
-5.19438e-05
9.70563e-05
-6.28841e-05
9.45081e-05
-7.24523e-05
8.64052e-05
-7.96639e-05
7.21392e-05
4.9515e-05
-8.20053e-05
-2.09519e-06
2.24326e-05
-7.27925e-06
5.5456e-05
-1.45803e-05
7.89858e-05
-2.31115e-05
9.45546e-05
-3.20266e-05
0.000103199
-4.05062e-05
0.000105537
-4.77371e-05
0.000101741
-5.28067e-05
9.1487e-05
-5.46075e-05
7.39685e-05
-5.19604e-05
4.68582e-05
-1.96868e-05
1.42203e-06
2.15333e-09
-2.07331e-05
1.04484e-06
1.50664e-09
-2.14642e-05
7.30126e-07
9.97734e-10
-2.1957e-05
4.92152e-07
6.30129e-10
-2.22845e-05
3.27073e-07
3.86922e-10
-2.25075e-05
2.22777e-07
2.40645e-10
-2.26735e-05
1.65889e-07
1.64709e-10
-2.28189e-05
1.4518e-07
1.38853e-10
-2.29713e-05
1.52272e-07
1.4959e-10
-2.31523e-05
1.80808e-07
1.88479e-10
-2.33774e-05
2.24853e-07
2.49224e-10
-2.36546e-05
2.76916e-07
3.25535e-10
-2.39808e-05
3.25757e-07
4.08016e-10
-2.43356e-05
3.54286e-07
4.80466e-10
-2.46741e-05
3.38069e-07
5.16194e-10
-2.49202e-05
2.45547e-07
4.72361e-10
-2.4963e-05
4.25454e-08
2.94745e-10
-2.46596e-05
-3.03371e-07
-4.92379e-11
-2.38588e-05
-8.0011e-07
-6.55308e-10
-1.42252e-06
-1.56794e-09
-2.24347e-05
-5.13329e-05
4.93979e-06
-1.9308e-09
-5.39327e-05
3.6463e-06
-1.61125e-09
-5.577e-05
2.56869e-06
-1.2741e-09
-5.70283e-05
1.75141e-06
-9.73381e-10
-5.78803e-05
1.17984e-06
-7.28108e-10
-5.84698e-05
8.12833e-07
-5.47713e-10
-5.89087e-05
6.05156e-07
-4.31607e-10
-5.92812e-05
5.18064e-07
-3.72507e-10
-5.965e-05
5.21476e-07
-3.60077e-10
-6.00602e-05
5.91366e-07
-3.81663e-10
-6.05397e-05
7.04815e-07
-4.22787e-10
-6.10963e-05
8.3393e-07
-4.64526e-10
-6.17095e-05
9.39411e-07
-4.80246e-10
-6.23194e-05
9.64666e-07
-4.34681e-10
-6.28133e-05
8.32276e-07
-2.84726e-10
-6.30138e-05
4.45984e-07
1.46029e-11
-6.26746e-05
-2.97076e-07
4.9322e-10
-6.14984e-05
-1.48074e-06
1.13887e-09
-5.91749e-05
-3.12553e-06
1.91276e-09
-5.13845e-06
2.64058e-09
-5.54616e-05
-7.61764e-05
9.7922e-06
-2.39524e-10
-7.96842e-05
7.15446e-06
-4.1542e-10
-8.21117e-05
4.99668e-06
-4.55091e-10
-8.37455e-05
3.38564e-06
-4.32572e-10
-8.48367e-05
2.27141e-06
-3.69754e-10
-8.55828e-05
1.55918e-06
-2.95569e-10
-8.61302e-05
1.15281e-06
-2.28187e-10
-8.65849e-05
9.72989e-07
-1.74697e-10
-8.70225e-05
9.59157e-07
-1.36331e-10
-8.74944e-05
1.06337e-06
-1.10168e-10
-8.803e-05
1.2405e-06
-9.18503e-11
-8.86329e-05
1.43693e-06
-7.59167e-11
-8.92722e-05
1.57877e-06
-5.53572e-11
-8.98687e-05
1.56117e-06
-2.17097e-11
-9.02779e-05
1.24144e-06
3.59969e-11
-9.02737e-05
4.41645e-07
1.2671e-10
-8.95401e-05
-1.03087e-06
2.45043e-10
-8.76843e-05
-3.33692e-06
3.83413e-10
-8.42847e-05
-6.52566e-06
5.25611e-10
-1.04299e-05
4.46823e-10
-7.89937e-05
-9.45196e-05
1.52345e-05
-3.78363e-10
-9.82484e-05
1.08838e-05
-6.09473e-10
-0.000100693
7.44149e-06
-6.05259e-10
-0.000102256
4.94974e-06
-5.3819e-10
-0.000103254
3.26983e-06
-4.28479e-10
-0.00010391
2.2153e-06
-3.17386e-10
-0.000104375
1.61789e-06
-2.25187e-10
-0.00010475
1.34813e-06
-1.55144e-10
-0.000105103
1.31199e-06
-1.05567e-10
-0.000105477
1.43799e-06
-7.19907e-11
-0.000105898
1.66115e-06
-5.02422e-11
-0.000106367
1.90596e-06
-3.67069e-11
-0.000106857
2.06881e-06
-2.7669e-11
-0.000107297
2.00134e-06
-1.74072e-11
-0.000107553
1.49748e-06
8.38722e-12
-0.000107402
2.91108e-07
6.5089e-11
-0.000106513
-1.92072e-06
1.33656e-10
-0.000104431
-5.41865e-06
2.62857e-10
-0.000100619
-1.03386e-05
5.09449e-10
-1.64855e-05
4.49153e-10
-9.45636e-05
-0.000106336
2.04996e-05
-1.02793e-09
-0.00010956
1.41087e-05
-1.15171e-09
-0.000111429
9.31108e-06
-9.32893e-10
-0.000112481
6.00314e-06
-7.29644e-10
-0.000113073
3.86236e-06
-5.13774e-10
-0.000113418
2.56021e-06
-3.37878e-10
-0.000113637
1.83737e-06
-2.16176e-10
-0.000113801
1.51183e-06
-1.37391e-10
-0.000113949
1.46073e-06
-9.01574e-11
-0.000114108
1.59669e-06
-6.48264e-11
-0.000114291
1.84449e-06
-5.50953e-11
-0.000114504
2.11877e-06
-5.69136e-11
-0.000114737
2.30151e-06
-6.70863e-11
-0.000114954
2.21873e-06
-7.92078e-11
-0.000115075
1.61804e-06
-6.81275e-11
-0.000114935
1.51649e-07
1.00391e-12
-0.000114246
-2.61014e-06
6.8416e-11
-0.000112533
-7.1315e-06
2.60371e-10
-0.000109119
-1.37536e-05
8.94965e-10
-2.23982e-05
1.2794e-09
-0.000103208
-0.000111335
2.47369e-05
-2.19643e-09
-0.000113269
1.60439e-05
-1.87269e-09
-0.000113983
1.00268e-05
-1.17264e-09
-0.000114147
6.16801e-06
-7.85583e-10
-0.000114101
3.8166e-06
-4.62286e-10
-0.000113993
2.4525e-06
-2.43845e-10
-0.000113877
1.72108e-06
-1.20958e-10
-0.000113764
1.39942e-06
-5.57407e-11
-0.000113654
1.35058e-06
-2.40388e-11
-0.000113543
1.48542e-06
-1.17841e-11
-0.000113431
1.73285e-06
-1.23637e-11
-0.000113327
2.01465e-06
-2.35213e-11
-0.000113246
2.22053e-06
-4.53256e-11
-0.000113207
2.18e-06
-7.67388e-11
-0.000113218
1.62882e-06
-9.47528e-11
-0.000113235
1.6869e-07
-5.48186e-11
-0.000113091
-2.75396e-06
-2.765e-11
-0.000112373
-7.84912e-06
1.45686e-10
-0.000110276
-1.58523e-05
1.53682e-09
-2.71351e-05
3.24465e-09
-0.000105543
-0.00010885
2.69029e-05
-5.84597e-09
-0.000108645
1.58427e-05
-3.85612e-09
-0.00010772
9.10353e-06
-1.78049e-09
-0.000106775
5.22436e-06
-9.28469e-10
-0.000106017
3.05818e-06
-3.94703e-10
-0.000105449
1.88505e-06
-1.21993e-10
-0.000105016
1.28847e-06
-1.49191e-11
-0.000104656
1.03887e-06
2.01862e-11
-0.000104316
1.01061e-06
2.44918e-11
-0.000103961
1.13062e-06
1.48607e-11
-0.000103575
1.34639e-06
-3.28646e-12
-0.000103163
1.60259e-06
-2.94869e-11
-0.000102761
1.81872e-06
-6.49324e-11
-0.000102442
1.8615e-06
-1.12944e-10
-0.000102318
1.50487e-06
-1.50216e-10
-0.000102516
3.66908e-07
-7.88756e-11
-0.000103098
-2.17257e-06
9.4165e-11
-0.000103877
-7.07035e-06
4.68232e-10
-0.000104059
-1.56735e-05
3.71085e-09
-2.94617e-05
8.91546e-09
-0.000101742
-9.7522e-05
2.55276e-05
-9.9329e-09
-9.43777e-05
1.27025e-05
-4.03056e-09
-9.16393e-05
6.36596e-06
-8.16115e-10
-8.96959e-05
3.28127e-06
-3.10952e-10
-8.8408e-05
1.77019e-06
3.97189e-11
-8.75554e-05
1.03235e-06
1.63366e-10
-8.69541e-05
6.87004e-07
1.54544e-10
-8.64713e-05
5.55915e-07
1.26983e-10
-8.60158e-05
5.55028e-07
1.052e-10
-8.55276e-05
6.42276e-07
9.00648e-11
-8.4973e-05
7.91693e-07
7.7632e-11
-8.43481e-05
9.77711e-07
6.19316e-11
-8.36906e-05
1.16114e-06
3.37056e-11
-8.30992e-05
1.27014e-06
-3.33256e-11
-8.27611e-05
1.16687e-06
-1.32003e-10
-8.29738e-05
5.79657e-07
-4.4316e-11
-8.41092e-05
-1.03726e-06
1.24333e-10
-8.64786e-05
-4.70053e-06
-4.56042e-10
-8.97499e-05
-1.24054e-05
3.28373e-09
-2.77451e-05
1.42501e-08
-9.14808e-05
-7.44993e-05
1.8034e-05
-1.24143e-08
-6.82314e-05
6.42911e-06
5.49799e-09
-6.43749e-05
2.50327e-06
6.1491e-09
-6.2155e-05
1.05874e-06
2.62247e-09
-6.08779e-05
4.91758e-07
1.35552e-09
-6.01091e-05
2.62686e-07
8.21997e-10
-5.95951e-05
1.72487e-07
5.15991e-10
-5.91866e-05
1.47075e-07
3.90189e-10
-5.8791e-05
1.58994e-07
3.74674e-10
-5.8347e-05
1.97878e-07
4.21729e-10
-5.78151e-05
2.593e-07
5.06368e-10
-5.71777e-05
3.39724e-07
6.071e-10
-5.64499e-05
4.32648e-07
6.86162e-10
-5.5703e-05
5.22591e-07
6.46185e-10
-5.51081e-05
5.716e-07
3.62818e-10
-5.50198e-05
4.91485e-07
-9.77507e-11
-5.60154e-05
-3.99999e-08
-1.65748e-09
-5.91289e-05
-1.57946e-06
-7.6277e-09
-6.54427e-05
-6.08127e-06
-1.03379e-08
-1.92487e-05
1.54306e-08
-7.39545e-05
-3.38576e-05
-6.88129e-08
-2.74168e-05
-1.16738e-08
-2.49127e-05
-8.36904e-10
-2.38521e-05
-1.87651e-09
-2.33591e-05
-1.21862e-09
-2.30958e-05
-5.71459e-10
-2.2923e-05
-3.23063e-10
-2.27757e-05
-2.28946e-10
-2.26165e-05
-2.02762e-10
-2.24184e-05
-2.22888e-10
-2.21588e-05
-2.75721e-10
-2.18188e-05
-3.47975e-10
-2.13857e-05
-4.20867e-10
-2.08627e-05
-4.61022e-10
-2.02907e-05
-3.52834e-10
-1.97994e-05
2.1608e-10
-1.98402e-05
7.70924e-10
-2.14171e-05
-2.53493e-09
-2.75035e-05
5.06814e-09
8.69206e-08
-4.68391e-05
-1.96873e-05
1.42632e-06
-4.89004e-14
-2.07336e-05
1.04775e-06
1.29294e-13
-2.14646e-05
7.32e-07
2.01939e-13
-2.19573e-05
4.93301e-07
8.64392e-14
-2.22846e-05
3.2776e-07
-2.61439e-14
-2.25076e-05
2.23203e-07
-3.96043e-14
-2.26736e-05
1.66196e-07
-1.59165e-13
-2.2819e-05
1.45465e-07
-3.27204e-13
-2.29714e-05
1.52603e-07
-2.1769e-13
-2.31525e-05
1.81234e-07
-1.07168e-13
-2.33776e-05
2.25409e-07
-1.99075e-13
-2.36549e-05
2.77619e-07
-2.09827e-13
-2.39811e-05
3.266e-07
-8.32953e-14
-2.43358e-05
3.55225e-07
2.14029e-15
-2.46743e-05
3.39015e-07
5.25029e-14
-2.49202e-05
2.4636e-07
1.82793e-13
-2.49627e-05
4.27846e-08
3.56977e-13
-2.46592e-05
-3.03593e-07
5.20341e-13
-2.38584e-05
-8.0142e-07
6.67137e-13
-1.42553e-06
8.32717e-13
-2.24345e-05
-5.13304e-05
4.94006e-06
2.07943e-13
-5.39302e-05
3.64597e-06
3.12903e-13
-5.57677e-05
2.56825e-06
3.30436e-13
-5.70264e-05
1.75102e-06
2.07789e-13
-5.78789e-05
1.17954e-06
1.11736e-13
-5.84689e-05
8.12643e-07
1.53561e-13
-5.89082e-05
6.05037e-07
1.91228e-13
-5.92811e-05
5.17982e-07
-8.61963e-16
-5.96502e-05
5.21393e-07
-1.38645e-14
-6.00606e-05
5.91245e-07
6.22749e-14
-6.05403e-05
7.04617e-07
-5.55658e-14
-6.10967e-05
8.3362e-07
-1.59848e-13
-6.17096e-05
9.38963e-07
-1.16898e-13
-6.23189e-05
9.64091e-07
-4.85304e-14
-6.28118e-05
8.31653e-07
1.60808e-14
-6.30109e-05
4.45484e-07
5.47447e-14
-6.26704e-05
-2.97214e-07
9.40072e-14
-6.14929e-05
-1.47997e-06
1.54377e-13
-5.91688e-05
-3.12356e-06
2.59872e-13
-5.13594e-06
4.09833e-13
-5.54558e-05
-7.61757e-05
9.79131e-06
2.32143e-13
-7.96828e-05
7.15262e-06
3.23189e-13
-8.21101e-05
4.99506e-06
4.03285e-13
-8.37439e-05
3.38443e-06
3.12439e-13
-8.48354e-05
2.27062e-06
2.06568e-13
-8.55818e-05
1.55873e-06
2.24942e-13
-8.61295e-05
1.15259e-06
3.10124e-13
-8.65846e-05
9.72871e-07
8.90342e-14
-8.70224e-05
9.59061e-07
7.94588e-14
-8.74945e-05
1.06322e-06
1.50014e-13
-8.80302e-05
1.24023e-06
8.9398e-15
-8.86331e-05
1.43647e-06
-1.50081e-13
-8.92723e-05
1.57806e-06
-1.29861e-13
-8.98684e-05
1.56021e-06
-1.5151e-14
-9.0277e-05
1.24033e-06
7.44728e-14
-9.02721e-05
4.40643e-07
1.69384e-13
-8.95377e-05
-1.03135e-06
2.99941e-13
-8.76812e-05
-3.33606e-06
4.52827e-13
-8.42817e-05
-6.52259e-06
5.91752e-13
-1.04259e-05
6.70962e-13
-7.89913e-05
-9.45194e-05
1.52313e-05
2.19024e-13
-9.82469e-05
1.08794e-05
2.76966e-13
-0.000100691
7.4382e-06
3.85747e-13
-0.000102254
4.94752e-06
3.22783e-13
-0.000103253
3.26852e-06
1.48746e-13
-0.000103909
2.21462e-06
9.12459e-14
-0.000104374
1.61759e-06
1.62346e-13
-0.000104749
1.34802e-06
-7.90891e-14
-0.000105102
1.31194e-06
-1.13555e-13
-0.000105477
1.43789e-06
1.56062e-14
-0.000105898
1.66092e-06
-1.28875e-14
-0.000106367
1.9055e-06
-9.37179e-14
-0.000106857
2.06803e-06
-7.62169e-14
-0.000107297
2.0002e-06
-8.5957e-15
-0.000107553
1.49605e-06
7.03633e-14
-0.000107402
2.89785e-07
1.68405e-13
-0.000106511
-1.9217e-06
2.79199e-13
-0.000104429
-5.4179e-06
3.57439e-13
-0.000100617
-1.03341e-05
3.72774e-13
-1.64793e-05
3.28364e-13
-9.4563e-05
-0.000106335
2.04911e-05
2.13122e-13
-0.000109557
1.41e-05
2.08581e-13
-0.000111426
9.30571e-06
2.57329e-13
-0.000112479
5.99998e-06
2.83813e-13
-0.000113071
3.8607e-06
1.20263e-13
-0.000113417
2.55947e-06
6.6415e-14
-0.000113636
1.83711e-06
1.37109e-13
-0.0001138
1.51177e-06
-3.06292e-14
-0.000113949
1.46073e-06
-4.25548e-14
-0.000114108
1.59664e-06
7.62532e-14
-0.000114291
1.84429e-06
5.60377e-14
-0.000114504
2.11831e-06
-4.33082e-14
-0.000114737
2.30068e-06
-9.72024e-14
-0.000114954
2.21741e-06
-1.00764e-13
-0.000115075
1.61624e-06
-9.68731e-14
-0.000114935
1.50074e-07
-1.10938e-13
-0.000114245
-2.61192e-06
-2.03365e-13
-0.000112531
-7.13129e-06
-3.12559e-13
-0.000109117
-1.37469e-05
-3.37308e-13
-2.23871e-05
-2.45797e-13
-0.000103208
-0.000111332
2.47168e-05
2.93699e-13
-0.000113263
1.60287e-05
2.69198e-13
-0.000113978
1.00199e-05
1.50392e-13
-0.000114144
6.16479e-06
3.28757e-13
-0.000114099
3.81527e-06
1.70882e-13
-0.000113992
2.45212e-06
1.36598e-13
-0.000113876
1.72107e-06
1.25026e-13
-0.000113764
1.39952e-06
3.15192e-14
-0.000113654
1.35069e-06
1.04812e-13
-0.000113543
1.48545e-06
1.87786e-13
-0.000113431
1.73272e-06
1.16246e-13
-0.000113327
2.01426e-06
-9.63439e-15
-0.000113246
2.21975e-06
-5.45433e-14
-0.000113207
2.17866e-06
-4.59523e-14
-0.000113218
1.62679e-06
-9.27246e-14
-0.000113235
1.66752e-07
-2.66115e-13
-0.00011309
-2.75694e-06
-4.84143e-13
-0.000112371
-7.85042e-06
-5.63068e-13
-0.000110274
-1.58422e-05
-3.9577e-13
-2.71122e-05
-1.53559e-13
-0.000105545
-0.000108843
2.68553e-05
4.10191e-13
-0.000108635
1.5817e-05
3.35855e-13
-0.000107713
9.09665e-06
7.48855e-14
-0.000106772
5.22246e-06
1.42217e-13
-0.000106015
3.05791e-06
6.25195e-14
-0.000105448
1.88533e-06
7.43061e-14
-0.000105016
1.28879e-06
-4.86928e-14
-0.000104656
1.03911e-06
-1.10039e-13
-0.000104316
1.01075e-06
3.51031e-14
-0.000103961
1.13065e-06
1.25381e-13
-0.000103575
1.34626e-06
5.88393e-14
-0.000103163
1.60223e-06
-3.40008e-14
-0.000102761
1.81798e-06
-5.61297e-14
-0.000102442
1.86015e-06
-1.00363e-13
-0.000102318
1.50268e-06
-3.06653e-13
-0.000102516
3.64304e-07
-6.09184e-13
-0.000103096
-2.17663e-06
-7.88275e-13
-0.000103873
-7.07346e-06
-7.18304e-13
-0.000104055
-1.56561e-05
-5.21708e-13
-2.94072e-05
-4.37702e-13
-0.000101751
-9.75077e-05
2.5437e-05
3.70455e-13
-9.43675e-05
1.26727e-05
2.31616e-13
-9.1636e-05
6.36441e-06
1.56645e-13
-8.96958e-05
3.28196e-06
2.42707e-13
-8.84087e-05
1.77082e-06
4.11077e-13
-8.75561e-05
1.0329e-06
3.5855e-13
-8.69545e-05
6.87352e-07
1.21904e-13
-8.64714e-05
5.56105e-07
-1.50378e-14
-8.60156e-05
5.5512e-07
4.82425e-14
-8.55272e-05
6.42296e-07
9.08998e-14
-8.49725e-05
7.91634e-07
4.06864e-14
-8.43477e-05
9.77537e-07
2.23872e-15
-8.36905e-05
1.16076e-06
-2.33648e-14
-8.30997e-05
1.26938e-06
-2.10221e-13
-8.27626e-05
1.16541e-06
-5.31813e-13
-8.29758e-05
5.77468e-07
-7.56242e-13
-8.41129e-05
-1.0394e-06
-7.89873e-13
-8.64813e-05
-4.70553e-06
-8.00417e-13
-8.97477e-05
-1.23865e-05
-8.18777e-13
-2.76441e-05
-7.87927e-13
-9.14965e-05
-7.4481e-05
1.7954e-05
9.80887e-14
-6.82391e-05
6.4363e-06
3.47405e-13
-6.43837e-05
2.51515e-06
1.87909e-13
-6.21615e-05
1.06234e-06
-5.96601e-15
-6.08818e-05
4.92456e-07
2.90082e-13
-6.0111e-05
2.62917e-07
3.50275e-13
-5.95958e-05
1.72679e-07
1.84352e-13
-5.91866e-05
1.47317e-07
8.11959e-14
-5.87904e-05
1.59342e-07
8.86513e-14
-5.83461e-05
1.98383e-07
9.85627e-14
-5.7814e-05
2.60026e-07
9.45582e-14
-5.71766e-05
3.40749e-07
9.63754e-14
-5.64492e-05
4.34063e-07
1.62587e-15
-5.57037e-05
5.24515e-07
-2.7878e-13
-5.51119e-05
5.73988e-07
-4.98828e-13
-5.50262e-05
4.91681e-07
-4.99351e-13
-5.60305e-05
-3.67519e-08
-5.65205e-13
-5.91552e-05
-1.58846e-06
-7.83175e-13
-6.54585e-05
-6.09351e-06
-9.64618e-13
-1.91848e-05
-8.42605e-13
-7.39024e-05
-3.38477e-05
-4.22937e-13
-2.74231e-05
1.70411e-14
-2.49088e-05
3.90252e-13
-2.38483e-05
2.04922e-13
-2.33571e-05
5.97257e-14
-2.30947e-05
1.28918e-14
-2.29224e-05
-1.39126e-14
-2.27753e-05
5.12614e-15
-2.26161e-05
2.04803e-14
-2.2418e-05
2.65301e-14
-2.21582e-05
3.75736e-14
-2.18178e-05
-3.96995e-15
-2.13842e-05
-2.27692e-13
-2.08601e-05
-4.79233e-13
-2.02865e-05
-4.98534e-13
-1.97946e-05
-4.54739e-13
-1.98306e-05
-5.69925e-13
-2.14216e-05
-6.18243e-13
-2.751e-05
-8.19415e-13
-1.29045e-12
-4.66079e-05
-1.96873e-05
1.42632e-06
-2.15321e-09
-2.07336e-05
1.04775e-06
-1.50639e-09
-2.14646e-05
7.32e-07
-9.97374e-10
-2.19573e-05
4.93301e-07
-6.29882e-10
-2.22846e-05
3.2776e-07
-3.8681e-10
-2.25076e-05
2.23203e-07
-2.40514e-10
-2.26736e-05
1.66196e-07
-1.64574e-10
-2.28189e-05
1.45465e-07
-1.38765e-10
-2.29714e-05
1.52603e-07
-1.49636e-10
-2.31524e-05
1.81234e-07
-1.88654e-10
-2.33776e-05
2.25409e-07
-2.49518e-10
-2.36549e-05
2.77619e-07
-3.25774e-10
-2.39811e-05
3.266e-07
-4.08007e-10
-2.43358e-05
3.55225e-07
-4.80363e-10
-2.46743e-05
3.39015e-07
-5.16188e-10
-2.49202e-05
2.4636e-07
-4.72396e-10
-2.49627e-05
4.27844e-08
-2.94695e-10
-2.46592e-05
-3.03593e-07
4.93869e-11
-2.38584e-05
-8.0142e-07
6.55526e-10
-1.42552e-06
1.56824e-09
-2.24344e-05
-5.13304e-05
4.94006e-06
1.93103e-09
-5.39302e-05
3.64597e-06
1.61164e-09
-5.57677e-05
2.56825e-06
1.27454e-09
-5.70264e-05
1.75102e-06
9.73689e-10
-5.78789e-05
1.17954e-06
7.28288e-10
-5.84689e-05
8.12643e-07
5.47827e-10
-5.89082e-05
6.05037e-07