/*--------------------------------*- C++ -*----------------------------------*\
| =========                 |                                                 |
| \\      /  F ield         | OpenFOAM: The Open Source CFD Toolbox           |
|  \\    /   O peration     | Version:  2.4.0                                 |
|   \\  /    A nd           | Web:      www.OpenFOAM.org                      |
|    \\/     M anipulation  |                                                 |
\*---------------------------------------------------------------------------*/
FoamFile
{
    version     2.0;
    format      ascii;
    class       volVectorField;
    location    "2.8";
    object      U;
}
// * * * * * * * * * * * * * * * * * * * * * * * * * * * * * * * * * * * * * //

dimensions      [0 1 -1 0 0 0 0];

internalField   nonuniform List<vector> 
4800
(
(0.00030285 -0.000306796 -5.42504e-07)
(9.41385e-06 0.000159404 0.000215701)
(-0.00184966 0.000664635 0.000441221)
(-0.00483222 0.00100552 0.000607348)
(-0.00854382 0.00119866 0.000670373)
(-0.0126447 0.00128175 0.000610043)
(-0.0168532 0.00128221 0.000420157)
(-0.0209325 0.00121378 0.000101301)
(-0.0246735 0.00108389 -0.000340423)
(-0.0279004 0.000904581 -0.000892042)
(-0.000184839 -1.11753e-05 -0.000216415)
(-0.00248178 0.00239247 4.52501e-06)
(-0.00804435 0.0047317 0.000171625)
(-0.0158854 0.0064164 0.000270097)
(-0.0252639 0.00744249 0.000281945)
(-0.0355043 0.00790303 0.000191316)
(-0.0459702 0.00788429 -8.42281e-06)
(-0.0560842 0.00744618 -0.000319556)
(-0.0653307 0.00664412 -0.000740675)
(-0.0732862 0.00556755 -0.00126514)
(-0.000777519 0.0019761 -0.000447343)
(-0.00519608 0.00807319 -0.000155664)
(-0.0142367 0.0134928 1.23215e-05)
(-0.0262237 0.0174532 8.92942e-05)
(-0.0401595 0.019916 8.37891e-05)
(-0.0551779 0.021012 -1.30451e-05)
(-0.0704155 0.0208836 -0.000205468)
(-0.0850533 0.0196533 -0.000497229)
(-0.0983373 0.0174682 -0.000891346)
(-0.109635 0.014578 -0.00138734)
(-0.00125167 0.0053788 -0.000602908)
(-0.0074562 0.0165414 -0.000225557)
(-0.0194307 0.0257604 -3.37631e-05)
(-0.0347969 0.0324074 4.52893e-05)
(-0.0523197 0.0365188 4.20245e-05)
(-0.0709999 0.0382825 -4.64553e-05)
(-0.0898198 0.0378831 -0.000222726)
(-0.107779 0.03549 -0.000493121)
(-0.123915 0.0313449 -0.000866878)
(-0.137374 0.0259006 -0.00135215)
(-0.00157595 0.00986512 -0.000608848)
(-0.00906856 0.0271924 -0.000157178)
(-0.0231959 0.0407406 5.99492e-05)
(-0.0410194 0.050318 0.0001514)
(-0.0611105 0.0561627 0.000163505)
(-0.0823762 0.0585552 9.68506e-05)
(-0.103694 0.0577074 -5.19966e-05)
(-0.123922 0.053799 -0.000294832)
(-0.141899 0.0471303 -0.000650939)
(-0.156476 0.0383584 -0.00114393)
(-0.00174485 0.0150449 -0.000416146)
(-0.00994784 0.039292 9.08835e-05)
(-0.0252915 0.0575429 0.000328993)
(-0.044506 0.0702146 0.000440062)
(-0.0660431 0.0778405 0.000479896)
(-0.0887589 0.0808263 0.000449875)
(-0.111475 0.0793927 0.000342483)
(-0.132957 0.0736714 0.000136603)
(-0.151859 0.0639323 -0.000202676)
(-0.166616 0.0509515 -0.000729318)
(-0.00175893 0.020497 -1.21561e-06)
(-0.0100603 0.0519901 0.000539281)
(-0.025597 0.0751105 0.000790844)
(-0.0450249 0.0909445 0.000926634)
(-0.0667613 0.100368 0.00100601)
(-0.0896571 0.103934 0.0010291)
(-0.112534 0.101853 0.000981325)
(-0.134141 0.0941322 0.000828407)
(-0.153033 0.0808532 0.000513961)
(-0.167087 0.0626405 -7.69275e-05)
(-0.00162567 0.0257975 0.000636188)
(-0.00942324 0.064402 0.00118836)
(-0.0241173 0.0923128 0.0014446)
(-0.0425279 0.111243 0.00160866)
(-0.0631069 0.12241 0.00173867)
(-0.0847267 0.126525 0.00183294)
(-0.106252 0.123789 0.00186843)
(-0.12651 0.114021 0.00179568)
(-0.144189 0.0969045 0.00153613)
(-0.156569 0.0723037 0.00085816)
(-0.00136488 0.0305506 0.0014739)
(-0.00812489 0.0756807 0.00201871)
(-0.0210306 0.10803 0.00227067)
(-0.0372472 0.129798 0.00246418)
(-0.0552876 0.142493 0.00265286)
(-0.0740182 0.146994 0.00283453)
(-0.0923119 0.143543 0.00297848)
(-0.109087 0.131814 0.00301939)
(-0.123551 0.111041 0.00286846)
(-0.132824 0.0794843 0.00208902)
(-0.00101573 0.0344342 0.00246974)
(-0.00634952 0.0851147 0.0029936)
(-0.0167469 0.121276 0.00323252)
(-0.0298236 0.145377 0.00345258)
(-0.0441283 0.159094 0.0037017)
(-0.0584064 0.16344 0.00398215)
(-0.071322 0.158745 0.00426511)
(-0.0814964 0.144672 0.00448146)
(-0.0886402 0.120316 0.00459953)
(-0.0917376 0.0829557 0.00399754)
(0.000308018 -0.000311092 -1.16885e-07)
(1.67895e-05 0.000153601 1.29461e-06)
(-0.00184585 0.000650708 1.98356e-06)
(-0.0048296 0.000985867 2.56197e-06)
(-0.00854236 0.00117586 2.90522e-06)
(-0.0126442 0.0012574 3.04485e-06)
(-0.0168534 0.00125775 3.04933e-06)
(-0.0209335 0.00119068 2.9344e-06)
(-0.0246757 0.00106322 2.66699e-06)
(-0.0279037 0.000886968 2.22979e-06)
(-0.000177436 -1.81825e-05 -1.17216e-06)
(-0.00247868 0.00239058 2.80152e-07)
(-0.00805183 0.00472055 -1.18862e-06)
(-0.0158902 0.00640013 -1.86368e-06)
(-0.0252663 0.00742442 -2.20162e-06)
(-0.0355052 0.00788413 -2.42097e-06)
(-0.0459692 0.00786552 -2.45799e-06)
(-0.056082 0.00742858 -2.25536e-06)
(-0.0653287 0.00662856 -1.97117e-06)
(-0.0732851 0.0055541 -1.6988e-06)
(-0.000761566 0.00197066 -1.96468e-06)
(-0.00518485 0.00807981 1.7358e-06)
(-0.0142436 0.013496 7.04117e-08)
(-0.0262259 0.0174565 -7.95984e-08)
(-0.0401596 0.0199212 8.66618e-08)
(-0.0551779 0.0210184 8.00416e-08)
(-0.0704148 0.0208904 8.43977e-08)
(-0.0850521 0.0196602 1.35951e-07)
(-0.0983371 0.0174752 1.91495e-07)
(-0.109637 0.0145837 1.17823e-07)
(-0.00122881 0.00537405 -2.82949e-06)
(-0.00743994 0.0165455 2.45962e-06)
(-0.0194398 0.0257596 -1.53182e-08)
(-0.0347989 0.0324048 -2.21178e-07)
(-0.0523187 0.0365167 6.50855e-08)
(-0.0709992 0.0382808 9.81079e-08)
(-0.0898185 0.0378819 1.29683e-07)
(-0.107777 0.0354898 2.13137e-07)
(-0.123915 0.0313467 3.68774e-07)
(-0.137378 0.0259027 3.25046e-07)
(-0.00154859 0.00986222 -3.44189e-06)
(-0.00905015 0.0271949 2.89985e-06)
(-0.0232085 0.0407386 -3.3022e-07)
(-0.0410226 0.050314 -7.14402e-07)
(-0.0611096 0.0561583 -4.31145e-07)
(-0.0823752 0.0585506 -4.11584e-07)
(-0.103691 0.057703 -3.67123e-07)
(-0.123918 0.0537958 -2.14258e-07)
(-0.141896 0.0471316 2.34869e-07)
(-0.156484 0.0383619 4.57134e-07)
(-0.00171508 0.0150444 -3.72006e-06)
(-0.00992854 0.0392935 3.2191e-06)
(-0.0253064 0.0575419 -4.25833e-07)
(-0.0445102 0.0702122 -9.04234e-07)
(-0.0660426 0.0778375 -6.26622e-07)
(-0.0887581 0.0808227 -6.23279e-07)
(-0.111472 0.0793887 -6.0933e-07)
(-0.13295 0.0736679 -4.8913e-07)
(-0.151853 0.0639369 4.04271e-07)
(-0.166631 0.0509634 1.26871e-06)
(-0.00172909 0.0204982 -3.63249e-06)
(-0.0100416 0.0519904 3.3168e-06)
(-0.0256131 0.0751103 -4.51328e-07)
(-0.04503 0.0909437 -9.86795e-07)
(-0.0667615 0.100367 -7.52826e-07)
(-0.089657 0.103932 -7.82867e-07)
(-0.112532 0.101849 -8.68095e-07)
(-0.134128 0.0941275 -1.04129e-06)
(-0.153015 0.080864 5.30612e-07)
(-0.167117 0.0626788 3.21849e-06)
(-0.00159746 0.0258005 -3.42961e-06)
(-0.00940575 0.0644012 3.16993e-06)
(-0.0241332 0.0923136 -4.13035e-07)
(-0.0425335 0.111244 -9.60142e-07)
(-0.0631078 0.12241 -7.86318e-07)
(-0.0847277 0.126524 -8.01621e-07)
(-0.106252 0.123784 -9.08645e-07)
(-0.126487 0.114005 -1.61274e-06)
(-0.144137 0.0969005 1.56112e-06)
(-0.156616 0.0723646 1.12089e-05)
(-0.00134026 0.0305555 -2.87733e-06)
(-0.00810979 0.0756795 2.8662e-06)
(-0.021045 0.108032 -2.86616e-07)
(-0.037253 0.129802 -8.05644e-07)
(-0.0552898 0.142497 -7.41388e-07)
(-0.0740228 0.146997 -8.06605e-07)
(-0.0923231 0.14354 -1.08661e-06)
(-0.10907 0.131781 -3.79474e-06)
(-0.123446 0.110965 -1.12052e-06)
(-0.132872 0.0794539 2.51615e-05)
(-0.00099601 0.0344402 -2.09087e-06)
(-0.00633731 0.0851133 2.47301e-06)
(-0.0167582 0.121279 -4.77096e-08)
(-0.0298277 0.145385 -4.59395e-07)
(-0.0441297 0.159107 -4.91002e-07)
(-0.0584133 0.163463 -7.25783e-07)
(-0.0713552 0.158788 -1.54627e-06)
(-0.0815378 0.144737 -9.47248e-06)
(-0.0885512 0.120379 -2.21265e-05)
(-0.0918165 0.0830742 7.52835e-06)
(0.00030808 -0.000311029 -1.17992e-07)
(1.68867e-05 0.000153632 -1.39715e-06)
(-0.00184579 0.00065072 -2.03933e-06)
(-0.00482957 0.000985872 -2.59499e-06)
(-0.00854234 0.00117586 -2.92464e-06)
(-0.0126442 0.0012574 -3.05613e-06)
(-0.0168534 0.00125776 -3.0554e-06)
(-0.0209335 0.00119068 -2.93721e-06)
(-0.0246757 0.00106322 -2.66789e-06)
(-0.0279037 0.000886968 -2.23e-06)
(-0.000177405 -1.80846e-05 1.07209e-06)
(-0.00247862 0.00239064 -3.4937e-07)
(-0.00805179 0.00472058 1.14244e-06)
(-0.0158901 0.00640014 1.83405e-06)
(-0.0252663 0.00742442 2.18348e-06)
(-0.0355052 0.00788413 2.41041e-06)
(-0.0459692 0.00786552 2.45249e-06)
(-0.056082 0.00742858 2.25299e-06)
(-0.0653286 0.00662856 1.97045e-06)
(-0.0732851 0.0055541 1.69883e-06)
(-0.000761553 0.00197072 1.91017e-06)
(-0.00518482 0.00807985 -1.7823e-06)
(-0.0142435 0.013496 -1.03879e-07)
(-0.0262259 0.0174565 5.72768e-08)
(-0.0401596 0.0199212 -1.00711e-07)
(-0.0551778 0.0210184 -8.83709e-08)
(-0.0704147 0.0208904 -8.88338e-08)
(-0.0850521 0.0196602 -1.37779e-07)
(-0.0983371 0.0174752 -1.91728e-07)
(-0.109637 0.0145837 -1.17408e-07)
(-0.00122881 0.00537408 2.797e-06)
(-0.00743993 0.0165455 -2.48904e-06)
(-0.0194398 0.0257596 -6.89324e-09)
(-0.0347989 0.0324048 2.05934e-07)
(-0.0523187 0.0365167 -7.48899e-08)
(-0.0709991 0.0382808 -1.04115e-07)
(-0.0898184 0.0378819 -1.32772e-07)
(-0.107777 0.0354898 -2.14112e-07)
(-0.123915 0.0313467 -3.68513e-07)
(-0.137378 0.0259027 -3.2444e-07)
(-0.00154859 0.00986224 3.42371e-06)
(-0.00905014 0.0271949 -2.91701e-06)
(-0.0232085 0.0407386 3.16768e-07)
(-0.0410225 0.050314 7.05064e-07)
(-0.0611096 0.0561583 4.25165e-07)
(-0.0823752 0.0585506 4.07921e-07)
(-0.103691 0.057703 3.6545e-07)
(-0.123918 0.0537958 2.14101e-07)
(-0.141896 0.0471316 -2.34222e-07)
(-0.156483 0.0383619 -4.56371e-07)
(-0.00171508 0.0150444 3.71083e-06)
(-0.00992854 0.0392935 -3.22824e-06)
(-0.0253064 0.0575419 4.18612e-07)
(-0.0445102 0.0702122 8.99446e-07)
(-0.0660425 0.0778375 6.2377e-07)
(-0.0887581 0.0808227 6.21654e-07)
(-0.111472 0.0793886 6.08872e-07)
(-0.13295 0.0736678 4.89638e-07)
(-0.151853 0.0639369 -4.03259e-07)
(-0.166631 0.0509634 -1.26763e-06)
(-0.00172909 0.0204982 3.62853e-06)
(-0.0100416 0.0519904 -3.321e-06)
(-0.0256131 0.0751103 4.48209e-07)
(-0.04503 0.0909437 9.84991e-07)
(-0.0667615 0.100367 7.51973e-07)
(-0.089657 0.103932 7.82481e-07)
(-0.112532 0.101849 8.68333e-07)
(-0.134128 0.0941275 1.04217e-06)
(-0.153015 0.080864 -5.29437e-07)
(-0.167117 0.0626788 -3.21733e-06)
(-0.00159746 0.0258005 3.42852e-06)
(-0.00940574 0.0644012 -3.17122e-06)
(-0.0241332 0.0923136 4.12334e-07)
(-0.0425335 0.111244 9.60039e-07)
(-0.0631078 0.12241 7.8654e-07)
(-0.0847277 0.126524 8.01889e-07)
(-0.106252 0.123784 9.09332e-07)
(-0.126487 0.114005 1.61388e-06)
(-0.144137 0.0969005 -1.55999e-06)
(-0.156616 0.0723646 -1.12079e-05)
(-0.00134026 0.0305555 2.87767e-06)
(-0.00810979 0.0756795 -2.86582e-06)
(-0.021045 0.108032 2.87237e-07)
(-0.0372529 0.129802 8.06479e-07)
(-0.0552897 0.142497 7.4222e-07)
(-0.0740227 0.146997 8.07416e-07)
(-0.092323 0.14354 1.08777e-06)
(-0.10907 0.131781 3.79611e-06)
(-0.123446 0.110965 1.12167e-06)
(-0.132872 0.0794539 -2.51605e-05)
(-0.00099601 0.0344402 2.09213e-06)
(-0.00633731 0.0851133 -2.47164e-06)
(-0.0167582 0.121279 4.91446e-08)
(-0.0298277 0.145385 4.6081e-07)
(-0.0441297 0.159107 4.92375e-07)
(-0.0584133 0.163463 7.2726e-07)
(-0.0713552 0.158788 1.54785e-06)
(-0.0815378 0.144737 9.47388e-06)
(-0.0885512 0.120379 2.21274e-05)
(-0.0918165 0.0830742 -7.52772e-06)
(0.000303149 -0.000306497 7.89425e-07)
(9.83598e-06 0.000159516 -0.000215593)
(-0.00184947 0.000664671 -0.000441163)
(-0.00483213 0.00100554 -0.000607313)
(-0.00854377 0.00119867 -0.000670353)
(-0.0126447 0.00128175 -0.000610032)
(-0.0168532 0.00128221 -0.000420151)
(-0.0209324 0.00121378 -0.000101298)
(-0.0246735 0.00108389 0.000340424)
(-0.0279003 0.00090458 0.000892043)
(-0.000184726 -1.07528e-05 0.00021652)
(-0.00248159 0.00239265 -4.45184e-06)
(-0.00804423 0.00473177 -0.000171576)
(-0.0158853 0.00641643 -0.000270066)
(-0.0252638 0.00744251 -0.000281926)
(-0.0355043 0.00790304 -0.000191305)
(-0.0459701 0.00788429 8.42863e-06)
(-0.0560841 0.00744618 0.000319559)
(-0.0653306 0.00664412 0.000740676)
(-0.0732862 0.00556755 0.00126514)
(-0.000777481 0.00197628 0.000447401)
(-0.005196 0.00807331 0.000155713)
(-0.0142366 0.0134929 -1.22861e-05)
(-0.0262236 0.0174532 -8.92706e-05)
(-0.0401594 0.019916 -8.37742e-05)
(-0.0551779 0.021012 1.30539e-05)
(-0.0704155 0.0208836 0.000205473)
(-0.0850533 0.0196533 0.000497231)
(-0.0983372 0.0174682 0.000891347)
(-0.109635 0.014578 0.00138734)
(-0.00125165 0.00537888 0.000602942)
(-0.00745616 0.0165414 0.000225588)
(-0.0194307 0.0257604 3.37866e-05)
(-0.0347969 0.0324074 -4.52732e-05)
(-0.0523196 0.0365188 -4.20141e-05)
(-0.0709999 0.0382825 4.64616e-05)
(-0.0898197 0.0378831 0.000222729)
(-0.107779 0.03549 0.000493122)
(-0.123915 0.0313449 0.000866878)
(-0.137374 0.0259006 0.00135215)
(-0.00157594 0.00986516 0.000608867)
(-0.00906853 0.0271925 0.000157196)
(-0.0231959 0.0407406 -5.9935e-05)
(-0.0410194 0.050318 -0.00015139)
(-0.0611104 0.0561627 -0.000163499)
(-0.0823762 0.0585552 -9.68467e-05)
(-0.103694 0.0577074 5.19984e-05)
(-0.123922 0.0537989 0.000294832)
(-0.141899 0.0471302 0.000650938)
(-0.156476 0.0383584 0.00114393)
(-0.00174484 0.0150449 0.000416155)
(-0.00994782 0.039292 -9.08738e-05)
(-0.0252914 0.0575429 -0.000328985)
(-0.0445059 0.0702145 -0.000440057)
(-0.066043 0.0778405 -0.000479893)
(-0.0887589 0.0808262 -0.000449873)
(-0.111475 0.0793927 -0.000342482)
(-0.132957 0.0736713 -0.000136603)
(-0.151859 0.0639323 0.000202675)
(-0.166616 0.0509515 0.000729317)
(-0.00175893 0.020497 1.21978e-06)
(-0.0100603 0.0519901 -0.000539277)
(-0.025597 0.0751104 -0.00079084)
(-0.0450249 0.0909444 -0.000926632)
(-0.0667613 0.100368 -0.00100601)
(-0.089657 0.103934 -0.00102909)
(-0.112534 0.101853 -0.000981325)
(-0.134141 0.0941322 -0.000828408)
(-0.153033 0.0808532 -0.000513962)
(-0.167087 0.0626405 7.69262e-05)
(-0.00162567 0.0257975 -0.000636187)
(-0.00942323 0.0644019 -0.00118836)
(-0.0241173 0.0923127 -0.0014446)
(-0.0425279 0.111243 -0.00160866)
(-0.0631068 0.12241 -0.00173867)
(-0.0847266 0.126525 -0.00183294)
(-0.106252 0.123789 -0.00186843)
(-0.12651 0.114021 -0.00179568)
(-0.144189 0.0969045 -0.00153613)
(-0.156569 0.0723036 -0.000858161)
(-0.00136488 0.0305506 -0.0014739)
(-0.00812488 0.0756806 -0.00201871)
(-0.0210306 0.10803 -0.00227067)
(-0.0372472 0.129798 -0.00246418)
(-0.0552876 0.142493 -0.00265287)
(-0.0740181 0.146994 -0.00283453)
(-0.0923119 0.143543 -0.00297848)
(-0.109087 0.131814 -0.0030194)
(-0.123551 0.111041 -0.00286846)
(-0.132824 0.0794843 -0.00208902)
(-0.00101573 0.0344342 -0.00246974)
(-0.00634951 0.0851146 -0.0029936)
(-0.0167469 0.121275 -0.00323252)
(-0.0298236 0.145377 -0.00345258)
(-0.0441283 0.159094 -0.0037017)
(-0.0584064 0.16344 -0.00398215)
(-0.0713219 0.158745 -0.00426512)
(-0.0814964 0.144672 -0.00448146)
(-0.0886402 0.120316 -0.00459954)
(-0.0917376 0.0829557 -0.00399754)
(-0.030501 0.000701243 -0.00153284)
(-0.0324615 0.000507923 -0.00223736)
(-0.0338579 0.000347443 -0.00298274)
(-0.03481 0.000227602 -0.00375176)
(-0.0354422 0.000146151 -0.00453301)
(-0.0358632 9.6385e-05 -0.00531987)
(-0.0361596 7.1123e-05 -0.00610918)
(-0.0363974 6.46337e-05 -0.00690021)
(-0.0366271 7.30022e-05 -0.00769405)
(-0.0368877 9.36384e-05 -0.00849338)
(-0.037209 0.000124341 -0.00930254)
(-0.0376108 0.000162109 -0.0101276)
(-0.0380986 0.000201778 -0.0109765)
(-0.0386556 0.000234602 -0.0118587)
(-0.0392322 0.000247053 -0.0127845)
(-0.039733 0.000220473 -0.0137628)
(-0.0400078 0.000132915 -0.0147991)
(-0.0398493 -3.51617e-05 -0.0158908)
(-0.0390123 -0.000295522 -0.0170223)
(-0.0372601 -0.000636431 -0.0181616)
(-0.0796938 0.00436789 -0.00187916)
(-0.0845389 0.00322922 -0.00256289)
(-0.0880189 0.00227406 -0.00329785)
(-0.0904245 0.00154657 -0.00406874)
(-0.0920516 0.00103734 -0.00486381)
(-0.0931564 0.000711728 -0.00567484)
(-0.0939424 0.000530358 -0.00649669)
(-0.0945643 0.000459347 -0.00732674)
(-0.0951377 0.000472677 -0.00816444)
(-0.0957476 0.000549996 -0.00901109)
(-0.096453 0.000672049 -0.00986969)
(-0.0972846 0.000814912 -0.0107448)
(-0.0982357 0.000943732 -0.0116423)
(-0.0992469 0.00100683 -0.0125692)
(-0.100185 0.000931861 -0.0135325)
(-0.100821 0.00062718 -0.0145379)
(-0.100815 -6.90774e-06 -0.0155876)
(-0.0997198 -0.0010524 -0.0166771)
(-0.0970273 -0.00253565 -0.0177925)
(-0.092259 -0.00437458 -0.0189065)
(-0.118568 0.0113936 -0.00197592)
(-0.125166 0.00840603 -0.00263686)
(-0.129798 0.00592345 -0.00335266)
(-0.132939 0.00404334 -0.00410868)
(-0.135031 0.00272838 -0.00489298)
(-0.136436 0.00188199 -0.00569677)
(-0.137423 0.00139919 -0.00651414)
(-0.138191 0.00119024 -0.00734164)
(-0.138881 0.00118519 -0.00817783)
(-0.139594 0.0013278 -0.00902307)
(-0.140394 0.00156438 -0.00987923)
(-0.14131 0.00183034 -0.0107496)
(-0.142325 0.00203591 -0.0116385)
(-0.143356 0.00205347 -0.0125513)
(-0.144232 0.00171002 -0.0134936)
(-0.144662 0.000791937 -0.0144703)
(-0.144211 -0.000927958 -0.0154841)
(-0.142301 -0.00363253 -0.0165334)
(-0.138252 -0.00736538 -0.0176088)
(-0.131393 -0.011917 -0.0186896)
(-0.147625 0.0199517 -0.00194344)
(-0.154802 0.0144886 -0.00261084)
(-0.159565 0.0100614 -0.00333383)
(-0.162629 0.00678441 -0.00409669)
(-0.164575 0.00453384 -0.00488673)
(-0.165828 0.00310172 -0.00569496)
(-0.166678 0.00228457 -0.00651547)
(-0.167319 0.00191787 -0.00734471)
(-0.16788 0.00187766 -0.00818098)
(-0.168449 0.00206673 -0.00902404)
(-0.169081 0.00239445 -0.00987488)
(-0.169797 0.00275418 -0.0107356)
(-0.170583 0.00299985 -0.0116091)
(-0.171367 0.0029246 -0.0124997)
(-0.171993 0.00224644 -0.013412)
(-0.172186 0.000611627 -0.0143517)
(-0.171509 -0.00236722 -0.0153245)
(-0.169331 -0.00702082 -0.0163343)
(-0.164831 -0.0134645 -0.0173804)
(-0.157089 -0.0213821 -0.018453)
(-0.166856 0.0288109 -0.0017747)
(-0.17337 0.0203261 -0.00248374)
(-0.177191 0.0137287 -0.00324329)
(-0.179357 0.00903153 -0.00403592)
(-0.180569 0.00590998 -0.00484834)
(-0.181258 0.00397225 -0.00567243)
(-0.181675 0.00288178 -0.00650351)
(-0.181962 0.00238812 -0.00733893)
(-0.1822 0.00231412 -0.00817743)
(-0.182439 0.00252827 -0.00901859)
(-0.182709 0.00291336 -0.00986265)
(-0.183026 0.00333446 -0.0107104)
(-0.183391 0.00360645 -0.0115634)
(-0.183774 0.00346204 -0.0124242)
(-0.184091 0.00252511 -0.0132968)
(-0.184164 0.000300697 -0.0141878)
(-0.18365 -0.00379399 -0.0151066)
(-0.181959 -0.0103207 -0.0160659)
(-0.178164 -0.0196008 -0.0170782)
(-0.170972 -0.0313432 -0.0181539)
(-0.175873 0.0367555 -0.00146277)
(-0.18033 0.0247558 -0.00226315)
(-0.182101 0.0160001 -0.00309381)
(-0.182625 0.0101233 -0.00393951)
(-0.182638 0.0064089 -0.00478896)
(-0.182483 0.00419248 -0.00563771)
(-0.182294 0.00297924 -0.00648445)
(-0.182111 0.00243719 -0.00732888)
(-0.181934 0.00235087 -0.00817093)
(-0.181758 0.00257256 -0.00901043)
(-0.181578 0.00297907 -0.00984696)
(-0.181401 0.00343234 -0.01068)
(-0.181246 0.00374003 -0.0115092)
(-0.181145 0.0036132 -0.0123349)
(-0.181129 0.00262162 -0.0131596)
(-0.181191 0.000153792 -0.0139899)
(-0.181199 -0.00459252 -0.0148393)
(-0.180749 -0.0125239 -0.0157295)
(-0.178931 -0.0244123 -0.0166919)
(-0.173957 -0.0403237 -0.0177757)
(-0.173745 0.0423002 -0.00102788)
(-0.174501 0.0264551 -0.00198781)
(-0.173166 0.01598 -0.0029241)
(-0.171536 0.00953867 -0.00383942)
(-0.170153 0.00575494 -0.00473213)
(-0.169109 0.00362526 -0.00560697)
(-0.168334 0.00250997 -0.00646908)
(-0.167722 0.00202958 -0.00732182)
(-0.167178 0.0019629 -0.00816689)
(-0.166631 0.0021733 -0.00900452)
(-0.16604 0.00255695 -0.00983361)
(-0.165394 0.00300171 -0.010652)
(-0.164722 0.00334694 -0.0114571)
(-0.164111 0.00333604 -0.0122462)
(-0.163711 0.00255423 -0.0130186)
(-0.163733 0.000345533 -0.0137786)
(-0.164371 -0.00427712 -0.0145419)
(-0.165639 -0.0126508 -0.0153383)
(-0.166977 -0.0263463 -0.0162214)
(-0.166151 -0.0465038 -0.0173124)
(-0.15849 0.0432879 -0.000527064)
(-0.15361 0.0238328 -0.00172975)
(-0.148504 0.0129228 -0.00279352)
(-0.144782 0.00706238 -0.00377862)
(-0.142283 0.00397349 -0.00470601)
(-0.140648 0.00237873 -0.00559758)
(-0.139543 0.00159855 -0.00646785)
(-0.138716 0.00128553 -0.00732425)
(-0.137993 0.00126267 -0.00816993)
(-0.137254 0.00143449 -0.00900511)
(-0.136427 0.00173745 -0.00982771)
(-0.135477 0.00210678 -0.0106337)
(-0.134426 0.00244559 -0.0114177)
(-0.133374 0.00258452 -0.0121733)
(-0.132542 0.0022167 -0.0128948)
(-0.132319 0.000782787 -0.0135813)
(-0.133253 -0.00271843 -0.0142477)
(-0.136025 -0.00995681 -0.0149268)
(-0.141116 -0.0236133 -0.015688)
(-0.146599 -0.047319 -0.0167644)
(-0.125698 0.0372112 -0.000249217)
(-0.113464 0.0159814 -0.00172092)
(-0.105318 0.00705912 -0.0028316)
(-0.100772 0.00327749 -0.0038238)
(-0.0981823 0.00162821 -0.00474368)
(-0.0966602 0.000899754 -0.00562565)
(-0.0957019 0.000587809 -0.00648907)
(-0.0950058 0.000483739 -0.00734142)
(-0.0943893 0.000501296 -0.00818475)
(-0.0937352 0.000603491 -0.0090179)
(-0.0929643 0.000771445 -0.00983714)
(-0.0920287 0.00098838 -0.0106363)
(-0.0909202 0.0012264 -0.0114066)
(-0.0896961 0.00142685 -0.0121369)
(-0.0885345 0.00146021 -0.012814)
(-0.0878241 0.00103473 -0.0134268)
(-0.0882437 -0.000524689 -0.0139834)
(-0.0910935 -0.00482614 -0.0144891)
(-0.0988355 -0.0154104 -0.0149876)
(-0.112544 -0.040243 -0.0158718)
(-0.0640085 0.0228141 -0.000896365)
(-0.0477464 0.00657363 -0.00235806)
(-0.0410892 0.0020021 -0.00311007)
(-0.0386809 0.000641716 -0.00385768)
(-0.037638 0.000219963 -0.00462195)
(-0.0371071 9.10405e-05 -0.00539927)
(-0.0367919 5.65874e-05 -0.00618731)
(-0.0365542 5.59928e-05 -0.00698088)
(-0.0363205 7.2436e-05 -0.00777497)
(-0.036043 0.000102614 -0.0085646)
(-0.035683 0.000147321 -0.00934364)
(-0.0352067 0.000208481 -0.0101036)
(-0.0345865 0.000287549 -0.0108324)
(-0.0338093 0.000382245 -0.0115125)
(-0.0328973 0.000476262 -0.0121189)
(-0.03196 0.00050776 -0.0126163)
(-0.0313379 0.000253879 -0.0129576)
(-0.0319858 -0.00113615 -0.0131069)
(-0.0375669 -0.00636997 -0.0129442)
(-0.0561294 -0.0255098 -0.0130985)
(-0.0305046 0.000686815 1.67728e-06)
(-0.0324646 0.00049674 1.17368e-06)
(-0.0338602 0.000339186 7.77333e-07)
(-0.0348115 0.000221712 4.90904e-07)
(-0.035443 0.000142024 3.01379e-07)
(-0.0358636 9.34589e-05 1.87418e-07)
(-0.0361597 6.8923e-05 1.28173e-07)
(-0.0363973 6.27768e-05 1.07905e-07)
(-0.0366269 7.119e-05 1.16371e-07)
(-0.0368874 9.16473e-05 1.46761e-07)
(-0.0372086 0.000122023 1.93998e-07)
(-0.0376103 0.000159406 2.53419e-07)
(-0.038098 0.000198758 3.17754e-07)
(-0.038655 0.000231514 3.74254e-07)
(-0.0392318 0.000244387 4.0213e-07)
(-0.0397331 0.000219015 3.68072e-07)
(-0.0400086 0.000133721 2.29834e-07)
(-0.0398513 -3.09172e-05 -3.80103e-08)
(-0.039016 -0.000286589 -5.10022e-07)
(-0.0372656 -0.000622073 -1.22081e-06)
(-0.0796929 0.00435596 -1.50162e-06)
(-0.0845374 0.00321945 -1.25299e-06)
(-0.088017 0.0022666 -9.9074e-07)
(-0.0904226 0.00154111 -7.56928e-07)
(-0.09205 0.00103348 -5.66226e-07)
(-0.0931551 0.000709017 -4.2587e-07)
(-0.0939416 0.000528398 -3.35541e-07)
(-0.0945639 0.000457806 -2.89724e-07)
(-0.0951375 0.000471292 -2.80064e-07)
(-0.0957476 0.000548561 -2.96805e-07)
(-0.096453 0.000670412 -3.28879e-07)
(-0.0972844 0.000812984 -3.61426e-07)
(-0.0982351 0.000941504 -3.73625e-07)
(-0.0992457 0.00100442 -3.38119e-07)
(-0.100183 0.000929594 -2.21441e-07)
(-0.100818 0.000625617 1.14094e-08)
(-0.10081 -6.96289e-06 3.83699e-07)
(-0.0997148 -0.00104997 8.85901e-07)
(-0.097023 -0.00252967 1.48787e-06)
(-0.0922565 -0.00436498 2.05406e-06)
(-0.11857 0.0113957 -1.86166e-07)
(-0.125167 0.00840644 -3.22888e-07)
(-0.129797 0.00592343 -3.53671e-07)
(-0.132938 0.00404324 -3.36212e-07)
(-0.13503 0.00272838 -2.87435e-07)
(-0.136434 0.00188216 -2.29697e-07)
(-0.137422 0.00139953 -1.77231e-07)
(-0.13819 0.00119076 -1.35808e-07)
(-0.138881 0.00118589 -1.05971e-07)
(-0.139594 0.00132868 -8.55594e-08)
(-0.140394 0.00156542 -7.14307e-08)
(-0.14131 0.00183145 -5.91641e-08)
(-0.142324 0.00203695 -4.3152e-08)
(-0.143355 0.00205424 -1.68974e-08)
(-0.144231 0.00171027 2.80494e-08)
(-0.14466 0.000791405 9.86648e-08)
(-0.144208 -0.000929536 1.90793e-07)
(-0.142299 -0.00363511 2.98527e-07)
(-0.138251 -0.00736882 4.09229e-07)
(-0.131395 -0.0119228 3.48004e-07)
(-0.14763 0.0199483 -2.94151e-07)
(-0.154803 0.0144847 -4.73844e-07)
(-0.159564 0.0100589 -4.70482e-07)
(-0.162627 0.00678302 -4.18356e-07)
(-0.164573 0.00453331 -3.33183e-07)
(-0.165826 0.00310173 -2.46813e-07)
(-0.166677 0.00228486 -1.75028e-07)
(-0.167318 0.0019183 -1.20745e-07)
(-0.16788 0.00187814 -8.22078e-08)
(-0.168449 0.00206721 -5.59804e-08)
(-0.16908 0.00239491 -3.90793e-08)
(-0.169797 0.00275453 -2.8615e-08)
(-0.170583 0.00300001 -2.1578e-08)
(-0.171366 0.00292446 -1.35524e-08)
(-0.171992 0.00224598 6.55699e-09)
(-0.172184 0.000610928 5.07295e-08)
(-0.171507 -0.00236801 1.0415e-07)
(-0.169328 -0.0070208 2.04708e-07)
(-0.164831 -0.0134621 3.96514e-07)
(-0.157095 -0.0213793 3.4957e-07)
(-0.166865 0.028802 -7.99372e-07)
(-0.17337 0.0203186 -8.95642e-07)
(-0.177188 0.0137251 -7.25412e-07)
(-0.179354 0.00903021 -5.67266e-07)
(-0.180566 0.00590994 -3.99541e-07)
(-0.181256 0.00397281 -2.62768e-07)
(-0.181674 0.00288251 -1.68033e-07)
(-0.181961 0.00238881 -1.06894e-07)
(-0.182199 0.00231471 -7.01652e-08)
(-0.182438 0.00252874 -5.03655e-08)
(-0.182708 0.0029137 -4.28106e-08)
(-0.183026 0.00333464 -4.43049e-08)
(-0.183391 0.00360642 -5.22625e-08)
(-0.183773 0.00346174 -6.16977e-08)
(-0.18409 0.00252457 -5.30727e-08)
(-0.184162 0.000300156 6.93094e-10)
(-0.183647 -0.00379405 5.30785e-08)
(-0.181954 -0.0103186 2.02307e-07)
(-0.178161 -0.0195923 6.95855e-07)
(-0.170982 -0.0313303 9.9491e-07)
(-0.175889 0.0367376 -1.70815e-06)
(-0.180326 0.0247437 -1.45635e-06)
(-0.182094 0.0159964 -9.11964e-07)
(-0.18262 0.0101231 -6.10728e-07)
(-0.182634 0.00641003 -3.59418e-07)
(-0.182481 0.00419393 -1.89543e-07)
(-0.182293 0.00298054 -9.39782e-08)
(-0.18211 0.00243822 -4.33208e-08)
(-0.181934 0.00235167 -1.8613e-08)
(-0.181758 0.00257318 -9.01825e-09)
(-0.181578 0.00297954 -9.53606e-09)
(-0.181401 0.00343267 -1.83184e-08)
(-0.181246 0.00374019 -3.53111e-08)
(-0.181145 0.0036131 -5.97249e-08)
(-0.181128 0.00262126 -7.37471e-08)
(-0.181189 0.000153474 -4.27892e-08)
(-0.181194 -0.00459198 -2.18023e-08)
(-0.180738 -0.0125201 1.12963e-07)
(-0.178921 -0.0243961 1.19508e-06)
(-0.173973 -0.0402963 2.52355e-06)
(-0.173777 0.0422755 -4.54659e-06)
(-0.174486 0.026447 -2.99898e-06)
(-0.173151 0.0159836 -1.38481e-06)
(-0.171529 0.00954299 -7.22049e-07)
(-0.170149 0.00575847 -3.0698e-07)
(-0.169107 0.00362787 -9.48454e-08)
(-0.168333 0.00251177 -1.16427e-08)
(-0.167721 0.00203085 1.56205e-08)
(-0.167177 0.00196389 1.90773e-08)
(-0.166631 0.00217418 1.16562e-08)
(-0.166041 0.00255782 -2.5251e-09)
(-0.165394 0.00300259 -2.29803e-08)
(-0.164722 0.00334776 -5.05552e-08)
(-0.164111 0.0033366 -8.79114e-08)
(-0.163711 0.00255422 -1.17028e-07)
(-0.163731 0.000344957 -6.17512e-08)
(-0.164364 -0.00427865 7.27088e-08)
(-0.165619 -0.0126533 3.63708e-07)
(-0.166952 -0.0263349 2.88589e-06)
(-0.166184 -0.0464684 6.93396e-06)
(-0.15855 0.0432468 -7.72533e-06)
(-0.153578 0.023843 -3.13473e-06)
(-0.148486 0.0129445 -6.34667e-07)
(-0.144777 0.00707462 -2.41674e-07)
(-0.142282 0.00397973 3.11895e-08)
(-0.140647 0.00238212 1.27322e-07)
(-0.139543 0.00160049 1.20285e-07)
(-0.138716 0.00128687 9.87523e-08)
(-0.137993 0.00126389 8.18604e-08)
(-0.137254 0.00143587 7.0111e-08)
(-0.136427 0.00173914 6.039e-08)
(-0.135477 0.00210884 4.81533e-08)
(-0.134426 0.00244792 2.61907e-08)
(-0.133375 0.00258669 -2.60526e-08)
(-0.132543 0.00221783 -1.03026e-07)
(-0.132319 0.000781364 -3.4989e-08)
(-0.133252 -0.00272689 9.61583e-08)
(-0.136005 -0.00997916 -3.55237e-07)
(-0.141071 -0.0236264 2.55348e-06)
(-0.146659 -0.0472634 1.10829e-05)
(-0.125771 0.0370152 -9.6555e-06)
(-0.113396 0.0159221 4.2765e-06)
(-0.105306 0.00704815 4.78278e-06)
(-0.100781 0.00327035 2.03967e-06)
(-0.0981877 0.0016229 1.05449e-06)
(-0.0966628 0.00089645 6.39576e-07)
(-0.0957033 0.000585641 4.0146e-07)
(-0.0950063 0.000482122 3.03545e-07)
(-0.0943892 0.000499891 2.91484e-07)
(-0.0937348 0.000602071 3.28072e-07)
(-0.0929638 0.000769861 3.93896e-07)
(-0.0920284 0.000986581 4.72266e-07)
(-0.0909205 0.00122447 5.33709e-07)
(-0.0896978 0.00142517 5.02431e-07)
(-0.088538 0.00145951 2.81875e-07)
(-0.0878328 0.00103598 -7.63466e-08)
(-0.0882626 -0.000521389 -1.28951e-06)
(-0.0910899 -0.0048189 -5.93316e-06)
(-0.098746 -0.0153464 -8.04128e-06)
(-0.112596 -0.0399885 1.20009e-05)
(-0.0640509 0.0226697 -5.3602e-05)
(-0.0475881 0.00650509 -9.09326e-06)
(-0.0410445 0.0019745 -6.51582e-07)
(-0.0386766 0.000626134 -1.46153e-06)
(-0.037635 0.000210894 -9.49179e-07)
(-0.037105 8.59414e-05 -4.45119e-07)
(-0.036791 5.3485e-05 -2.51655e-07)
(-0.0365539 5.37347e-05 -1.78333e-07)
(-0.0363204 7.03858e-05 -1.57924e-07)
(-0.0360431 0.000100388 -1.73604e-07)
(-0.0356832 0.000144684 -2.14742e-07)
(-0.0352071 0.000205338 -2.71046e-07)
(-0.0345869 0.000284029 -3.2797e-07)
(-0.0338093 0.000378933 -3.59427e-07)
(-0.0328962 0.000474495 -2.75167e-07)
(-0.031959 0.00050975 1.68009e-07)
(-0.0313403 0.000263189 6.00056e-07)
(-0.0319442 -0.0011127 -1.9751e-06)
(-0.0373524 -0.00629633 3.94714e-06)
(-0.0561164 -0.0253163 6.77056e-05)
(-0.0305046 0.000686815 -1.67729e-06)
(-0.0324646 0.00049674 -1.17331e-06)
(-0.0338602 0.000339186 -7.76751e-07)
(-0.0348115 0.000221712 -4.90578e-07)
(-0.035443 0.000142024 -3.01318e-07)
(-0.0358636 9.3459e-05 -1.8738e-07)
(-0.0361597 6.89231e-05 -1.28322e-07)
(-0.0363973 6.27769e-05 -1.08345e-07)
(-0.0366269 7.11901e-05 -1.16711e-07)
(-0.0368873 9.16474e-05 -1.47007e-07)
(-0.0372086 0.000122023 -1.94496e-07)
(-0.0376103 0.000159406 -2.53916e-07)
(-0.038098 0.000198758 -3.17886e-07)
(-0.038655 0.000231514 -3.74181e-07)
(-0.0392318 0.000244387 -4.02041e-07)
(-0.039733 0.000219015 -3.67843e-07)
(-0.0400086 0.000133721 -2.29308e-07)
(-0.0398513 -3.09174e-05 3.88132e-08)
(-0.039016 -0.000286589 5.11049e-07)
(-0.0372656 -0.000622073 1.22211e-06)
(-0.0796929 0.00435596 1.50202e-06)
(-0.0845374 0.00321945 1.2537e-06)
(-0.088017 0.0022666 9.91536e-07)
(-0.0904226 0.00154111 7.5746e-07)