/*--------------------------------*- C++ -*----------------------------------*\
| =========                 |                                                 |
| \\      /  F ield         | OpenFOAM: The Open Source CFD Toolbox           |
|  \\    /   O peration     | Version:  2.4.0                                 |
|   \\  /    A nd           | Web:      www.OpenFOAM.org                      |
|    \\/     M anipulation  |                                                 |
\*---------------------------------------------------------------------------*/
FoamFile
{
    version     2.0;
    format      ascii;
    class       volScalarField;
    location    "0.0001";
    object      T;
}
// * * * * * * * * * * * * * * * * * * * * * * * * * * * * * * * * * * * * * //

dimensions      [0 0 0 1 0 0 0];

internalField   nonuniform List<scalar> 
4800
(
88.8311
80.3732
76.7002
74.965
74.1089
73.6822
73.4759
73.3868
73.3611
73.3687
80.3732
61.4513
52.1313
47.4423
45.0563
43.8516
43.2714
43.0302
42.975
43.0182
76.7001
52.1312
39.2225
32.4425
28.9025
27.1003
26.2504
25.9346
25.9204
26.0668
74.9649
47.4421
32.4423
24.3409
20.0427
17.8654
16.8981
16.6415
16.8048
17.1944
74.1087
45.0559
28.9021
20.0425
15.3255
13.0031
12.1155
12.1286
12.714
13.6161
73.682
43.8511
27.0996
17.8648
13.0027
10.7691
10.218
10.8334
12.2792
14.2163
73.4756
43.2708
26.2495
16.8973
12.1149
10.2177
10.3469
12.0927
15.1898
19.2022
73.3865
43.0296
25.9336
16.6405
12.1278
10.8328
12.0925
15.7793
21.9314
30.1414
73.3608
42.9744
25.9194
16.8037
12.713
12.2784
15.1893
21.9312
33.4678
50.2332
73.3684
43.0176
26.0659
17.1933
13.6151
14.2155
19.2015
30.1409
50.2328
83.9616
88.8311
80.3732
76.7002
74.965
74.1089
73.6822
73.4759
73.3868
73.3611
73.3687
80.3732
61.4513
52.1313
47.4423
45.0563
43.8516
43.2714
43.0302
42.975
43.0182
76.7001
52.1312
39.2226
32.4425
28.9025
27.1003
26.2504
25.9346
25.9203
26.0668
74.9648
47.4421
32.4423
24.3409
20.0428
17.8654
16.8981
16.6415
16.8048
17.1944
74.1087
45.0559
28.9021
20.0425
15.3255
13.0031
12.1155
12.1286
12.714
13.6161
73.6819
43.8511
27.0997
17.8648
13.0027
10.7691
10.218
10.8334
12.2792
14.2163
73.4756
43.2708
26.2495
16.8973
12.1149
10.2177
10.3469
12.0928
15.1898
19.2022
73.3865
43.0296
25.9336
16.6405
12.1278
10.8328
12.0925
15.7794
21.9314
30.1414
73.3608
42.9744
25.9194
16.8037
12.7131
12.2785
15.1894
21.9312
33.4678
50.2332
73.3685
43.0177
26.0659
17.1934
13.6152
14.2155
19.2016
30.141
50.233
83.9617
88.8311
80.3732
76.7002
74.965
74.1089
73.6822
73.4759
73.3868
73.3611
73.3687
80.3732
61.4513
52.1313
47.4423
45.0563
43.8516
43.2714
43.0302
42.975
43.0182
76.7001
52.1312
39.2226
32.4425
28.9025
27.1003
26.2504
25.9345
25.9203
26.0668
74.9649
47.4421
32.4423
24.3409
20.0428
17.8654
16.8981
16.6415
16.8048
17.1944
74.1087
45.0559
28.9021
20.0425
15.3255
13.0031
12.1155
12.1286
12.714
13.6161
73.6819
43.8511
27.0997
17.8648
13.0027
10.7691
10.218
10.8334
12.2792
14.2163
73.4756
43.2708
26.2495
16.8973
12.1149
10.2177
10.347
12.0928
15.1898
19.2022
73.3865
43.0296
25.9336
16.6405
12.1278
10.8328
12.0925
15.7794
21.9314
30.1414
73.3608
42.9744
25.9194
16.8037
12.713
12.2785
15.1894
21.9312
33.4678
50.2332
73.3685
43.0177
26.0659
17.1934
13.6152
14.2155
19.2016
30.141
50.233
83.9617
88.8311
80.3732
76.7002
74.965
74.1089
73.6822
73.4759
73.3868
73.3611
73.3687
80.3732
61.4513
52.1313
47.4423
45.0563
43.8516
43.2714
43.0302
42.975
43.0182
76.7001
52.1312
39.2226
32.4425
28.9025
27.1003
26.2504
25.9345
25.9203
26.0668
74.9649
47.4421
32.4423
24.3409
20.0428
17.8654
16.8981
16.6415
16.8048
17.1944
74.1087
45.056
28.9021
20.0425
15.3255
13.0031
12.1155
12.1286
12.714
13.6161
73.6819
43.8511
27.0997
17.8648
13.0027
10.7691
10.218
10.8334
12.2792
14.2164
73.4756
43.2708
26.2495
16.8973
12.1149
10.2177
10.3469
12.0927
15.1898
19.2022
73.3865
43.0295
25.9336
16.6405
12.1278
10.8328
12.0925
15.7793
21.9314
30.1414
73.3608
42.9744
25.9193
16.8037
12.713
12.2784
15.1893
21.9312
33.4678
50.2332
73.3684
43.0176
26.0659
17.1934
13.6151
14.2155
19.2015
30.1409
50.2328
83.9616
73.3917
73.4192
73.4448
73.4658
73.4815
73.4924
73.4996
73.5041
73.5067
73.5078
73.5078
73.5067
73.5041
73.4997
73.4925
73.4815
73.4658
73.4448
73.4192
73.3917
43.1055
43.2028
43.2905
43.3606
43.4119
43.4472
43.47
43.4841
43.492
43.4955
43.4956
43.492
43.4841
43.4701
43.4472
43.4119
43.3605
43.2904
43.2025
43.1052
26.2799
26.4967
26.6822
26.8243
26.9247
26.9915
27.0337
27.059
27.073
27.0792
27.0792
27.073
27.059
27.0336
26.9914
26.9246
26.8241
26.6818
26.4961
26.2792
17.6628
18.1018
18.4555
18.7122
18.8851
18.9952
19.0621
19.101
19.122
19.1312
19.1312
19.122
19.101
19.062
18.995
18.8849
18.7119
18.455
18.1011
17.6619
14.5943
15.4488
16.0928
16.5315
16.8099
16.9779
17.0755
17.13
17.1586
17.1707
17.1707
17.1585
17.1299
17.0753
16.9777
16.8096
16.5311
16.0923
15.4481
14.5935
16.2101
17.8337
18.9645
19.677
20.098
20.3366
20.4679
20.538
20.5735
20.5883
20.5883
20.5735
20.5379
20.4677
20.3364
20.0978
19.6766
18.9639
17.833
16.2093
23.2613
26.2843
28.1806
29.2629
29.8493
30.1579
30.3176
30.3988
30.4385
30.4546
30.4545
30.4384
30.3987
30.3175
30.1577
29.849
29.2626
28.1801
26.2837
23.2606
38.6174
44.0755
47.017
48.4896
49.2062
49.5525
49.72
49.8009
49.839
49.8541
49.854
49.8389
49.8009
49.7199
49.5524
49.2061
48.4894
47.0167
44.075
38.6167
69.0588
78.1569
82.0152
83.6253
84.3106
84.611
84.7465
84.8088
84.8371
84.8481
84.8481
84.8371
84.8088
84.7465
84.611
84.3106
83.6253
82.015
78.1563
69.0576
130.809
141.902
144.892
145.819
146.147
146.275
146.33
146.353
146.364
146.368
146.368
146.364
146.353
146.33
146.275
146.147
145.819
144.892
141.903
130.809
73.3917
73.4192
73.4448
73.4657
73.4814
73.4923
73.4995
73.5039
73.5065
73.5076
73.5076
73.5065
73.5039
73.4994
73.4922
73.4812
73.4655
73.4445
73.4188
73.3913
43.1055
43.2027
43.2905
43.3605
43.4118
43.447
43.4699
43.4839
43.4918
43.4954
43.4954
43.4918
43.4839
43.4698
43.4469
43.4116
43.3602
43.29
43.2021
43.1048
26.2799
26.4966
26.6822
26.8242
26.9247
26.9914
27.0336
27.0589
27.0729
27.079
27.079
27.0728
27.0588
27.0334
26.9912
26.9244
26.8238
26.6816
26.4959
26.279
17.6627
18.1017
18.4554
18.7122
18.8851
18.9951
19.0621
19.101
19.122
19.1311
19.131
19.1219
19.1009
19.0619
18.9949
18.8847
18.7117
18.4548
18.1009
17.6618
14.5943
15.4488
16.0928
16.5314
16.8098
16.9779
17.0754
17.1299
17.1585
17.1706
17.1706
17.1584
17.1298
17.0752
16.9776
16.8094
16.5309
16.0921
15.4479
14.5933
16.2101
17.8337
18.9644
19.6769
20.098
20.3366
20.4678
20.5379
20.5734
20.5882
20.5882
20.5733
20.5378
20.4676
20.3363
20.0976
19.6764
18.9637
17.8328
16.2091
23.2613
26.2843
28.1805
29.2629
29.8492
30.1578
30.3175
30.3987
30.4383
30.4544
30.4544
30.4382
30.3985
30.3172
30.1575
29.8488
29.2623
28.1799
26.2835
23.2604
38.6174
44.0755
47.0169
48.4895
49.2061
49.5523
49.7198
49.8007
49.8387
49.8538
49.8538
49.8386
49.8006
49.7196
49.552
49.2057
48.489
47.0163
44.0746
38.6163
69.0588
78.1568
82.0151
83.6252
84.3104
84.6108
84.7463
84.8085
84.8368
84.8477
84.8477
84.8367
84.8084
84.746
84.6105
84.31
83.6248
82.0145
78.1557
69.057
130.809
141.902
144.891
145.819
146.147
146.275
146.329
146.353
146.364
146.368
146.368
146.364
146.353
146.329
146.275
146.146
145.819
144.891
141.902
130.808
73.3917
73.4192
73.4448
73.4657
73.4814
73.4923
73.4995
73.504
73.5065
73.5076
73.5076
73.5065
73.5039
73.4994
73.4922
73.4812
73.4655
73.4445
73.4188
73.3913
43.1055
43.2027
43.2905
43.3605
43.4118
43.447
43.4699
43.484
43.4919
43.4954
43.4954
43.4918
43.4839
43.4698
43.4469
43.4116
43.3602
43.29
43.2022
43.1048
26.2799
26.4966
26.6822
26.8243
26.9247
26.9914
27.0336
27.0589
27.0729
27.079
27.079
27.0728
27.0588
27.0334
26.9912
26.9244
26.8239
26.6816
26.4959
26.279
17.6628
18.1017
18.4554
18.7122
18.8851
18.9951
19.062
19.1009
19.1219
19.131
19.131
19.1219
19.1008
19.0619
18.9949
18.8847
18.7117
18.4548
18.1009
17.6617
14.5943
15.4487
16.0928
16.5314
16.8098
16.9778
17.0754
17.1299
17.1585
17.1706
17.1706
17.1584
17.1298
17.0752
16.9776
16.8094
16.5309
16.0921
15.4479
14.5933
16.2101
17.8337
18.9644
19.6769
20.098
20.3366
20.4678
20.5379
20.5734
20.5882
20.5882
20.5734
20.5378
20.4676
20.3363
20.0976
19.6764
18.9637
17.8329
16.2092
23.2613
26.2843
28.1805
29.2629
29.8492
30.1578
30.3175
30.3987
30.4383
30.4544
30.4544
30.4382
30.3985
30.3172
30.1575
29.8488
29.2623
28.1799
26.2835
23.2604
38.6174
44.0755
47.0169
48.4895
49.2061
49.5523
49.7198
49.8008
49.8387
49.8538
49.8538
49.8386
49.8006
49.7196
49.552
49.2057
48.489
47.0163
44.0746
38.6163
69.0588
78.1568
82.0151
83.6252
84.3104
84.6108
84.7462
84.8085
84.8368
84.8477
84.8477
84.8367
84.8084
84.746
84.6105
84.31
83.6248
82.0145
78.1557
69.057
130.809
141.902
144.891
145.819
146.147
146.275
146.329
146.353
146.364
146.368
146.368
146.364
146.353
146.329
146.275
146.146
145.819
144.891
141.902
130.808
73.3917
73.4192
73.4448
73.4658
73.4815
73.4924
73.4996
73.5041
73.5067
73.5078
73.5078
73.5067
73.5041
73.4997
73.4925
73.4815
73.4658
73.4448
73.4192
73.3917
43.1055
43.2028
43.2905
43.3606
43.4119
43.4472
43.4701
43.4841
43.492
43.4956
43.4956
43.4921
43.4841
43.4701
43.4472
43.4119
43.3605
43.2904
43.2025
43.1052
26.2799
26.4967
26.6822
26.8243
26.9247
26.9915
27.0337
27.059
27.073
27.0792
27.0792
27.073
27.0589
27.0336
26.9914
26.9246
26.8241
26.6819
26.4961
26.2792
17.6628
18.1018
18.4555
18.7122
18.8851
18.9952
19.0621
19.101
19.122
19.1312
19.1311
19.122
19.101
19.062
18.995
18.8849
18.7119
18.455
18.1011
17.6619
14.5943
15.4488
16.0928
16.5315
16.8099
16.9779
17.0755
17.13
17.1585
17.1707
17.1707
17.1585
17.1299
17.0753
16.9777
16.8096
16.5311
16.0923
15.4481
14.5935
16.2101
17.8337
18.9644
19.677
20.098
20.3366
20.4679
20.538
20.5735
20.5883
20.5883
20.5735
20.5379
20.4677
20.3364
20.0977
19.6766
18.9639
17.833
16.2093
23.2613
26.2843
28.1806
29.2629
29.8493
30.1579
30.3176
30.3988
30.4385
30.4546
30.4546
30.4384
30.3988
30.3175
30.1577
29.849
29.2626
28.1801
26.2838
23.2606
38.6174
44.0755
47.017
48.4896
49.2062
49.5525
49.72
49.8009
49.839
49.8541
49.8541
49.8389
49.8009
49.7199
49.5524
49.2061
48.4894
47.0167
44.075
38.6167
69.0589
78.1569
82.0152
83.6254
84.3106
84.611
84.7465
84.8088
84.8371
84.8481
84.8481
84.8371
84.8088
84.7465
84.611
84.3106
83.6253
82.015
78.1563
69.0575
130.809
141.902
144.892
145.819
146.147
146.275
146.33
146.353
146.364
146.368
146.368
146.364
146.353
146.33
146.275
146.147
145.819
144.892
141.903
130.809
73.3686
73.361
73.3867
73.4758
73.6822
74.109
74.9651
76.7004
80.3735
88.8313
43.0178
42.9746
43.0298
43.271
43.8514
45.0562
47.4424
52.1316
61.4517
80.3735
26.066
25.9195
25.9337
26.2497
27.0998
28.9023
32.4426
39.2229
52.1316
76.7004
17.1935
16.8038
16.6406
16.8974
17.8649
20.0426
24.3411
32.4427
47.4426
74.9652
13.6152
12.7131
12.1279
12.1149
13.0028
15.3256
20.0429
28.9027
45.0565
74.1092
14.2156
12.2785
10.8329
10.2177
10.7691
13.0031
17.8655
27.1005
43.8519
73.6824
19.2016
15.1894
12.0925
10.347
10.2181
12.1156
16.8982
26.2505
43.2717
73.4761
30.1411
21.9313
15.7794
12.0928
10.8334
12.1287
16.6416
25.9347
43.0304
73.387
50.2332
33.468
21.9316
15.1899
12.2793
12.7141
16.8049
25.9205
42.9753
73.3613
83.962
50.2335
30.1416
19.2023
14.2164
13.6162
17.1945
26.067
43.0184
73.3689
73.3682
73.3606
73.3863
73.4754
73.6817
74.1085
74.9646
76.6999
80.3729
88.8309
43.0174
42.9741
43.0293
43.2706
43.8509
45.0557
47.4419
52.131
61.451
80.373
26.0658
25.9192
25.9334
26.2493
27.0995
28.9019
32.4421
39.2224
52.131
76.6999
17.1933
16.8036
16.6404
16.8971
17.8647
20.0423
24.3407
32.4423
47.4421
74.9648
13.615
12.713
12.1277
12.1148
13.0026
15.3253
20.0426
28.9023
45.056
74.1087
14.2154
12.2783
10.8327
10.2176
10.769
13.0029
17.8652
27.1001
43.8514
73.682
19.2014
15.1892
12.0924
10.3468
10.2179
12.1154
16.898
26.2502
43.2712
73.4757
30.1408
21.9311
15.7792
12.0926
10.8333
12.1285
16.6414
25.9344
43.0299
73.3866
50.2327
33.4676
21.9313
15.1897
12.2791
12.7139
16.8046
25.9202
42.9748
73.3608
83.9613
50.2329
30.1412
19.202
14.2162
13.616
17.1942
26.0666
43.0179
73.3684
73.3682
73.3606
73.3863
73.4754
73.6817
74.1085
74.9646
76.6999
80.3729
88.8309
43.0174
42.9742
43.0293
43.2706
43.8509
45.0557
47.4419
52.131
61.451
80.373
26.0658
25.9192
25.9334
26.2493
27.0995
28.9019
32.4421
39.2224
52.131
76.6999
17.1932
16.8036
16.6404
16.8971
17.8647
20.0423
24.3407
32.4423
47.4421
74.9648
13.615
12.7129
12.1277
12.1148
13.0026
15.3253
20.0426
28.9023
45.056
74.1087
14.2154
12.2784
10.8327
10.2176
10.769
13.0029
17.8653
27.1001
43.8514
73.682
19.2014
15.1892
12.0924
10.3468
10.2179
12.1154
16.898
26.2502
43.2712
73.4757
30.1408
21.9311
15.7792
12.0926
10.8333
12.1285
16.6414
25.9344
43.0299
73.3866
50.2327
33.4676
21.9313
15.1897
12.2791
12.7139
16.8046
25.9201
42.9747
73.3608
83.9613
50.2329
30.1412
19.202
14.2162
13.616
17.1942
26.0666
43.0179
73.3684
73.3686
73.361
73.3867
73.4758
73.6822
74.109
74.9651
76.7004
80.3735
88.8313
43.0178
42.9746
43.0298
43.2711
43.8514
45.0562
47.4424
52.1316
61.4517
80.3735
26.066
25.9195
25.9337
26.2496
27.0998
28.9022
32.4425
39.2229
52.1316
76.7004
17.1935
16.8038
16.6406
16.8974
17.8649
20.0426
24.3411
32.4427
47.4426
74.9653
13.6152
12.7131
12.1278
12.1149
13.0028
15.3256
20.0429
28.9027
45.0566
74.1092
14.2156
12.2785
10.8329
10.2177
10.7691
13.0031
17.8655
27.1005
43.8519
73.6824
19.2017
15.1894
12.0925
10.347
10.2181
12.1156
16.8982
26.2505
43.2717
73.4761
30.1411
21.9313
15.7794
12.0928
10.8334
12.1287
16.6416
25.9347
43.0304
73.387
50.2331
33.468
21.9315
15.1899
12.2793
12.7141
16.8049
25.9205
42.9752
73.3613
83.962
50.2335
30.1416
19.2023
14.2164
13.6162
17.1945
26.0669
43.0184
73.3689
130.809
69.0592
38.6176
23.2615
16.2102
14.5944
17.6629
26.28
43.1058
73.392
141.903
78.1573
44.0758
26.2845
17.8338
15.4489
18.1019
26.4968
43.203
73.4194
144.892
82.0157
47.0173
28.1808
18.9646
16.0929
18.4556
26.6824
43.2908
73.445
145.82
83.6258
48.4899
29.2631
19.6771
16.5316
18.7123
26.8245
43.3608
73.466
146.147
84.311
49.2066
29.8495
20.0982
16.81
18.8852
26.9249
43.4122
73.4817
146.276
84.6115
49.5528
30.1581
20.3368
16.978
18.9953
26.9916
43.4474
73.4926
146.33
84.747
49.7203
30.3178
20.468
17.0755
19.0622
27.0338
43.4703
73.4998
146.354
84.8093
49.8013
30.399
20.5381
17.13
19.101
27.059
43.4843
73.5043
146.365
84.8375
49.8392
30.4386
20.5735
17.1585
19.1219
27.073
43.4922
73.5068
146.369
84.8485
49.8542
30.4545
20.5881
17.1705
19.1309
27.079
43.4956
73.508
146.369
84.8483
49.8539
30.4542
20.5877
17.1701
19.1306
27.0788
43.4954
73.5079
146.364
84.8369
49.8383
30.4374
20.5722
17.1572
19.1209
27.0721
43.4916
73.5067
146.354
84.8079
49.7992
30.3964
20.5354
17.1274
19.0988
27.0573
43.4832
73.504
146.329
84.7443
49.7161
30.3128
20.4627
17.0706
19.058
27.0306
43.4683
73.4992
146.274
84.606
49.5447
30.1485
20.3269
16.9688
18.9875
26.9857
43.4437
73.4914
146.143
84.3001
49.1908
29.8314
20.0798
16.7931
18.871
26.9141
43.4055
73.4795
145.811
83.604
48.4594
29.229
19.6431
16.5005
18.6863
26.8049
43.3487
73.462
144.874
81.9714
46.9583
28.1165
18.9018
16.0362
18.4082
26.6468
43.2686
73.4377
141.862
78.0659
43.9615
26.1644
17.7185
15.3455
18.0158
26.4321
43.1628
73.4059
130.699
68.867
38.3975
23.0389
16
14.4072
17.5071
26.1628
43.0328
73.3674
130.809
69.0585
38.6171
23.2611
16.21
14.5942
17.6626
26.2797
43.1052
73.3915
141.902
78.1564
44.0752
26.2841
17.8336
15.4486
18.1016
26.4964
43.2024
73.4189
144.891
82.0147
47.0166
28.1803
18.9643
16.0927
18.4553
26.682
43.2902
73.4445
145.818
83.6248
48.4892
29.2627
19.6768
16.5313
18.712
26.8241
43.3603
73.4655
146.146
84.3099
49.2058
29.849
20.0978
16.8097
18.8849
26.9245
43.4116
73.4811
146.275
84.6103
49.552
30.1576
20.3364
16.9777
18.9949
26.9912
43.4468
73.492
146.329
84.7458
49.7195
30.3173
20.4676
17.0752
19.0618
27.0333
43.4696
73.4992
146.353
84.8081
49.8004
30.3985
20.5377
17.1297
19.1007
27.0586
43.4836
73.5037
146.363
84.8363
49.8384
30.438
20.5731
17.1581
19.1216
27.0725
43.4915
73.5062
146.367
84.8472
49.8533
30.4539
20.5877
17.1701
19.1305
27.0785
43.4949
73.5073
146.367
84.8469
49.853
30.4536
20.5873
17.1697
19.1302
27.0783
43.4947
73.5072
146.363
84.8355
49.8373
30.4367
20.5718
17.1569
19.1205
27.0716
43.4909
73.506
146.352
84.8065
49.7982
30.3958
20.5349
17.127
19.0984
27.0568
43.4825
73.5033
146.328
84.7428
49.7151
30.3121
20.4623
17.0702
19.0575
27.03
43.4675
73.4985
146.272
84.6045
49.5436
30.1479
20.3265
16.9684
18.9871
26.9852
43.443
73.4907
146.142
84.2986
49.1898
29.8307
20.0794
16.7927
18.8705
26.9136
43.4047
73.4788
145.81
83.6024
48.4584
29.2283
19.6426
16.5001
18.6859
26.8043
43.3479
73.4613
144.873
81.9698
46.9572
28.1159
18.9013
16.0358
18.4078
26.6462
43.2679
73.4369
141.86
78.0644
43.9605
26.1638
17.7181
15.3452
18.0154
26.4316
43.162
73.4052
130.697
68.8657
38.3966
23.0383
15.9996
14.4068
17.5066
26.1622
43.032
73.3666
130.809
69.0585
38.6171
23.2611
16.2099
14.5942
17.6626
26.2797
43.1052
73.3915
141.902
78.1564
44.0752
26.2841
17.8335
15.4486
18.1016
26.4964
43.2024
73.4189
144.891
82.0147
47.0166
28.1803
18.9643
16.0927
18.4553
26.682
43.2902
73.4445
145.818
83.6247
48.4892
29.2627
19.6768
16.5313
18.712
26.8241
43.3603
73.4655
146.146
84.3099
49.2058
29.849
20.0978
16.8097
18.8849
26.9245
43.4116
73.4811
146.275
84.6103
49.552
30.1576
20.3364
16.9777
18.9949
26.9912
43.4468
73.492
146.329
84.7458
49.7195
30.3173
20.4676
17.0752
19.0618
27.0333
43.4696
73.4992
146.353
84.8081
49.8004
30.3985
20.5377
17.1297
19.1007
27.0586
43.4836
73.5037
146.363
84.8363
49.8384
30.438
20.5731
17.1582
19.1216
27.0725
43.4915
73.5062
146.367
84.8472
49.8533
30.4539
20.5877
17.1701
19.1305
27.0785
43.4949
73.5073
146.367
84.8469
49.853
30.4535
20.5873
17.1697
19.1302
27.0783
43.4947
73.5072
146.363
84.8355
49.8373
30.4367
20.5718
17.1569
19.1205
27.0716
43.4909
73.506
146.352
84.8065
49.7982
30.3958
20.5349
17.1271
19.0984
27.0568
43.4825
73.5033
146.328
84.7428
49.7151
30.3121
20.4623
17.0702
19.0576
27.03
43.4675
73.4985
146.272
84.6045
49.5436
30.1479
20.3265
16.9684
18.9871
26.9852
43.443
73.4907
146.142
84.2986
49.1898
29.8307
20.0794
16.7927
18.8705
26.9136
43.4047
73.4788
145.81
83.6024
48.4584
29.2283
19.6426
16.5002
18.6859
26.8043
43.3479
73.4613
144.873
81.9698
46.9573
28.1159
18.9013
16.0358
18.4077
26.6462
43.2679
73.4369
141.86
78.0644
43.9606
26.1638
17.7181
15.3452
18.0154
26.4316
43.162
73.4052
130.697
68.8657
38.3966
23.0383
15.9996
14.4068
17.5066
26.1622
43.032
73.3666
130.809
69.0593
38.6176
23.2614
16.2102
14.5944
17.6629
26.28
43.1057
73.392
141.903
78.1573
44.0758
26.2845
17.8338
15.4489
18.1019
26.4968
43.203
73.4194
144.892
82.0157
47.0173
28.1808
18.9646
16.0929
18.4556
26.6824
43.2908
73.4451
145.82
83.6258
48.4899
29.2631
19.6771
16.5316
18.7124
26.8245
43.3608
73.466
146.147
84.3111
49.2066
29.8495
20.0982
16.81
18.8852
26.9249
43.4122
73.4817
146.276
84.6115
49.5528
30.1581
20.3368
16.978
18.9953
26.9916
43.4474
73.4926
146.33
84.747
49.7203
30.3178
20.468
17.0755
19.0622
27.0338
43.4703
73.4998
146.354
84.8093
49.8013
30.399
20.5381
17.13
19.101
27.059
43.4843
73.5043
146.365
84.8375
49.8392
30.4386
20.5735
17.1585
19.122
27.073
43.4921
73.5068
146.369
84.8485
49.8542
30.4545
20.5881
17.1705
19.1309
27.079
43.4956
73.508
146.369
84.8483
49.8539
30.4542
20.5877
17.1701
19.1306
27.0788
43.4954
73.5079
146.364
84.8369
49.8382
30.4374
20.5722
17.1573
19.1209
27.0721
43.4916
73.5067
146.354
84.8079
49.7992
30.3964
20.5354
17.1274
19.0988
27.0573
43.4832
73.504
146.329
84.7443
49.7161
30.3128
20.4628
17.0706
19.058
27.0306
43.4683
73.4992
146.274
84.606
49.5447
30.1485
20.3269
16.9688
18.9875
26.9857
43.4437
73.4914
146.143
84.3001
49.1908
29.8314
20.0798
16.7931
18.871
26.9141
43.4055
73.4795
145.811
83.604
48.4594
29.229
19.6431
16.5005
18.6863
26.8049
43.3487
73.462
144.874
81.9714
46.9583
28.1165
18.9018
16.0362
18.4082
26.6468
43.2687
73.4377
141.861
78.0659
43.9615
26.1644
17.7185
15.3455
18.0158
26.4322
43.1628
73.406
130.699
68.867
38.3975
23.0389
16
14.4072
17.5071
26.1628
43.0328
73.3674
83.6087
49.8296
29.7241
18.7948
13.8363
13.2784
16.9129
25.8545
42.8858
73.3241
49.4738
32.694
21.166
14.4549
11.5965
12.1064
16.2964
25.5351
42.7338
73.2794
28.7237
20.526
14.4075
10.7806
9.6127
11.0374
15.7229
25.2341
42.5894
73.2368
16.6712
12.6947
9.66096
8.01685
8.04048
10.1561
15.2361
24.9731
42.4624
73.1991
9.76446
7.88833
6.54442
6.09098
6.88877
9.48365
14.8523
24.7621
42.358
73.1678
5.8261
5.01501
4.58272
4.81739
6.09252
9.00038
14.5673
24.6013
42.2769
73.1435
3.5929
3.33005
3.38623
4.00887
5.56741
8.67031
14.3664
24.4848
42.217
73.1253
2.34659
2.36664
2.68153
3.5174
5.23805
8.45691
14.2325
24.4047
42.1749
73.1119
1.68691
1.84801
2.29399
3.24069
5.04804
8.33065
14.151
24.3541
42.1465
73.102
1.40254
1.62212
2.12295
3.11669
4.96144
8.27191
14.112
24.3286
42.1307
73.0977
83.6075
49.8286
29.7234
18.7943
13.836
13.278
16.9125
25.8539
42.885
73.3233
49.473
32.6934
21.1656
14.4545
11.5962
12.1061
16.296
25.5345
42.733
73.2786
28.7232
20.5256
14.4072
10.7803
9.61247
11.0371
15.7226
25.2335
42.5885
73.2359
16.671
12.6945
9.66076
8.01667
8.04029
10.1559
15.2357
24.9725
42.4615
73.1982
9.76429
7.88818
6.54429
6.09085
6.8886
9.48341
14.8519
24.7614
42.3569
73.1668
5.82601
5.01492
4.58264
4.81729
6.09237
9.00014
14.5669
24.6005
42.2757
73.1422
3.59284
3.32999
3.38617
4.00879
5.56728
8.67005
14.3659
24.4839
42.2156
73.1238
2.34654
2.3666
2.68149
3.51733
5.23792
8.45664
14.2319
24.4036
42.1731
73.11
1.68688
1.84798
2.29396
3.24062
5.0479
8.33036
14.1504
24.3529
42.1443
73.0993
1.40252
1.62209
2.12292
3.11663
4.96129
8.27162
14.1114
24.3273
42.1282
73.094
83.6074
49.8286
29.7235
18.7943
13.8359
13.278
16.9125
25.8539
42.885
73.3233
49.473
32.6934
21.1656
14.4545
11.5962
12.1061
16.296
25.5345
42.733
73.2786
28.7231
20.5256
14.4072
10.7803
9.61247
11.0371
15.7226
25.2335
42.5885
73.2359
16.6709
12.6945
9.66078
8.01667
8.04029
10.1559
15.2357
24.9725
42.4615
73.1982
9.76428
7.88819
6.5443
6.09085
6.88861
9.48342
14.8519
24.7614
42.3569
73.1668
5.82599
5.01491
4.58265
4.81729
6.09238
9.00015
14.5669
24.6005
42.2757
73.1422
3.59282
3.32999
3.38618
4.0088
5.56728
8.67006
14.3659
24.4839
42.2156
73.1238
2.34653
2.36661
2.6815
3.51733
5.23792
8.45664
14.2319
24.4036
42.1731
73.11
1.68688
1.84799
2.29397
3.24062
5.04789
8.33036
14.1504
24.3529
42.1443
73.0993
1.40251
1.6221
2.12293
3.11662
4.96128
8.27162
14.1114
24.3273
42.1282
73.094
83.6087
49.8296
29.7241
18.7948
13.8363
13.2784
16.9129
25.8545
42.8858
73.3241
49.4738
32.694
21.166
14.4549
11.5965
12.1064
16.2964
25.5351
42.7338
73.2794
28.7236
20.526
14.4075
10.7806
9.6127
11.0374
15.723
25.2341
42.5894
73.2368
16.6712
12.6947
9.66096
8.01685
8.04048
10.1561
15.2362
24.9731
42.4624
73.1991
9.76443
7.88832
6.54441
6.09098
6.88877
9.48366
14.8523
24.7621
42.358
73.1678
5.82607
5.015
4.58272
4.81741
6.09253
9.00039
14.5673
24.6013
42.2769
73.1435
3.59288
3.33005
3.38624
4.0089
5.56742
8.6703
14.3664
24.4848
42.217
73.1253
2.34657
2.36666
2.68155
3.51742
5.23805
8.45689
14.2325
24.4046
42.1749
73.1119
1.68691
1.84803
2.29401
3.2407
5.04802
8.33063
14.151
24.3541
42.1465
73.102
1.40253
1.62214
2.12296
3.11668
4.96142
8.27189
14.112
24.3286
42.1307
73.0977
130.567
141.683
144.678
145.606
145.934
146.063
146.117
146.141
146.152
146.156
146.156
146.152
146.141
146.117
146.063
145.935
145.607
144.678
141.682
130.564
68.3367
77.4481
81.3108
82.922
83.6073
83.9076
84.0431
84.1054
84.1337
84.1447
84.1447
84.1338
84.1055
84.0433
83.9078
83.6073
82.9215
81.3094
77.4449
68.331
37.2054
42.6639
45.605
47.0768
47.7927
48.1386
48.3059
48.3868
48.4248
48.4399
48.4399
48.4248
48.3868
48.3059
48.1385
47.7924
47.076
45.6033
42.6609
37.2005
20.7159
23.7288
25.6193
26.6986
27.2833
27.5912
27.7506
27.8318
27.8715
27.8876
27.8876
27.8714
27.8318
27.7505
27.591
27.2829
26.6978
25.6178
23.7263
20.7122
11.726
13.3301
14.4505
15.1578
15.5765
15.8143
15.9454
16.0157
16.0514
16.0663
16.0663
16.0514
16.0157
15.9453
15.8141
15.5761
15.1571
14.4493
13.3283
11.7235
6.75423
7.58031
8.20996
8.64206
8.91809
9.08578
9.18385
9.23908
9.26822
9.2807
9.28069
9.2682
9.23903
9.18377
9.08564
8.91783
8.64159
8.20918
7.57913
6.75258
3.99261
4.39544
4.73236
4.9829
5.15481
5.26613
5.335
5.37568
5.39798
5.40776
5.40776
5.39798
5.37568
5.33498
5.26609
5.15468
4.98264
4.73191
4.3947
3.99152
2.47398
2.64991
2.82002
2.9595
3.063
3.13462
3.18154
3.21062
3.22718
3.23462
3.23463
3.2272
3.21066
3.18157
3.13464
3.06297
2.95938
2.81974
2.64941
2.47311
1.67852
1.73838
1.81959
1.897
1.96029
2.00743
2.04019
2.06149
2.07405
2.07984
2.07985
2.07409
2.06155
2.04027
2.0075
1.96032
1.89695
1.81939
1.73795
1.67768
1.33782
1.34877
1.39163
1.44148
1.48639
1.522
1.54791
1.56534
1.57589
1.58082
1.58083
1.57593
1.56542
1.54801
1.52211
1.48647
1.44148
1.39148
1.34836
1.33694
130.567
141.684
144.678
145.607
145.935
146.063
146.117
146.141
146.152
146.156
146.156
146.151
146.141
146.117
146.063
145.934
145.606
144.677
141.682
130.563
68.3373
77.4488
81.3114
82.9225
83.6078
83.908
84.0434
84.1056
84.1338
84.1447
84.1446
84.1336
84.1052
84.0429
83.9073
83.6067
82.9208
81.3086
77.4441
68.3301
37.2058
42.6644
45.6054
47.0772
47.7931
48.1388
48.3061
48.3869
48.4248
48.4399
48.4398
48.4247
48.3866
48.3056
48.1382
47.792
47.0756
45.6028
42.6603
37.2
20.7161
23.729
25.6196
26.6988
27.2835
27.5913
27.7507
27.8319
27.8715
27.8876
27.8876
27.8714
27.8316
27.7503
27.5908
27.2826
26.6975
25.6175
23.7259
20.7119
11.7262
13.3303
14.4506
15.1579
15.5766
15.8144
15.9455
16.0158
16.0515
16.0663
16.0663
16.0513
16.0156
15.9452
15.8139
15.576
15.1569
14.4491
13.3282
11.7234
6.75429
7.58038
8.21002
8.64212
8.91814
9.08581
9.18386
9.23907
9.2682
9.28066
9.28064
9.26814
9.23897
9.18369
9.08556
8.91773
8.64149
8.20907
7.57903
6.75247
3.99267
4.39546
4.7324
4.98293
5.15483
5.26615
5.335
5.37567
5.39796
5.40774
5.40773
5.39794
5.37564
5.33493
5.26603
5.15462
4.98257
4.73184
4.39463
3.99145
2.47401
2.64995
2.82005
2.95953
3.06302
3.13464
3.18155
3.21063
3.22718
3.23462
3.23463
3.2272
3.21065
3.18156
3.13462
3.06294
2.95934
2.8197
2.64937
2.47307
1.67853
1.73839
1.81959
1.897
1.96029
2.00743
2.04019
2.06148
2.07404
2.07982
2.07983
2.07407
2.06154
2.04025
2.00749
1.9603
1.89692
1.81937
1.73793
1.67765
1.33784
1.34879
1.39163
1.44149
1.4864
1.52201
1.54792
1.56535
1.57589
1.58082
1.58083
1.57593
1.56542
1.54801
1.5221
1.48646
1.44147
1.39147
1.34835
1.33692
130.567
141.684
144.678
145.607
145.935
146.063
146.117
146.141
146.152
146.156
146.156
146.151
146.141
146.117
146.063
145.934
145.606
144.677
141.682
130.563
68.3373
77.4488
81.3114
82.9225
83.6078
83.908
84.0434
84.1056
84.1337
84.1447
84.1446
84.1335
84.1052
84.0429
83.9073
83.6067
82.9208
81.3086
77.4441
68.3301
37.2058
42.6644
45.6054
47.0772
47.7931
48.1388
48.3061
48.3869
48.4248
48.4399
48.4398
48.4247
48.3866
48.3056
48.1382
47.792
47.0755
45.6028
42.6603
37.1999
20.7161
23.729
25.6196
26.6988
27.2835
27.5913
27.7507
27.8319
27.8715
27.8876
27.8876
27.8714
27.8316
27.7503
27.5908
27.2826
26.6975
25.6175
23.7259
20.7119
11.7262
13.3303
14.4506
15.1579
15.5766
15.8143
15.9454
16.0157
16.0514
16.0663
16.0663
16.0513
16.0156
15.9452
15.8139
15.576
15.1569
14.4491
13.3282
11.7233
6.75429
7.58037
8.21002
8.64211
8.91813
9.0858
9.18385
9.23906
9.26819
9.28065
9.28064
9.26813
9.23896
9.18369
9.08555
8.91772
8.64148
8.20907
7.57901
6.75245
3.99266
4.39546
4.7324
4.98293
5.15483
5.26615
5.335
5.37567
5.39796
5.40774
5.40774
5.39795
5.37565
5.33494
5.26603
5.15462
4.98257
4.73183
4.39462
3.99144
2.47399
2.64993
2.82003
2.95951
3.063
3.13462
3.18153
3.21062
3.22717
3.23461
3.23462
3.2272
3.21065
3.18156
3.13462
3.06293
2.95934
2.81971
2.64937
2.47306
1.67853
1.7384
1.8196
1.897
1.9603
2.00744
2.0402
2.06149
2.07405
2.07984
2.07985
2.07409
2.06155
2.04026
2.0075
1.96031
1.89694
1.81939
1.73793
1.67764
1.33787
1.34881
1.39166
1.44152
1.48643
1.52205
1.54796
1.56539
1.57593
1.58086
1.58087
1.57596
1.56545
1.54803
1.52212
1.48647
1.44149
1.39149
1.34835
1.33691
130.567
141.683
144.678
145.606
145.934
146.063
146.117
146.141
146.152
146.156
146.156
146.152
146.141
146.117
146.063
145.935
145.607
144.678
141.682
130.564
68.3367
77.4482
81.3108
82.922
83.6073
83.9076
84.0431
84.1054
84.1337
84.1447
84.1447
84.1338
84.1055
84.0433
83.9078
83.6073
82.9215
81.3094
77.4449
68.331
37.2054
42.664
45.605
47.0768
47.7928
48.1386
48.3059
48.3868
48.4248
48.4399
48.4399
48.4248
48.3868
48.3059
48.1385
47.7924
47.076
45.6033
42.6609
37.2005
20.7159
23.7288
25.6193
26.6986
27.2833
27.5912
27.7506
27.8318
27.8715
27.8876
27.8876
27.8714
27.8318
27.7505
27.591
27.2829
26.6977
25.6178
23.7262
20.7122
11.7261
13.3301
14.4505
15.1578
15.5765
15.8142
15.9454
16.0157
16.0514
16.0663
16.0663
16.0514
16.0156
15.9453
15.814
15.5761
15.1571
14.4493
13.3283
11.7235
6.7542
7.58028
8.20993
8.64204
8.91807
9.08575
9.1838
9.23903
9.26818
9.28066
9.28066
9.26817
9.23901
9.18375
9.08561
8.9178
8.64157
8.20917
7.5791
6.75254
3.99259
4.3954
4.73234
4.98288
5.15479
5.26611
5.33497
5.37565
5.39795
5.40774
5.40776
5.39797
5.37567
5.33498
5.26607
5.15466
4.98262
4.7319
4.39468
3.9915
2.47395
2.6499
2.82
2.95949
3.06299
3.13461
3.18153
3.21062
3.22717
3.23463
3.23465
3.22722
3.21068
3.18159
3.13465
3.06297
2.95938
2.81975
2.64941
2.4731
1.67853
1.73839
1.8196
1.89701
1.96031
2.00746
2.04022
2.06152
2.07408
2.07987
2.07989
2.07413
2.06158
2.04029
2.00752
1.96034
1.89697
1.81942
1.73796
1.67767
1.33787
1.34882
1.39167
1.44153
1.48645
1.52207
1.54798
1.56541
1.57596
1.58089
1.58091
1.576
1.56548
1.54805
1.52214
1.4865
1.44151
1.39151
1.34836
1.33693
73.323
42.8847
25.8534
16.9126
13.2795
13.8395
18.8002
29.7313
49.8375
83.6151
73.2781
42.7324
25.5335
16.2956
12.1072
11.5994
14.46
21.1731
32.7021
49.4811
73.2352
42.5877
25.232
15.7216
11.0377
9.61497
10.7848
14.4134
20.5327
28.7299
73.1972
42.4604
24.9707
15.2345
10.156
8.04209
8.02005
9.66534
12.6996
16.6758
73.1657
42.3559
24.7597
14.8508
9.48358
6.89009
6.09341
6.54758
7.89172
9.76757
73.1411
42.2751
24.5996
14.5668
9.0011
6.09419
4.81962
4.58519
5.01741
5.82819
73.1229
42.2165
24.4852
14.3681
8.67285
5.57021
4.01156
3.38862
3.33204
3.59444
73.1107
42.1772
24.4091
14.2379
8.46228
5.24276
3.52119
2.68441
2.3687
2.34796
73.1047
42.1542
24.3642
14.1615
8.33984
5.05529
3.24601
2.29769
1.85043
1.68839
73.1025
42.1429
24.3455