/*--------------------------------*- C++ -*----------------------------------*\
| =========                 |                                                 |
| \\      /  F ield         | OpenFOAM: The Open Source CFD Toolbox           |
|  \\    /   O peration     | Version:  2.4.0                                 |
|   \\  /    A nd           | Web:      www.OpenFOAM.org                      |
|    \\/     M anipulation  |                                                 |
\*---------------------------------------------------------------------------*/
FoamFile
{
    version     2.0;
    format      ascii;
    class       volScalarField;
    location    "0.0048";
    object      T;
}
// * * * * * * * * * * * * * * * * * * * * * * * * * * * * * * * * * * * * * //

dimensions      [0 0 0 1 0 0 0];

internalField   nonuniform List<scalar> 
4800
(
100.194
100.581
100.967
101.353
101.737
102.116
102.487
102.844
103.181
103.493
100.581
101.742
102.903
104.063
105.217
106.358
107.475
108.552
109.57
110.51
100.967
102.903
104.84
106.778
108.709
110.623
112.502
114.318
116.038
117.624
101.354
104.063
106.778
109.498
112.219
114.925
117.592
120.18
122.638
124.906
101.737
105.217
108.709
112.219
115.743
119.266
122.76
126.172
129.429
132.436
102.117
106.358
110.624
114.925
119.267
123.638
128.009
132.32
136.469
140.312
102.487
107.475
112.503
117.593
122.761
128.01
133.32
138.63
143.814
148.658
102.844
108.552
114.319
120.182
126.174
132.321
138.63
145.065
151.499
157.639
103.182
109.572
116.04
122.641
129.432
136.471
143.816
151.5
159.479
167.458
103.494
110.512
117.628
124.911
132.441
140.316
148.662
157.642
167.459
178.221
100.194
100.581
100.967
101.353
101.737
102.116
102.487
102.844
103.181
103.493
100.581
101.742
102.903
104.063
105.217
106.358
107.475
108.552
109.57
110.51
100.967
102.903
104.84
106.778
108.709
110.623
112.502
114.318
116.038
117.624
101.354
104.063
106.778
109.498
112.219
114.925
117.592
120.18
122.638
124.906
101.737
105.217
108.709
112.219
115.743
119.266
122.76
126.172
129.429
132.436
102.117
106.358
110.624
114.926
119.267
123.638
128.01
132.32
136.469
140.312
102.487
107.475
112.503
117.593
122.761
128.01
133.32
138.63
143.814
148.658
102.844
108.553
114.319
120.182
126.174
132.322
138.631
145.065
151.5
157.639
103.182
109.572
116.04
122.641
129.432
136.472
143.816
151.501
159.48
167.458
103.494
110.513
117.628
124.911
132.441
140.317
148.662
157.642
167.46
178.221
100.194
100.581
100.967
101.353
101.737
102.116
102.487
102.844
103.181
103.493
100.581
101.742
102.903
104.063
105.217
106.358
107.475
108.552
109.57
110.51
100.967
102.903
104.84
106.778
108.709
110.623
112.502
114.318
116.038
117.624
101.354
104.063
106.778
109.498
112.219
114.925
117.592
120.18
122.638
124.906
101.737
105.217
108.709
112.219
115.743
119.266
122.76
126.172
129.429
132.436
102.117
106.358
110.624
114.926
119.267
123.638
128.01
132.32
136.469
140.312
102.487
107.475
112.503
117.593
122.761
128.01
133.32
138.63
143.814
148.658
102.844
108.553
114.319
120.182
126.174
132.322
138.631
145.065
151.5
157.639
103.182
109.572
116.04
122.641
129.432
136.472
143.816
151.501
159.48
167.458
103.494
110.513
117.628
124.911
132.441
140.317
148.662
157.642
167.46
178.221
100.194
100.581
100.967
101.353
101.737
102.116
102.487
102.844
103.181
103.493
100.581
101.742
102.903
104.063
105.217
106.358
107.475
108.552
109.57
110.51
100.967
102.903
104.84
106.778
108.709
110.623
112.502
114.318
116.038
117.624
101.354
104.063
106.778
109.498
112.219
114.925
117.592
120.18
122.638
124.906
101.737
105.217
108.709
112.219
115.743
119.266
122.76
126.172
129.429
132.436
102.117
106.358
110.624
114.925
119.267
123.638
128.009
132.32
136.469
140.312
102.487
107.475
112.503
117.593
122.761
128.01
133.32
138.63
143.814
148.658
102.844
108.552
114.319
120.182
126.174
132.321
138.63
145.065
151.499
157.639
103.182
109.572
116.04
122.641
129.432
136.471
143.816
151.5
159.479
167.458
103.494
110.512
117.628
124.911
132.441
140.316
148.662
157.642
167.459
178.221
103.772
104.016
104.222
104.391
104.526
104.63
104.707
104.761
104.796
104.812
104.812
104.796
104.761
104.707
104.63
104.526
104.391
104.222
104.016
103.772
111.353
112.086
112.703
113.208
113.608
113.916
114.144
114.304
114.405
114.454
114.454
114.405
114.303
114.143
113.915
113.607
113.207
112.703
112.085
111.353
119.044
120.271
121.297
122.129
122.783
123.282
123.649
123.905
124.066
124.144
124.144
124.066
123.904
123.648
123.281
122.782
122.128
121.296
120.27
119.043
126.926
128.657
130.086
131.227
132.112
132.779
133.265
133.601
133.811
133.913
133.912
133.811
133.6
133.264
132.778
132.111
131.226
130.084
128.655
126.925
135.098
137.345
139.163
140.582
141.66
142.458
143.031
143.422
143.666
143.782
143.782
143.665
143.421
143.029
142.456
141.658
140.58
139.16
137.343
135.096
143.685
146.463
148.636
150.278
151.489
152.362
152.977
153.392
153.648
153.769
153.769
153.647
153.391
152.976
152.36
151.486
150.276
148.634
146.46
143.683
152.867
156.184
158.642
160.407
161.653
162.525
163.124
163.521
163.763
163.878
163.877
163.763
163.52
163.122
162.523
161.651
160.404
158.64
156.182
152.865
162.941
166.764
169.341
171.052
172.194
172.96
173.472
173.805
174.006
174.101
174.101
174.006
173.805
173.471
172.958
172.192
171.051
169.339
166.763
162.94
174.493
178.59
180.905
182.267
183.109
183.648
183.998
184.223
184.356
184.419
184.419
184.356
184.222
183.998
183.647
183.108
182.267
180.904
178.59
174.492
188.983
192.199
193.421
194.003
194.328
194.525
194.651
194.73
194.777
194.799
194.799
194.777
194.73
194.651
194.525
194.328
194.003
193.421
192.199
188.982
103.772
104.016
104.222
104.391
104.526
104.63
104.707
104.761
104.795
104.812
104.812
104.795
104.761
104.706
104.629
104.525
104.39
104.221
104.015
103.772
111.353
112.086
112.703
113.208
113.608
113.916
114.144
114.303
114.404
114.453
114.453
114.404
114.303
114.143
113.914
113.606
113.206
112.702
112.084
111.351
119.044
120.271
121.297
122.129
122.782
123.281
123.648
123.904
124.066
124.144
124.143
124.065
123.903
123.647
123.28
122.78
122.126
121.295
120.269
119.041
126.926
128.657
130.086
131.227
132.112
132.779
133.264
133.6
133.811
133.912
133.912
133.81
133.599
133.263
132.777
132.11
131.224
130.083
128.654
126.923
135.098
137.345
139.162
140.582
141.66
142.458
143.03
143.422
143.665
143.782
143.781
143.664
143.42
143.028
142.455
141.657
140.579
139.159
137.342
135.095
143.685
146.463
148.636
150.278
151.488
152.362
152.976
153.391
153.647
153.768
153.768
153.646
153.39
152.974
152.359
151.485
150.275
148.633
146.459
143.682
152.867
156.184
158.642
160.406
161.653
162.524
163.123
163.52
163.762
163.877
163.876
163.761
163.519
163.121
162.522
161.65
160.403
158.638
156.18
152.864
162.941
166.764
169.341
171.052
172.193
172.959
173.471
173.805
174.006
174.1
174.1
174.005
173.804
173.47
172.957
172.191
171.049
169.338
166.761
162.938
174.493
178.59
180.905
182.267
183.109
183.648
183.998
184.222
184.355
184.418
184.418
184.355
184.221
183.997
183.646
183.107
182.265
180.903
178.588
174.491
188.983
192.199
193.421
194.003
194.327
194.525
194.65
194.73
194.777
194.798
194.798
194.776
194.729
194.65
194.524
194.327
194.002
193.42
192.198
188.981
103.772
104.016
104.222
104.391
104.526
104.63
104.707
104.761
104.795
104.812
104.812
104.795
104.761
104.706
104.629
104.525
104.39
104.221
104.015
103.772
111.353
112.086
112.703
113.208
113.608
113.916
114.144
114.303
114.404
114.453
114.453
114.404
114.303
114.143
113.914
113.606
113.206
112.702
112.084
111.351
119.044
120.271
121.297
122.129
122.782
123.281
123.648
123.904
124.066
124.144
124.143
124.065
123.903
123.647
123.28
122.78
122.126
121.295
120.269
119.041
126.926
128.657
130.086
131.227
132.112
132.779
133.264
133.6
133.811
133.912
133.912
133.81
133.599
133.263
132.777
132.11
131.224
130.083
128.654
126.923
135.098
137.345
139.162
140.582
141.66
142.458
143.03
143.422
143.665
143.782
143.781
143.664
143.42
143.028
142.455
141.657
140.579
139.159
137.342
135.095
143.685
146.463
148.636
150.278
151.488
152.362
152.976
153.391
153.647
153.768
153.768
153.646
153.39
152.974
152.359
151.485
150.275
148.633
146.459
143.682
152.867
156.184
158.642
160.406
161.653
162.524
163.123
163.52
163.762
163.877
163.876
163.761
163.519
163.121
162.522
161.65
160.403
158.638
156.18
152.864
162.941
166.764
169.341
171.052
172.193
172.959
173.471
173.805
174.006
174.1
174.1
174.005
173.804
173.47
172.957
172.191
171.049
169.338
166.761
162.938
174.493
178.59
180.905
182.267
183.109
183.648
183.998
184.222
184.355
184.418
184.418
184.355
184.221
183.997
183.646
183.107
182.265
180.903
178.588
174.491
188.983
192.199
193.421
194.003
194.327
194.525
194.65
194.73
194.777
194.798
194.798
194.776
194.729
194.65
194.524
194.327
194.002
193.42
192.198
188.981
103.772
104.016
104.222
104.391
104.526
104.63
104.707
104.761
104.796
104.812
104.812
104.796
104.761
104.707
104.63
104.526
104.391
104.222
104.016
103.772
111.353
112.086
112.703
113.208
113.608
113.916
114.144
114.304
114.405
114.454
114.454
114.405
114.303
114.143
113.915
113.607
113.207
112.703
112.085
111.353
119.044
120.271
121.297
122.129
122.783
123.282
123.649
123.905
124.066
124.144
124.144
124.066
123.904
123.648
123.281
122.782
122.128
121.296
120.27
119.043
126.926
128.657
130.086
131.227
132.112
132.779
133.265
133.601
133.811
133.913
133.912
133.811
133.6
133.264
132.778
132.111
131.226
130.084
128.655
126.925
135.098
137.345
139.163
140.582
141.66
142.458
143.031
143.422
143.666
143.782
143.782
143.665
143.421
143.029
142.456
141.658
140.58
139.16
137.343
135.096
143.685
146.463
148.636
150.278
151.489
152.362
152.977
153.392
153.648
153.769
153.769
153.647
153.391
152.976
152.36
151.486
150.276
148.634
146.46
143.683
152.867
156.184
158.642
160.407
161.653
162.525
163.124
163.521
163.763
163.878
163.877
163.763
163.52
163.122
162.523
161.651
160.404
158.64
156.182
152.865
162.941
166.764
169.341
171.052
172.194
172.96
173.472
173.805
174.006
174.101
174.101
174.006
173.805
173.471
172.958
172.192
171.051
169.339
166.763
162.94
174.493
178.59
180.905
182.267
183.109
183.648
183.998
184.223
184.356
184.419
184.419
184.356
184.222
183.998
183.647
183.108
182.267
180.904
178.59
174.492
188.983
192.199
193.421
194.003
194.328
194.525
194.651
194.73
194.777
194.799
194.799
194.777
194.73
194.651
194.525
194.328
194.003
193.421
192.199
188.982
103.493
103.182
102.844
102.487
102.117
101.738
101.354
100.968
100.581
100.194
110.51
109.57
108.552
107.475
106.358
105.217
104.063
102.904
101.742
100.581
117.624
116.037
114.318
112.502
110.624
108.71
106.778
104.841
102.904
100.968
124.905
122.638
120.18
117.592
114.926
112.219
109.499
106.778
104.063
101.354
132.435
129.428
126.172
122.76
119.267
115.743
112.22
108.71
105.218
101.738
140.311
136.468
132.32
128.01
123.639
119.268
114.927
110.625
106.359
102.117
148.657
143.814
138.63
133.321
128.011
122.762
117.594
112.504
107.476
102.488
157.639
151.5
145.066
138.632
132.323
126.176
120.184
114.321
108.554
102.845
167.459
159.48
151.502
143.818
136.474
129.434
122.643
116.042
109.573
103.183
178.222
167.461
157.644
148.665
140.32
132.444
124.914
117.63
110.514
103.494
103.492
103.181
102.843
102.486
102.116
101.737
101.353
100.967
100.58
100.193
110.509
109.569
108.55
107.473
106.357
105.216
104.062
102.902
101.741
100.58
117.622
116.036
114.316
112.501
110.622
108.708
106.777
104.84
102.902
100.967
124.904
122.636
120.178
117.59
114.924
112.218
109.497
106.777
104.062
101.353
132.434
129.427
126.17
122.759
119.265
115.742
112.218
108.709
105.216
101.737
140.309
136.466
132.318
128.008
123.637
119.266
114.925
110.623
106.358
102.116
148.655
143.812
138.628
133.319
128.01
122.761
117.592
112.502
107.475
102.487
157.637
151.498
145.064
138.63
132.321
126.174
120.182
114.319
108.552
102.844
167.457
159.478
151.5
143.816
136.472
129.432
122.642
116.04
109.572
103.182
178.22
167.459
157.642
148.663
140.318
132.442
124.912
117.629
110.513
103.493
103.492
103.181
102.843
102.486
102.116
101.737
101.353
100.967
100.58
100.193
110.509
109.569
108.55
107.473
106.357
105.216
104.062
102.902
101.741
100.58
117.622
116.036
114.316
112.501
110.622
108.708
106.777
104.84
102.902
100.967
124.904
122.636
120.178
117.59
114.924
112.218
109.497
106.777
104.062
101.353
132.434
129.427
126.17
122.759
119.265
115.742
112.218
108.709
105.216
101.737
140.309
136.466
132.318
128.008
123.637
119.266
114.925
110.623
106.358
102.116
148.655
143.812
138.628
133.319
128.01
122.761
117.592
112.502
107.475
102.487
157.637
151.498
145.064
138.63
132.321
126.174
120.182
114.319
108.552
102.844
167.457
159.478
151.5
143.816
136.472
129.432
122.642
116.04
109.572
103.182
178.22
167.459
157.642
148.663
140.318
132.442
124.912
117.629
110.513
103.493
103.493
103.182
102.844
102.487
102.117
101.738
101.354
100.968
100.581
100.194
110.51
109.57
108.552
107.475
106.358
105.217
104.063
102.904
101.742
100.581
117.624
116.037
114.318
112.502
110.624
108.71
106.778
104.841
102.904
100.968
124.905
122.638
120.18
117.592
114.926
112.219
109.499
106.778
104.063
101.354
132.435
129.428
126.172
122.76
119.267
115.743
112.22
108.71
105.218
101.738
140.311
136.468
132.32
128.01
123.639
119.268
114.927
110.625
106.359
102.117
148.657
143.814
138.63
133.321
128.011
122.762
117.594
112.504
107.476
102.488
157.639
151.5
145.066
138.632
132.323
126.176
120.184
114.321
108.554
102.845
167.459
159.48
151.502
143.818
136.474
129.434
122.643
116.042
109.573
103.183
178.222
167.461
157.644
148.665
140.32
132.444
124.914
117.63
110.514
103.494
188.985
174.498
162.949
152.877
143.696
135.11
126.937
119.052
111.359
103.774
192.202
178.598
166.775
156.198
146.478
137.361
128.671
120.282
112.093
104.019
193.425
180.915
169.357
158.662
148.658
139.184
130.106
121.313
112.714
104.226
194.009
182.282
171.074
160.434
150.308
140.612
131.254
122.15
113.222
104.396
194.335
183.129
172.224
161.691
151.53
141.702
132.15
122.812
113.627
104.533
194.535
183.675
173.001
162.576
152.419
142.515
132.83
123.322
113.942
104.639
194.664
184.035
173.529
163.195
153.055
143.109
133.335
123.705
114.18
104.72
194.748
184.273
173.884
163.619
153.5
143.53
133.697
123.981
114.353
104.778
194.802
184.426
174.114
163.898
153.796
143.814
133.944
124.171
114.472
104.819
194.833
184.515
174.25
164.064
153.974
143.986
134.094
124.288
114.546
104.844
194.846
184.553
174.307
164.135
154.051
144.061
134.162
124.34
114.579
104.856
194.842
184.542
174.292
164.119
154.036
144.049
134.152
124.334
114.576
104.855
194.821
184.482
174.203
164.013
153.927
143.947
134.066
124.269
114.536
104.841
194.778
184.362
174.027
163.806
153.714
143.749
133.899
124.143
114.458
104.815
194.706
184.163
173.739
163.474
153.378
143.44
133.64
123.95
114.338
104.774
194.589
183.847
173.296
162.977
152.887
142.999
133.276
123.68
114.173
104.719
194.392
183.343
172.625
162.258
152.202
142.398
132.79
123.325
113.957
104.646
194.029
182.513
171.608
161.235
151.272
141.61
132.167
122.877
113.688
104.557
193.239
181.077
170.067
159.813
150.051
140.615
131.4
122.334
113.365
104.449
191.091
178.5
167.781
157.914
148.518
139.411
130.494
121.703
112.992
104.326
188.983
174.496
162.947
152.875
143.694
135.107
126.935
119.05
111.357
103.774
192.2
178.595
166.773
156.196
146.476
137.359
128.669
120.281
112.092
104.018
193.424
180.913
169.354
158.659
148.656
139.182
130.104
121.311
112.712
104.225
194.007
182.279
171.071
160.431
150.306
140.61
131.252
122.148
113.22
104.395
194.333
183.126
172.221
161.688
151.527
141.699
132.147
122.81
113.625
104.532
194.533
183.672
172.998
162.573
152.416
142.512
132.828
123.32
113.94
104.638
194.662
184.032
173.525
163.192
153.053
143.106
133.333
123.702
114.178
104.718
194.746
184.27
173.881
163.616
153.497
143.527
133.695
123.979
114.351
104.777
194.8
184.423
174.111
163.895
153.793
143.811
133.941
124.169
114.47
104.818
194.831
184.512
174.247
164.061
153.971
143.983
134.092
124.285
114.544
104.843
194.844
184.549
174.304
164.131
154.048
144.058
134.159
124.338
114.577
104.855
194.84
184.539
174.289
164.115
154.032
144.046
134.149
124.332
114.574
104.853
194.818
184.478
174.199
164.01
153.923
143.944
134.063
124.267
114.534
104.84
194.776
184.359
174.023
163.803
153.711
143.746
133.896
124.141
114.455
104.813
194.704
184.16
173.735
163.47
153.374
143.437
133.637
123.947
114.336
104.773
194.587
183.844
173.292
162.974
152.884
142.996
133.273
123.677
114.171
104.717
194.39
183.339
172.621
162.254
152.198
142.395
132.787
123.322
113.955
104.645
194.026
182.509
171.603
161.231
151.268
141.607
132.164
122.874
113.686
104.555
193.236
181.073
170.063
159.809
150.047
140.611
131.397
122.331
113.362
104.448
191.088
178.496
167.776
157.911
148.514
139.408
130.491
121.7
112.99
104.325
188.983
174.496
162.947
152.875
143.694
135.107
126.935
119.05
111.357
103.774
192.2
178.595
166.773
156.196
146.476
137.359
128.669
120.281
112.092
104.018
193.424
180.913
169.354
158.659
148.656
139.182
130.104
121.311
112.712
104.225
194.007
182.279
171.071
160.431
150.306
140.61
131.252
122.148
113.22
104.395
194.333
183.126
172.221
161.688
151.527
141.699
132.147
122.81
113.625
104.532
194.533
183.672
172.998
162.573
152.416
142.512
132.828
123.32
113.94
104.638
194.662
184.032
173.525
163.192
153.053
143.106
133.333
123.702
114.178
104.718
194.746
184.27
173.881
163.616
153.497
143.527
133.695
123.979
114.351
104.777
194.8
184.423
174.111
163.895
153.793
143.811
133.941
124.169
114.47
104.818
194.831
184.512
174.247
164.061
153.971
143.983
134.092
124.285
114.544
104.843
194.844
184.549
174.304
164.131
154.048
144.058
134.159
124.338
114.577
104.855
194.84
184.539
174.289
164.115
154.032
144.046
134.149
124.332
114.574
104.853
194.818
184.478
174.199
164.01
153.923
143.944
134.063
124.267
114.534
104.84
194.776
184.359
174.023
163.803
153.711
143.746
133.896
124.141
114.455
104.813
194.704
184.16
173.735
163.47
153.374
143.437
133.637
123.947
114.336
104.773
194.587
183.844
173.292
162.974
152.884
142.996
133.273
123.677
114.171
104.717
194.39
183.339
172.621
162.254
152.198
142.395
132.787
123.322
113.955
104.645
194.026
182.509
171.603
161.231
151.268
141.607
132.164
122.874
113.686
104.555
193.236
181.073
170.063
159.809
150.047
140.611
131.397
122.331
113.362
104.448
191.088
178.496
167.776
157.911
148.514
139.408
130.491
121.7
112.99
104.325
188.985
174.498
162.949
152.877
143.696
135.11
126.937
119.052
111.359
103.774
192.202
178.598
166.775
156.198
146.478
137.361
128.671
120.282
112.093
104.019
193.425
180.915
169.357
158.662
148.658
139.184
130.106
121.313
112.714
104.226
194.009
182.282
171.074
160.434
150.308
140.612
131.254
122.15
113.222
104.396
194.335
183.129
172.224
161.691
151.53
141.702
132.15
122.812
113.627
104.533
194.535
183.675
173.001
162.576
152.419
142.515
132.83
123.322
113.942
104.639
194.664
184.035
173.529
163.195
153.055
143.109
133.335
123.705
114.18
104.72
194.748
184.273
173.884
163.619
153.5
143.53
133.697
123.981
114.353
104.778
194.802
184.426
174.114
163.898
153.796
143.814
133.944
124.171
114.472
104.819
194.833
184.515
174.25
164.064
153.974
143.986
134.094
124.288
114.546
104.844
194.846
184.553
174.307
164.135
154.051
144.061
134.162
124.34
114.579
104.856
194.842
184.542
174.292
164.119
154.036
144.049
134.152
124.334
114.576
104.855
194.821
184.482
174.203
164.013
153.927
143.947
134.066
124.269
114.536
104.841
194.778
184.362
174.027
163.806
153.714
143.749
133.899
124.143
114.458
104.815
194.706
184.163
173.739
163.474
153.378
143.44
133.64
123.95
114.338
104.774
194.589
183.847
173.296
162.977
152.887
142.999
133.276
123.68
114.173
104.719
194.392
183.343
172.625
162.258
152.202
142.398
132.79
123.325
113.957
104.647
194.029
182.513
171.608
161.235
151.272
141.61
132.167
122.877
113.688
104.557
193.239
181.077
170.067
159.813
150.051
140.615
131.4
122.334
113.365
104.449
191.091
178.5
167.78
157.915
148.518
139.411
130.494
121.703
112.992
104.326
183.716
174.064
164.658
155.564
146.713
138.034
129.476
121.001
112.581
104.191
177.164
169.403
161.245
152.996
144.758
136.555
128.391
120.258
112.147
104.048
171.825
165.17
157.955
150.448
142.793
135.063
127.295
119.506
111.708
103.903
167.516
161.535
154.993
148.083
140.936
133.637
126.241
118.782
111.284
103.764
164.049
158.507
152.445
145.996
139.268
132.341
125.275
118.114
110.892
103.635
161.294
156.053
150.336
144.236
137.839
131.218
124.432
117.529
110.548
103.521
159.167
154.136
148.664
142.822
136.679
130.299
123.738
117.045
110.262
103.427
157.611
152.724
147.422
141.762
135.802
129.6
123.207
116.673
110.042
103.354
156.592
151.796
146.602
141.058
135.217
129.131
122.851
116.424
109.893
103.306
156.088
151.336
146.194
140.707
134.924
128.896
122.672
116.299
109.819
103.285
183.713
174.06
164.654
155.561
146.709
138.03
129.473
120.998
112.579
104.189
177.16
169.399
161.242
152.993
144.754
136.552
128.388
120.255
112.144
104.046
171.822
165.166
157.951
150.445
142.79
135.06
127.291
119.503
111.705
103.902
167.513
161.532
154.99
148.08
140.933
133.634
126.237
118.778
111.281
103.762
164.046
158.504
152.443
145.993
139.265
132.338
125.272
118.111
110.889
103.633
161.291
156.05
150.333
144.233
137.836
131.215
124.429
117.525
110.544
103.519
159.164
154.133
148.661
142.819
136.675
130.295
123.734
117.04
110.258
103.424
157.609
152.721
147.419
141.759
135.799
129.596
123.203
116.668
110.037
103.351
156.59
151.793
146.599
141.055
135.213
129.127
122.846
116.418
109.887
103.301
156.086
151.333
146.191
140.704
134.921
128.892
122.667
116.293
109.812
103.279
183.713
174.06
164.654
155.561
146.709
138.03
129.473
120.999
112.579
104.189
177.16
169.399
161.242
152.993
144.754
136.552
128.388
120.255
112.144
104.046
171.822
165.166
157.951
150.445
142.79
135.06
127.291
119.503
111.705
103.902
167.513
161.532
154.99
148.08
140.933
133.634
126.237
118.778
111.281
103.762
164.046
158.504
152.443
145.993
139.265
132.338
125.272
118.111
110.889
103.633
161.291
156.05
150.333
144.233
137.836
131.215
124.429
117.525
110.544
103.519
159.164
154.133
148.661
142.819
136.675
130.295
123.734
117.04
110.258
103.424
157.608
152.721
147.419
141.759
135.799
129.596
123.203
116.668
110.037
103.351
156.589
151.793
146.599
141.055
135.213
129.127
122.846
116.418
109.887
103.301
156.085
151.333
146.191
140.704
134.921
128.892
122.667
116.293
109.812
103.279
183.716
174.063
164.658
155.564
146.713
138.034
129.476
121.001
112.581
104.191
177.164
169.403
161.245
152.996
144.758
136.555
128.391
120.258
112.147
104.048
171.825
165.17
157.955
150.448
142.793
135.063
127.295
119.506
111.708
103.903
167.516
161.535
154.993
148.083
140.936
133.637
126.241
118.782
111.284
103.764
164.049
158.507
152.445
145.996
139.268
132.341
125.275
118.114
110.892
103.635
161.294
156.053
150.335
144.236
137.839
131.218
124.432
117.529
110.548
103.521
159.166
154.135
148.664
142.821
136.678
130.298
123.738
117.045
110.262
103.427
157.611
152.724
147.422
141.762
135.802
129.6
123.207
116.673
110.042
103.355
156.592
151.796
146.602
141.058
135.217
129.131
122.851
116.424
109.893
103.306
156.088
151.335
146.193
140.707
134.924
128.896
122.672
116.299
109.819
103.285
192.562
195.373
196.555
197.191
197.592
197.865
198.056
198.186
198.268
198.308
198.308
198.269
198.187
198.057
197.867
197.594
197.194
196.557
195.375
192.564
183.735
187.756
190.219
191.818
192.913
193.687
194.237
194.616
194.855
194.971
194.972
194.857
194.619
194.241
193.692
192.919
191.824
190.225
187.76
183.738
177.482
181.72
184.772
186.974
188.58
189.759
190.614
191.211
191.591
191.776
191.777
191.594
191.216
190.62
189.767
188.589
186.983
184.781
181.728
177.489
172.689
176.907
180.213
182.764
184.716
186.194
187.29
188.066
188.564
188.807
188.809
188.568
188.073
187.3
186.206
184.729
182.778
180.228
176.921
172.703
168.913
173.055
176.462
179.206
181.379
183.068
184.343
185.258
185.849
186.139
186.141
185.854
185.267
184.356
183.084
181.398
179.227
176.484
173.078
168.935
165.939
170
173.437
176.284
178.595
180.425
181.827
182.844
183.505
183.832
183.835
183.513
182.856
181.845
180.447
178.62
176.313
173.468
170.033
165.972
163.65
167.64
171.077
173.977
176.369
178.291
179.78
180.868
181.58
181.934
181.937
181.59
180.884
179.802
178.318
176.401
174.014
171.118
167.684
163.696
161.978
165.911
169.338
172.262
174.702
176.681
178.226
179.362
180.109
180.481
180.485
180.121
179.381
178.252
176.714
174.742
172.308
169.389
165.966
162.036
160.881
164.777
168.192
171.127
173.592
175.603
177.182
178.347
179.115
179.498
179.503
179.128
178.369
177.212
175.642
173.638
171.18
168.251
164.841
160.95
160.338
164.214
167.623
170.561
173.037
175.063
176.657
177.836
178.615
179.003
179.008
178.629
177.86
176.69
175.105
173.087
170.619
167.687
164.284
160.413
192.565
195.375
196.556
197.193
197.593
197.866
198.057
198.187
198.268
198.308
198.308
198.268
198.187
198.057
197.866
197.593
197.192
196.556
195.373
192.562
183.738
187.758
190.222
191.82
192.915
193.689
194.238
194.617
194.855
194.971
194.971
194.856
194.618
194.24
193.691
192.917
191.822
190.223
187.758
183.735
177.485
181.723
184.775
186.976
188.582
189.76
190.615
191.212
191.591
191.776
191.776
191.593
191.215
190.619
189.765
188.588
186.981
184.779
181.726
177.486
172.692
176.91
180.216
182.766
184.718
186.196
187.292
188.067
188.564
188.807
188.808
188.567
188.072
187.299
186.205
184.727
182.776
180.226
176.919
172.7
168.916
173.058
176.465
179.208
181.381
183.07
184.345
185.259
185.849
186.139
186.141
185.854
185.266
184.355
183.083
181.396
179.225
176.482
173.076
168.933
165.942
170.003
173.44
176.287
178.597
180.427
181.829
182.845
183.506
183.832
183.834
183.512
182.855
181.844
180.445
178.618
176.311
173.466
170.03
165.97
163.653
167.642
171.08
173.979
176.371
178.292
179.781
180.869
181.581
181.934
181.937
181.589
180.883
179.801
178.317
176.4
174.012
171.116
167.681
163.694
161.981
165.914
169.34
172.264
174.704
176.682
178.227
179.363
180.109
180.481
180.484
180.12
179.38
178.251
176.713
174.74
172.306
169.387
165.964
162.034
160.884
164.779
168.194
171.129
173.593
175.605
177.183
178.348
179.115
179.498
179.502
179.128
178.368
177.211
175.64
173.636
171.178
168.249
164.839
160.948
160.341
164.216
167.625
170.563
173.039
175.065
176.658
177.837
178.615
179.003
179.008
178.628
177.859
176.689
175.104
173.085
170.617
167.685
164.282
160.411
192.565
195.375
196.556
197.193
197.593
197.866
198.056
198.187
198.268
198.308
198.308
198.268
198.187
198.057
197.866
197.593
197.192
196.556
195.373
192.561
183.738
187.758
190.222
191.82
192.915
193.689
194.238
194.616
194.855
194.971
194.971
194.856
194.618
194.24
193.691
192.917
191.822
190.223
187.758
183.735
177.485
181.723
184.775
186.976
188.582
189.76
190.615
191.212
191.591
191.776
191.776
191.593
191.215
190.619
189.765
188.588
186.981
184.779
181.726
177.486
172.692
176.91
180.216
182.766
184.718
186.196
187.292
188.067
188.564
188.807
188.808
188.567
188.072
187.299
186.205
184.727
182.776
180.226
176.919
172.7
168.916
173.058
176.465
179.208
181.381
183.07
184.345
185.259
185.849
186.139
186.141
185.854
185.266
184.355
183.083
181.396
179.225
176.482
173.075
168.933
165.942
170.003
173.44
176.287
178.597
180.427
181.829
182.845
183.506
183.832
183.834
183.512
182.855
181.844
180.445
178.618
176.311
173.466
170.03
165.97
163.653
167.642
171.08
173.979
176.371
178.292
179.781
180.869
181.581
181.934
181.937
181.589
180.883
179.801
178.317
176.4
174.012
171.116
167.681
163.693
161.981
165.914
169.34
172.264
174.704
176.682
178.227
179.363
180.109
180.481
180.484
180.12
179.38
178.251
176.713
174.74
172.306
169.387
165.964
162.033
160.884
164.779
168.194
171.129
173.594
175.605
177.183
178.348
179.116
179.499
179.503
179.128
178.368
177.211
175.64
173.636
171.178
168.249
164.839
160.948
160.341
164.216
167.625
170.563
173.039
175.065
176.659
177.837
178.615
179.003
179.008
178.628
177.859
176.689
175.104
173.085
170.617
167.685
164.282
160.411
192.562
195.373
196.555
197.191
197.592
197.865
198.056
198.186
198.268
198.308
198.308
198.269
198.187
198.057
197.867
197.594
197.194
196.557
195.375
192.564
183.735
187.756
190.219
191.818
192.913
193.687
194.237
194.616
194.855
194.971
194.972
194.857
194.619
194.241
193.692
192.919
191.824
190.225
187.76
183.738
177.482
181.72
184.772
186.974
188.58
189.759
190.614
191.211
191.591
191.776
191.777
191.594
191.216
190.62
189.767
188.589
186.983
184.781
181.728
177.489
172.689
176.907
180.213
182.764
184.716
186.194
187.29
188.066
188.564
188.807
188.809
188.568
188.073
187.3
186.206
184.729
182.778
180.228
176.921
172.703
168.913
173.055
176.462
179.206
181.379
183.068
184.343
185.258
185.849
186.139
186.141
185.854
185.267
184.356
183.084
181.398
179.227
176.484
173.078
168.936
165.939
170
173.437
176.284
178.595
180.425
181.827
182.844
183.505
183.832
183.835
183.513
182.856
181.845
180.447
178.62
176.313
173.468
170.033
165.972
163.65
167.639
171.077
173.976
176.369
178.291
179.78
180.868
181.58
181.934
181.937
181.59
180.884
179.802
178.318
176.401
174.014
171.118
167.683
163.696
161.978
165.911
169.338
172.262
174.702
176.681
178.226
179.362
180.109
180.481
180.484
180.12
179.381
178.252
176.714
174.741
172.308
169.389
165.966
162.036
160.881
164.776
168.192
171.127
173.592
175.603
177.182
178.347
179.115
179.498
179.503
179.128
178.369
177.212
175.642
173.638
171.18
168.251
164.841
160.95
160.338
164.214
167.623
170.561
173.037
175.063
176.658
177.836
178.615
179.003
179.008
178.629
177.86
176.69
175.105
173.087
170.619
167.687
164.285
160.413
104.191
112.583
121.006
129.483
138.043
146.722
155.573
164.664
174.068
183.717
104.048
112.148
120.262
128.397
136.563
144.765
153.003
161.25
169.405
177.163
103.903
111.708
119.509
127.299
135.068
142.797
150.451
157.955
165.168
171.82
103.763
111.283
118.781
126.241
133.637
140.934
148.079
154.987
161.525
167.504
103.633
110.889
118.11
125.269
132.333
139.257
145.983
152.429
158.488
164.027
103.518
110.541
117.52
124.419
131.201
137.817
144.21
150.306
156.021
161.261
103.422
110.251
117.028
123.715
130.27
136.644
142.782
148.621
154.09
159.12
103.348
110.027
116.649
123.174
129.558
135.754
141.708
147.365
152.664
157.551
103.297
109.875
116.391
122.806
129.077
135.155
140.991
146.531
151.724
156.521
103.268
109.798