/*--------------------------------*- C++ -*----------------------------------*\
| =========                 |                                                 |
| \\      /  F ield         | OpenFOAM: The Open Source CFD Toolbox           |
|  \\    /   O peration     | Version:  2.4.0                                 |
|   \\  /    A nd           | Web:      www.OpenFOAM.org                      |
|    \\/     M anipulation  |                                                 |
\*---------------------------------------------------------------------------*/
FoamFile
{
    version     2.0;
    format      ascii;
    class       volScalarField;
    location    "2.4";
    object      p;
}
// * * * * * * * * * * * * * * * * * * * * * * * * * * * * * * * * * * * * * //

dimensions      [0 2 -2 0 0 0 0];

internalField   nonuniform List<scalar> 
4800
(
3.27796e-06
-0.00157543
-0.00321804
-0.00441844
-0.0048566
-0.00438382
-0.00295454
-0.000573757
0.00271262
0.00680807
0.00158237
-2.837e-05
-0.00119252
-0.0018672
-0.00193098
-0.0012753
0.000146161
0.00234841
0.00532011
0.00901317
0.0032632
0.00108835
-8.30904e-05
-0.000604753
-0.000544472
0.000155928
0.00152718
0.00359478
0.00637835
0.00987224
0.00438307
0.00156615
0.000224244
-0.000311892
-0.000265658
0.000378134
0.00163907
0.00356071
0.00620598
0.00962777
0.00440152
0.00107742
-0.000444686
-0.00106726
-0.00112627
-0.00063188
0.000441718
0.002176
0.00470442
0.00818485
0.00296234
-0.000661976
-0.00233133
-0.0030893
-0.00333852
-0.00309525
-0.00230551
-0.000823336
0.00159618
0.00531877
-0.000104932
-0.00379417
-0.00555635
-0.00648447
-0.00700556
-0.00712717
-0.00674712
-0.00562931
-0.00337179
0.000814657
-0.00480055
-0.00832033
-0.0101126
-0.0112351
-0.0121051
-0.0127167
-0.0129099
-0.0123471
-0.0104533
-0.00560612
-0.0109616
-0.0141051
-0.015864
-0.0171893
-0.018465
-0.0196806
-0.0206246
-0.0208619
-0.0197209
-0.0140394
-0.0182802
-0.0208938
-0.0225579
-0.0240664
-0.0257617
-0.0276639
-0.0295775
-0.0310728
-0.0319131
-0.0274292
4.79649e-06
-0.00159583
-0.00324907
-0.00445836
-0.00490179
-0.00443117
-0.003002
-0.000619311
0.00267129
0.00677355
0.00160028
-3.26832e-05
-0.00117515
-0.0018399
-0.00189872
-0.00123991
0.000181637
0.00238138
0.00534903
0.00903811
0.0032935
0.00106266
-8.4255e-05
-0.000603694
-0.000545849
0.000154626
0.00152575
0.00359269
0.0063755
0.00987049
0.00442682
0.00152996
0.000224385
-0.000308738
-0.000266716
0.000376576
0.00163704
0.00355749
0.0062005
0.00962296
0.00445483
0.00103494
-0.000439856
-0.00105684
-0.00112003
-0.000625951
0.000446986
0.00217904
0.00470089
0.00817809
0.00302032
-0.000708941
-0.00232503
-0.00307607
-0.00332939
-0.00308621
-0.00229668
-0.000816273
0.00159016
0.00530011
-4.68784e-05
-0.0038423
-0.00554962
-0.00647
-0.00699457
-0.00711577
-0.0067345
-0.00561416
-0.00337967
0.000767396
-0.00474707
-0.00836649
-0.0101065
-0.0112211
-0.0120936
-0.012705
-0.0128967
-0.0123236
-0.0104764
-0.00577082
-0.010917
-0.0141469
-0.0158597
-0.0171775
-0.0184542
-0.0196687
-0.0206086
-0.0208062
-0.0197046
-0.0144091
-0.0182478
-0.0209299
-0.0225572
-0.0240596
-0.0257545
-0.0276531
-0.0295545
-0.0309332
-0.0315876
-0.0275387
5.61417e-06
-0.0015954
-0.00324883
-0.00445824
-0.00490173
-0.00443114
-0.00300199
-0.000619311
0.00267128
0.00677355
0.00160071
-3.23967e-05
-0.00117498
-0.0018398
-0.00189867
-0.00123989
0.000181644
0.00238138
0.00534902
0.0090381
0.00329373
0.00106283
-8.41411e-05
-0.000603626
-0.000545817
0.000154639
0.00152575
0.00359269
0.00637549
0.00987049
0.00442693
0.00153006
0.000224449
-0.000308701
-0.0002667
0.000376579
0.00163704
0.00355748
0.00620049
0.00962295
0.00445488
0.00103498
-0.000439826
-0.00105683
-0.00112003
-0.000625954
0.00044698
0.00217903
0.00470088
0.00817808
0.00302034
-0.000708927
-0.00232503
-0.00307607
-0.0033294
-0.00308622
-0.00229669
-0.000816284
0.00159015
0.0053001
-4.68819e-05
-0.00384231
-0.00554963
-0.00647001
-0.00699458
-0.00711579
-0.00673451
-0.00561418
-0.00337969
0.000767386
-0.00474708
-0.0083665
-0.0101065
-0.0112211
-0.0120936
-0.012705
-0.0128967
-0.0123236
-0.0104764
-0.00577083
-0.0109171
-0.0141469
-0.0158597
-0.0171775
-0.0184542
-0.0196688
-0.0206086
-0.0208062
-0.0197046
-0.0144091
-0.0182478
-0.02093
-0.0225572
-0.0240596
-0.0257545
-0.0276532
-0.0295545
-0.0309333
-0.0315876
-0.0275387
6.99461e-06
-0.00157406
-0.00321741
-0.00441812
-0.00485644
-0.00438375
-0.00295452
-0.000573752
0.00271261
0.00680806
0.00158373
-2.75645e-05
-0.00119207
-0.00186696
-0.00193086
-0.00127525
0.000146175
0.0023484
0.0053201
0.00901315
0.00326381
0.0010888
-8.28063e-05
-0.000604591
-0.000544392
0.000155956
0.00152718
0.00359477
0.00637834
0.00987222
0.00438336
0.00156638
0.000224397
-0.000311807
-0.000265621
0.000378137
0.00163906
0.0035607
0.00620596
0.00962774
0.00440164
0.00107752
-0.000444622
-0.00106723
-0.00112627
-0.000631894
0.000441697
0.00217597
0.00470439
0.00818482
0.00296237
-0.000661949
-0.00233132
-0.00308931
-0.00333853
-0.00309527
-0.00230553
-0.000823363
0.00159615
0.00531875
-0.000104951
-0.00379419
-0.00555637
-0.0064845
-0.00700559
-0.0071272
-0.00674715
-0.00562934
-0.00337182
0.000814634
-0.00480059
-0.00832036
-0.0101126
-0.0112352
-0.0121051
-0.0127167
-0.0129099
-0.0123472
-0.0104533
-0.00560614
-0.0109617
-0.0141051
-0.015864
-0.0171893
-0.0184651
-0.0196806
-0.0206246
-0.020862
-0.0197209
-0.0140394
-0.0182802
-0.0208939
-0.0225579
-0.0240664
-0.0257618
-0.0276639
-0.0295775
-0.0310729
-0.0319131
-0.0274292
0.0115597
0.0167808
0.022303
0.0279995
0.033786
0.0396139
0.0454598
0.0513181
0.0571967
0.0631151
0.0691047
0.0752098
0.0814878
0.0880073
0.0948423
0.102059
0.109695
0.117733
0.126055
0.13443
0.01333
0.0181327
0.0232917
0.0286998
0.0342751
0.0399604
0.0457199
0.0515353
0.057403
0.0633319
0.0693425
0.0754662
0.081744
0.0882235
0.0949532
0.101973
0.109297
0.116894
0.124667
0.132427
0.0140097
0.0186518
0.0236759
0.0289792
0.0344785
0.0401127
0.0458405
0.0516379
0.0574949
0.0634139
0.0694078
0.0754988
0.0817175
0.0881
0.0946847
0.101506
0.108581
0.115899
0.123393
0.130921
0.0137833
0.018471
0.0235454
0.0288963
0.0344353
0.0400998
0.0458489
0.051658
0.0575152
0.063419
0.069376
0.0754006
0.0815136
0.0877429
0.0941219
0.100689
0.107483
0.114531
0.121827
0.129299
0.012612
0.0175901
0.0229192
0.0284765
0.0341704
0.0399443
0.0457659
0.0516172
0.0574893
0.0633796
0.0692897
0.0752252
0.0811968
0.0872218
0.0933283
0.0995621
0.105987
0.11269
0.119759
0.12726
0.0104486
0.0160633
0.0218873
0.0278123
0.033762
0.0397057
0.0456347
0.0515473
0.0574433
0.0633217
0.0691798
0.0750139
0.0808217
0.0866061
0.0923841
0.0982016
0.10415
0.110381
0.117116
0.124688
0.00742205
0.0141526
0.0207149
0.027123
0.0333717
0.0394949
0.045529
0.051498
0.0574142
0.0632792
0.0690856
0.074819
0.0804607
0.0859934
0.0914122
0.0967469
0.102106
0.107696
0.113902
0.121554
0.00393817
0.0123733
0.0198228
0.0267099
0.0331958
0.0394325
0.0455213
0.0515145
0.0574341
0.0632818
0.0690432
0.0746912
0.0801878
0.0854897
0.0905576
0.0953867
0.10008
0.104859
0.110234
0.117832
0.00201411
0.0123781
0.0201327
0.0270429
0.0334655
0.0396305
0.0456693
0.0516332
0.0575361
0.0633697
0.0691082
0.074709
0.080112
0.0852395
0.0899996
0.0943174
0.0982436
0.101796
0.105323
0.111693
0.00654655
0.0176458
0.0232614
0.0287807
0.0344362
0.0401895
0.0460205
0.0518921
0.0577679
0.0636116
0.0693785
0.0750071
0.0804093
0.085458
0.0899712
0.093693
0.0962764
0.0974344
0.0963815
0.0981236
0.0115337
0.0167627
0.022291
0.0279919
0.0337814
0.039611
0.0454578
0.0513165
0.057195
0.0631129
0.0691018
0.075206
0.0814829
0.0880016
0.0948362
0.102054
0.109692
0.117733
0.126063
0.134449
0.0133521
0.0181511
0.0233062
0.0287109
0.0342834
0.0399666
0.0457248
0.0515395
0.0574071
0.0633362
0.0693472
0.0754714
0.0817494
0.0882284
0.0949563
0.101972
0.109291
0.116881
0.124645
0.132397
0.0140124
0.0186566
0.0236811
0.0289841
0.0344827
0.040116
0.0458431
0.0516399
0.0574965
0.0634152
0.0694088
0.0754997
0.0817181
0.0881002
0.0946843
0.101504
0.108578
0.115895
0.123387
0.130916
0.0137876
0.0184779
0.0235523
0.0289024
0.0344401
0.0401034
0.0458515
0.0516598
0.0575164
0.0634198
0.0693766
0.075401
0.0815139
0.087743
0.0941218
0.100689
0.107481
0.114527
0.121821
0.129294
0.0126237
0.0176032
0.0229298
0.0284848
0.0341762
0.0399482
0.0457684
0.0516187
0.0574903
0.0633803
0.0692903
0.0752259
0.0811976
0.0872226
0.093329
0.099562
0.105986
0.112687
0.119748
0.127245
0.0104737
0.0160847
0.0219007
0.0278212
0.0337672
0.0397085
0.0456361
0.0515479
0.0574436
0.0633218
0.0691799
0.0750142
0.0808222
0.086607
0.0923852
0.0982022
0.104151
0.11038
0.117099
0.124651
0.00748901
0.0141966
0.0207352
0.0271336
0.0333762
0.0394963
0.0455292
0.0514978
0.0574139
0.063279
0.0690856
0.0748193
0.0804614
0.0859947
0.0914139
0.0967479
0.102105
0.107691
0.113859
0.121452
0.004052
0.0124193
0.0198321
0.0267134
0.0331954
0.0394306
0.0455195
0.0515131
0.0574329
0.0632808
0.0690424
0.0746905
0.0801875
0.0854901
0.0905591
0.0953873
0.100079
0.104865
0.110196
0.117669
0.00215647
0.0123151
0.0200624
0.027013
0.0334501
0.0396212
0.0456634
0.0516288
0.0575319
0.0633649
0.0691025
0.0747022
0.0801043
0.0852323
0.0899956
0.0943188
0.0982633
0.101883
0.105441
0.111517
0.00737809
0.0177861
0.0232712
0.0288033
0.0344508
0.0401963
0.0460244
0.0518948
0.0577703
0.0636142
0.0693818
0.0750112
0.0804142
0.0854634
0.0899753
0.0936901
0.096266
0.0974646
0.09632
0.0970758
0.0115337
0.0167627
0.022291
0.0279919
0.0337814
0.039611
0.0454578
0.0513165
0.057195
0.0631129
0.0691018
0.075206
0.0814829
0.0880016
0.0948362
0.102054
0.109692
0.117733
0.126063
0.134449
0.0133521
0.0181511
0.0233062
0.0287109
0.0342834
0.0399666
0.0457248
0.0515395
0.0574071
0.0633362
0.0693472
0.0754714
0.0817494
0.0882284
0.0949563
0.101972
0.109291
0.116881
0.124645
0.132397
0.0140124
0.0186566
0.0236811
0.0289841
0.0344827
0.040116
0.0458431
0.0516399
0.0574965
0.0634152
0.0694088
0.0754997
0.0817181
0.0881002
0.0946843
0.101504
0.108578
0.115895
0.123387
0.130916
0.0137876
0.0184779
0.0235523
0.0289024
0.0344401
0.0401034
0.0458515
0.0516598
0.0575164
0.0634198
0.0693766
0.075401
0.0815139
0.087743
0.0941218
0.100689
0.107481
0.114527
0.121821
0.129294
0.0126237
0.0176032
0.0229298
0.0284848
0.0341762
0.0399482
0.0457684
0.0516187
0.0574903
0.0633803
0.0692903
0.0752259
0.0811976
0.0872226
0.093329
0.099562
0.105986
0.112687
0.119748
0.127245
0.0104737
0.0160847
0.0219007
0.0278212
0.0337672
0.0397085
0.0456361
0.0515479
0.0574436
0.0633218
0.0691799
0.0750142
0.0808222
0.086607
0.0923852
0.0982022
0.104151
0.11038
0.117099
0.124651
0.00748901
0.0141966
0.0207352
0.0271336
0.0333762
0.0394963
0.0455292
0.0514978
0.0574139
0.063279
0.0690856
0.0748193
0.0804614
0.0859947
0.0914139
0.0967479
0.102105
0.107691
0.113859
0.121452
0.00405199
0.0124193
0.0198321
0.0267134
0.0331954
0.0394306
0.0455195
0.0515131
0.0574329
0.0632808
0.0690424
0.0746905
0.0801875
0.0854901
0.0905591
0.0953873
0.100079
0.104865
0.110196
0.117669
0.00215646
0.0123151
0.0200624
0.027013
0.0334501
0.0396212
0.0456634
0.0516288
0.0575319
0.0633649
0.0691025
0.0747022
0.0801043
0.0852323
0.0899956
0.0943188
0.0982633
0.101883
0.105441
0.111517
0.00737808
0.0177861
0.0232712
0.0288033
0.0344508
0.0401963
0.0460244
0.0518948
0.0577703
0.0636142
0.0693818
0.0750112
0.0804142
0.0854634
0.0899753
0.0936901
0.096266
0.0974646
0.09632
0.0970758
0.0115597
0.0167808
0.022303
0.0279995
0.033786
0.0396139
0.0454598
0.0513181
0.0571967
0.0631151
0.0691048
0.0752098
0.0814878
0.0880073
0.0948423
0.102059
0.109695
0.117733
0.126055
0.13443
0.01333
0.0181327
0.0232917
0.0286998
0.0342751
0.0399604
0.0457199
0.0515353
0.057403
0.0633319
0.0693425
0.0754662
0.081744
0.0882235
0.0949532
0.101973
0.109297
0.116894
0.124667
0.132427
0.0140097
0.0186518
0.0236759
0.0289792
0.0344785
0.0401127
0.0458405
0.0516379
0.0574949
0.0634139
0.0694078
0.0754988
0.0817175
0.0881
0.0946847
0.101506
0.108581
0.115899
0.123393
0.130921
0.0137833
0.018471
0.0235454
0.0288963
0.0344353
0.0400998
0.0458489
0.051658
0.0575152
0.063419
0.069376
0.0754006
0.0815136
0.0877429
0.0941219
0.100689
0.107483
0.114531
0.121827
0.129299
0.012612
0.01759
0.0229192
0.0284765
0.0341704
0.0399443
0.0457659
0.0516172
0.0574893
0.0633796
0.0692897
0.0752252
0.0811968
0.0872218
0.0933283
0.0995621
0.105987
0.11269
0.119759
0.12726
0.0104486
0.0160633
0.0218873
0.0278123
0.033762
0.0397057
0.0456347
0.0515473
0.0574433
0.0633217
0.0691798
0.0750139
0.0808217
0.0866061
0.0923842
0.0982016
0.10415
0.110381
0.117116
0.124688
0.00742203
0.0141526
0.0207149
0.027123
0.0333717
0.0394949
0.045529
0.051498
0.0574142
0.0632792
0.0690856
0.074819
0.0804607
0.0859934
0.0914122
0.0967469
0.102106
0.107696
0.113902
0.121554
0.00393815
0.0123733
0.0198228
0.0267099
0.0331958
0.0394324
0.0455213
0.0515145
0.0574341
0.0632818
0.0690432
0.0746912
0.0801878
0.0854897
0.0905576
0.0953868
0.10008
0.104859
0.110234
0.117832
0.0020141
0.0123781
0.0201327
0.0270429
0.0334655
0.0396305
0.0456693
0.0516332
0.0575361
0.0633697
0.0691082
0.074709
0.080112
0.0852395
0.0899997
0.0943175
0.0982436
0.101796
0.105323
0.111693
0.00654656
0.0176458
0.0232613
0.0287807
0.0344362
0.0401895
0.0460205
0.0518921
0.0577679
0.0636116
0.0693785
0.0750071
0.0804093
0.085458
0.0899713
0.093693
0.0962764
0.0974344
0.0963815
0.0981236
0.142496
0.149816
0.155979
0.160678
0.16375
0.165192
0.165176
0.164058
0.162377
0.160799
0.139883
0.146673
0.15246
0.156989
0.160125
0.161867
0.162358
0.161881
0.160764
0.159216
0.13822
0.144915
0.150668
0.155227
0.158455
0.160345
0.161016
0.160709
0.1596
0.157572
0.136711
0.143589
0.149545
0.154298
0.157697
0.159722
0.16048
0.160188
0.158925
0.156371
0.135015
0.142312
0.148674
0.153776
0.157447
0.159664
0.160527
0.16025
0.158863
0.155934
0.133112
0.141095
0.14806
0.153653
0.15769
0.160159
0.161173
0.160954
0.159522
0.15641
0.131198
0.140148
0.147864
0.154031
0.158479
0.161234
0.162437
0.16233
0.160949
0.157844
0.1297
0.139907
0.148422
0.155145
0.15996
0.16297
0.164363
0.164404
0.16316
0.160234
0.128858
0.141042
0.150309
0.157398
0.162378
0.165501
0.167015
0.167198
0.166144
0.163535
0.133337
0.146711
0.155145
0.161577
0.166099
0.168985
0.170446
0.170705
0.169855
0.167651
0.142528
0.14986
0.156033
0.160736
0.163808
0.165245
0.16522
0.164088
0.162394
0.160798
0.139847
0.146632
0.152414
0.156941
0.160078
0.161825
0.162322
0.161855
0.16076
0.159195
0.138221
0.144919
0.150674
0.155234
0.158461
0.160349
0.161016
0.160708
0.159617
0.157541
0.136718
0.143601
0.149559
0.154313
0.15771
0.159733
0.160483
0.160189
0.158953
0.156331
0.135023
0.142323
0.148685
0.153787
0.157457
0.15967
0.160526
0.160249
0.158896
0.155889
0.133123
0.141107
0.148072
0.153664
0.157699
0.160165
0.161172
0.160952
0.159558
0.156362
0.131221
0.140164
0.147877
0.154043
0.158488
0.161239
0.162435
0.162328
0.160985
0.157797
0.12984
0.139962
0.148446
0.155161
0.159967
0.162973
0.16436
0.164402
0.163193
0.160188
0.129183
0.141058
0.150286
0.15739
0.162372
0.165497
0.16701
0.167195
0.166173
0.163493
0.133227
0.146341
0.15498
0.16153
0.16608
0.168978
0.170441
0.170703
0.16988
0.167617
0.142528
0.14986
0.156033
0.160736
0.163807
0.165245
0.16522
0.164088
0.162394
0.160798
0.139847
0.146632
0.152414
0.156941
0.160078
0.161824
0.162322
0.161855
0.16076
0.159195
0.138221
0.144919
0.150674
0.155234
0.158461
0.160349
0.161016
0.160708
0.159617
0.157541
0.136718
0.143601
0.149559
0.154313
0.15771
0.159733
0.160483
0.160189
0.158953
0.156331
0.135023
0.142323
0.148685
0.153787
0.157456
0.15967
0.160526
0.160249
0.158896
0.155889
0.133123
0.141107
0.148072
0.153664
0.157699
0.160165
0.161172
0.160952
0.159558
0.156362
0.131221
0.140164
0.147877
0.154043
0.158488
0.161239
0.162435
0.162328
0.160985
0.157797
0.12984
0.139962
0.148446
0.155161
0.159967
0.162973
0.16436
0.164402
0.163193
0.160188
0.129183
0.141058
0.150286
0.15739
0.162372
0.165497
0.16701
0.167195
0.166173
0.163493
0.133227
0.146341
0.15498
0.16153
0.16608
0.168978
0.170441
0.170703
0.16988
0.167617
0.142496
0.149816
0.155979
0.160678
0.16375
0.165192
0.165176
0.164058
0.162377
0.160799
0.139883
0.146673
0.15246
0.156989
0.160125
0.161867
0.162358
0.161881
0.160764
0.159216
0.13822
0.144915
0.150668
0.155227
0.158455
0.160345
0.161016
0.160709
0.1596
0.157572
0.136711
0.143589
0.149545
0.154298
0.157697
0.159722
0.16048
0.160188
0.158925
0.156371
0.135015
0.142312
0.148674
0.153776
0.157447
0.159664
0.160527
0.16025
0.158863
0.155934
0.133112
0.141095
0.14806
0.153653
0.15769
0.160159
0.161173
0.160954
0.159522
0.15641
0.131198
0.140148
0.147864
0.154031
0.158479
0.161234
0.162437
0.16233
0.160949
0.157844
0.1297
0.139907
0.148422
0.155145
0.15996
0.16297
0.164363
0.164404
0.16316
0.160234
0.128858
0.141042
0.150309
0.157398
0.162378
0.165501
0.167015
0.167198
0.166144
0.163535
0.133337
0.146711
0.155145
0.161577
0.166099
0.168985
0.170446
0.170705
0.169855
0.167651
0.167267
0.162734
0.164668
0.168173
0.171225
0.173416
0.174613
0.174861
0.174196
0.172433
0.178308
0.173058
0.173077
0.174888
0.176835
0.1784
0.179315
0.179525
0.179029
0.177696
0.183861
0.18077
0.180497
0.181433
0.182654
0.183735
0.184406
0.184575
0.184225
0.183272
0.189311
0.187637
0.187356
0.187825
0.188574
0.189298
0.189772
0.189903
0.189672
0.189033
0.194893
0.194021
0.193822
0.194064
0.194521
0.194995
0.195321
0.195422
0.195283
0.19489
0.200579
0.200166
0.200058
0.20019
0.200467
0.200767
0.200983
0.201057
0.200987
0.200783
0.20637
0.206221
0.206181
0.206251
0.206406
0.206579
0.206706
0.206753
0.20673
0.206669
0.212252
0.212277
0.21227
0.212289
0.212343
0.212406
0.212449
0.212459
0.212461
0.212513
0.218252
0.218384
0.218382
0.218337
0.218286
0.218231
0.218177
0.218132
0.218137
0.21827
0.224408
0.224601
0.224569
0.224429
0.224242
0.224041
0.22386
0.22373
0.223706
0.22389
0.230784
0.230989
0.230878
0.230592
0.230218
0.229821
0.229466
0.229208
0.229118
0.22931
0.237475
0.237615
0.237356
0.236854
0.236222
0.235559
0.234967
0.234525
0.234315
0.234453
0.244597
0.244548
0.244044
0.243234
0.242255
0.241243
0.240337
0.239643
0.239243
0.239235
0.252297
0.25185
0.250965
0.249737
0.24831
0.24686
0.245562
0.24454
0.243862
0.24357
0.260757
0.25953
0.258095
0.256331
0.254362
0.252402
0.250644
0.24922
0.248161
0.247386
0.270089
0.267565
0.265322
0.262908
0.260343
0.257849
0.255609
0.253732
0.252169
0.250667
0.280362
0.275623
0.272303
0.269205
0.266094
0.263158
0.260509
0.258187
0.256009
0.253455
0.291246
0.282938
0.278333
0.2747
0.271299
0.268219
0.265409
0.26277
0.259904
0.255922
0.302695
0.288526
0.282244
0.278452
0.275349
0.272767
0.270352
0.267744
0.264229
0.25841
0.313869
0.288878
0.28085
0.278291
0.276984
0.276233
0.275291
0.273451
0.26955
0.261519
0.168098
0.162876
0.164782
0.16824
0.17125
0.173428
0.174618
0.174863
0.174218
0.172407
0.178448
0.172995
0.173123
0.174932
0.176857
0.178413
0.179322
0.17953
0.179048
0.177678
0.183871
0.1807
0.180506
0.181453
0.182668
0.183745
0.184413
0.18458
0.184239
0.18326
0.189333
0.187608
0.18736
0.187836
0.188583
0.189306
0.189778
0.189908
0.189683
0.189026
0.194907
0.194008
0.193822
0.194068
0.194527
0.195
0.195325
0.195425
0.19529
0.194886
0.200584
0.20016
0.200056
0.200191
0.20047
0.200771
0.200986
0.20106
0.200991
0.200782
0.206372
0.20622
0.20618
0.206252
0.206408
0.206581
0.206708
0.206755
0.206731
0.206669
0.212251
0.212278
0.212269
0.212289
0.212344
0.212407
0.21245
0.21246
0.21246
0.212514
0.21825
0.218387
0.218382
0.218337
0.218286
0.218232
0.218178
0.218133
0.218134
0.218272
0.224404
0.224605
0.224569
0.224428
0.224241
0.224041
0.22386
0.22373
0.223702
0.223893
0.23078
0.230994
0.230878
0.230591
0.230218
0.229821
0.229466
0.229208
0.229113
0.229314
0.237469
0.237619
0.237355
0.236852
0.236221
0.235559
0.234967
0.234525
0.234311
0.234459
0.244592
0.24455
0.244042
0.243232
0.242253
0.241242
0.240337
0.239644
0.239241
0.23924
0.252292
0.251845
0.250961
0.249734
0.248307
0.246859
0.245562
0.244541
0.243864
0.243574
0.260756
0.259512
0.258089
0.256327
0.254358
0.2524
0.250644
0.249223
0.24817
0.247387
0.270101
0.267528
0.265314
0.262905
0.260339
0.257847
0.255609
0.253738
0.252191
0.250662
0.280414
0.275554
0.272297
0.269204
0.266089
0.263157
0.260509
0.258195
0.256047
0.253441
0.291315
0.282765
0.278309
0.274698
0.271292
0.268218
0.265411
0.262783
0.259968
0.255893
0.302815
0.2882
0.282248
0.278494
0.275364
0.272779
0.27036
0.267765
0.264327
0.258361
0.315204
0.288981
0.281144
0.278476
0.277053
0.276267
0.275306
0.273481
0.269692
0.261443
0.168098
0.162876
0.164782
0.16824
0.17125
0.173428
0.174618
0.174863
0.174218
0.172407
0.178448
0.172995
0.173123
0.174932
0.176857
0.178413
0.179322
0.17953
0.179048
0.177678
0.183871
0.1807
0.180506
0.181453
0.182668
0.183745
0.184413
0.18458
0.184239
0.18326
0.189333
0.187608
0.18736
0.187836
0.188583
0.189306
0.189778
0.189908
0.189683
0.189026
0.194907
0.194008
0.193822
0.194068
0.194527
0.195001
0.195325
0.195425
0.19529
0.194886
0.200584
0.20016
0.200056
0.200191
0.20047
0.200771
0.200986
0.20106
0.200991
0.200782
0.206372
0.20622
0.20618
0.206252
0.206408
0.206581
0.206708
0.206755
0.206731
0.206669
0.212251
0.212278
0.212269
0.212289
0.212344
0.212407
0.21245
0.21246
0.21246
0.212514
0.21825
0.218387
0.218382
0.218337
0.218286
0.218232
0.218178
0.218133
0.218134
0.218272
0.224404
0.224605
0.224569
0.224428
0.224241
0.224041
0.22386
0.22373
0.223702
0.223893
0.23078
0.230994
0.230878
0.230591
0.230218
0.229821
0.229466
0.229208
0.229113
0.229314
0.237469
0.237619
0.237355
0.236852
0.236221
0.235559
0.234967
0.234525
0.234311
0.234459
0.244592
0.24455
0.244042
0.243232
0.242253
0.241242
0.240337
0.239644
0.239241
0.23924
0.252292
0.251845
0.250961
0.249734
0.248307
0.246859
0.245562
0.244541
0.243864
0.243574
0.260756
0.259512
0.258089
0.256327
0.254358
0.2524
0.250644
0.249223
0.24817
0.247387
0.270101
0.267528
0.265314
0.262905
0.260339
0.257847
0.255609
0.253738
0.252191
0.250662
0.280414
0.275554
0.272297
0.269204
0.266089
0.263157
0.260509
0.258195
0.256047
0.253441
0.291315
0.282765
0.278309
0.274698
0.271292
0.268218
0.265411
0.262783
0.259968
0.255893
0.302815
0.2882
0.282248
0.278494
0.275364
0.272779
0.27036
0.267765
0.264327
0.258361
0.315204
0.288981
0.281144
0.278476
0.277053
0.276267
0.275306
0.273481
0.269692
0.261443
0.167267
0.162734
0.164668
0.168173
0.171225
0.173416
0.174613
0.174861
0.174196
0.172433
0.178308
0.173058
0.173077
0.174888
0.176835
0.1784
0.179315
0.179525
0.179029
0.177696
0.183861
0.18077
0.180497
0.181433
0.182654
0.183735
0.184406
0.184575
0.184225
0.183272
0.189311
0.187637
0.187356
0.187825
0.188574
0.189298
0.189772
0.189903
0.189672
0.189033
0.194893
0.194021
0.193822
0.194064
0.194521
0.194995
0.195321
0.195422
0.195283
0.19489
0.200579
0.200166
0.200058
0.20019
0.200467
0.200767
0.200983
0.201057
0.200987
0.200783
0.20637
0.206221
0.206181
0.206251
0.206406
0.206579
0.206706
0.206753
0.20673
0.206669
0.212252
0.212277
0.21227
0.212289
0.212343
0.212406
0.212449
0.212459
0.212461
0.212513
0.218252
0.218384
0.218383
0.218338
0.218286
0.218231
0.218177
0.218132
0.218137
0.21827
0.224408
0.224601
0.224569
0.224429
0.224242
0.224041
0.22386
0.22373
0.223706
0.22389
0.230784
0.230989
0.230878
0.230592
0.230218
0.229821
0.229466
0.229208
0.229118
0.22931
0.237475
0.237615
0.237356
0.236854
0.236222
0.235559
0.234967
0.234525
0.234315
0.234453
0.244597
0.244548
0.244044
0.243234
0.242255
0.241243
0.240337
0.239643
0.239243
0.239235
0.252297
0.25185
0.250965
0.249737
0.24831
0.24686
0.245562
0.24454
0.243862
0.24357
0.260757
0.25953
0.258095
0.256331
0.254362
0.252402
0.250644
0.24922
0.248161
0.247386
0.270089
0.267566
0.265322
0.262908
0.260343
0.257849
0.255609
0.253732
0.252169
0.250667
0.280362
0.275623
0.272303
0.269205
0.266094
0.263158
0.260509
0.258187
0.256009
0.253455
0.291246
0.282939
0.278333
0.2747
0.271299
0.268219
0.265409
0.26277
0.259904
0.255922
0.302695
0.288526
0.282244
0.278452
0.275349
0.272767
0.270352
0.267744
0.264229
0.25841
0.313869
0.288878
0.28085
0.278291
0.276985
0.276233
0.275291
0.273451
0.26955
0.261519
0.253096
0.261737
0.267067
0.271197
0.274764
0.278009
0.280212
0.280375
0.276714
0.266234
0.223979
0.239876
0.251145
0.260711
0.269792
0.278433
0.285491
0.289299
0.286986
0.274121
0.206537
0.221912
0.235294
0.248796
0.263246
0.278198
0.291822
0.301369
0.302194
0.287632
0.193032
0.20688
0.221068
0.237473
0.256882
0.278679
0.300503
0.31834
0.32503
0.310711
0.183181
0.195809
0.210441
0.229152
0.253101
0.282019
0.313584
0.342785
0.359469
0.349826
0.177248
0.189529
0.20496
0.225962
0.254333
0.290664
0.333565
0.378005
0.411105
0.415098
0.17506
0.188062
0.205058
0.228847
0.261985
0.306357
0.362546
0.427237
0.486465
0.520868
0.175747
0.190215
0.209358
0.236365
0.274702
0.328024
0.400009
0.490737
0.590548
0.694332
0.177663
0.193268
0.213852
0.242904
0.284857
0.345618
0.433509
0.556768
0.725577
1.00541
0.179062
0.194163
0.213563
0.24064
0.280094
0.33929
0.432232
0.586452
0.872774
1.48987
0.253431
0.261262
0.266939
0.271186
0.274762
0.278017
0.280217
0.280408
0.27691
0.266122
0.224403
0.239813
0.251083
0.260677
0.26977
0.278427
0.285483
0.289336
0.287249
0.273968
0.206794
0.221932
0.235264
0.248755
0.263206
0.278171
0.291791
0.301403
0.302535
0.287437
0.193123
0.206865
0.221016
0.237405
0.256809
0.278613
0.300429
0.318357
0.325441
0.310472
0.183209
0.195776
0.210372
0.229055
0.252987
0.281897
0.313446
0.342762
0.359903
0.34957
0.177255
0.189492
0.20488
0.225842
0.254175
0.290464
0.333322
0.377888
0.411462
0.415049
0.175075
0.188039
0.204991
0.228724
0.261787
0.306044
0.362114
0.426904
0.486441
0.521355
0.175791
0.190249
0.20938
0.236365
0.274649
0.327823
0.399634
0.490401
0.589235
0.69401
0.177732
0.193381
0.214036
0.243194
0.285287
0.346178
0.434251
0.557371
0.722341
1.00311
0.179112
0.194202
0.213583
0.240644
0.280108
0.339366
0.43259
0.586887
0.869085
1.49912
0.253432
0.261262
0.266939
0.271186
0.274762
0.278017
0.280217
0.280408
0.27691
0.266122
0.224403
0.239813
0.251083
0.260677
0.26977
0.278427
0.285483
0.289336
0.287249
0.273968
0.206794
0.221932
0.235264
0.248755
0.263206
0.278171
0.291791
0.301403
0.302535
0.287437
0.193123
0.206865
0.221016
0.237405
0.256809
0.278613
0.300429
0.318357
0.325441
0.310472
0.183209
0.195776
0.210372
0.229055
0.252987
0.281897
0.313446
0.342762
0.359903
0.34957
0.177255
0.189492
0.20488
0.225842
0.254175
0.290464
0.333322
0.377888
0.411462
0.415049
0.175075
0.188039
0.204991
0.228724
0.261787
0.306044
0.362114
0.426904
0.486441
0.521355
0.175791
0.190249
0.20938
0.236365
0.274649
0.327823
0.399634
0.490401
0.589235
0.69401
0.177732
0.193381
0.214036
0.243194
0.285287
0.346178
0.434251
0.557371
0.722341
1.00311
0.179112
0.194202
0.213583
0.240644
0.280108
0.339366
0.43259
0.586887
0.869085
1.49912
0.253096
0.261737
0.267067
0.271197
0.274764
0.278009
0.280212
0.280375
0.276714
0.266234
0.223979
0.239876
0.251145
0.260711
0.269792
0.278433
0.285491
0.289299
0.286986
0.274121
0.206537
0.221912
0.235294
0.248796
0.263246
0.278198
0.291822
0.301369
0.302194
0.287632
0.193032
0.20688
0.221068
0.237473
0.256883
0.27868
0.300503
0.31834
0.32503
0.310711
0.183181
0.195809
0.210441
0.229152
0.253101
0.282019
0.313584
0.342785
0.359469
0.349826
0.177248
0.189529
0.20496
0.225962
0.254333
0.290664
0.333565
0.378005
0.411105
0.415098
0.17506
0.188062
0.205058
0.228847
0.261985
0.306357
0.362546
0.427237
0.486465
0.520868
0.175747
0.190215
0.209358
0.236365
0.274702
0.328024
0.400009
0.490737
0.590548
0.694332
0.177663
0.193268
0.213852
0.242904
0.284857
0.345618
0.433509
0.556768
0.725577
1.00541
0.179062
0.194163
0.213563
0.24064
0.280094
0.33929
0.432232
0.586452
0.872775
1.48987
-0.153111
-0.13249
-0.11451
-0.0979111
-0.0813225
-0.0645421
-0.0475648
-0.0304279
-0.0131931
0.00406701
0.0212749
0.038359
0.0552475
0.0718929
0.0883188
0.10471
0.121548
0.139868
0.162966
0.200685
-0.139284
-0.125808
-0.111306
-0.0960708
-0.0801547
-0.0637675
-0.047044
-0.0300817
-0.0129653
0.00422987
0.021438
0.0385981
0.0556724
0.0726607
0.0896345
0.1068
0.124554
0.143522
0.165219
0.193135
-0.136138
-0.124135
-0.110436
-0.0955832
-0.0798957
-0.0636358
-0.0469758
-0.0300374
-0.0129143
0.00431834
0.0215994
0.038879
0.0561234
0.0733251
0.0905226
0.107833
0.12547
0.143732
0.163182
0.184742
-0.13737
-0.125049
-0.111164
-0.0961711
-0.0803757
-0.0640159
-0.0472599
-0.0302269
-0.0130046
0.00434062
0.0217555
0.0391946
0.0566171
0.0739873
0.0912777
0.108477
0.125587
0.14261
0.159609
0.176692
-0.14012
-0.127109
-0.112722
-0.0973419
-0.0812485
-0.0646554
-0.0477123
-0.0305225
-0.0131585
0.00432703
0.0218904
0.0394881
0.0570675
0.0745574
0.09186
0.108843
0.125335
0.14113
0.156057
0.170077
-0.142617
-0.128971
-0.114104
-0.098351
-0.0819748
-0.0651667
-0.0480577
-0.0307346
-0.0132552
0.00433856
0.0220094
0.0397118
0.057379
0.0749075
0.0921427
0.108869
0.124816
0.139684
0.153262
0.165609
-0.143193
-0.129291
-0.114275
-0.0984321
-0.0820012
-0.0651584
-0.0480248
-0.0306806
-0.0131793
0.00443884
0.0221346
0.0398555
0.0575207
0.0750042
0.0921202
0.108618
0.124199
0.138573
0.151598
0.163485
-0.14096
-0.127403
-0.112758
-0.0972541
-0.0811076
-0.0644903
-0.0475287
-0.0303123
-0.0129053
0.00464152
0.0222777
0.0399386
0.0575312
0.0749181
0.0919065
0.10825
0.123675
0.137956
0.151054
0.163323
-0.135926
-0.123494
-0.109813
-0.0950904
-0.0795477
-0.0633819
-0.0467502
-0.029772
-0.0125374
0.00488151
0.0224194
0.0399964
0.0575104
0.0748229
0.0917478
0.108058
0.123519
0.137961
0.151414
0.164301
-0.127735
-0.117586
-0.10565
-0.0922162
-0.0775991
-0.0620817
-0.0458959
-0.0292206
-0.01219
0.00509242
0.0225381
0.0400662
0.0575741
0.0749262
0.0919469
0.108421
0.124119
0.13886
0.152628
0.165741
-0.153483
-0.132371
-0.114495
-0.0979332
-0.0813351
-0.0645497
-0.0475701
-0.0304312
-0.0131948
0.00406668
0.0212754
0.0383599
0.0552475
0.07189
0.0883092
0.10469
0.121526
0.13982
0.162635
0.200072
-0.139227
-0.125639
-0.111229
-0.0960341
-0.0801284
-0.063749
-0.0470315
-0.0300732
-0.0129598
0.00423322
0.0214403
0.0386008
0.0556776
0.0726715
0.0896537
0.106832
0.124614
0.143595
0.16512
0.192876
-0.136198
-0.124109
-0.110412
-0.0955649
-0.0798809
-0.0636252
-0.0469685
-0.0300322
-0.0129107
0.00432071
0.0216009
0.0388799
0.0561241
0.0733254
0.0905212
0.107828
0.125464
0.143715
0.163091
0.184656