/*--------------------------------*- C++ -*----------------------------------*\
| =========                 |                                                 |
| \\      /  F ield         | OpenFOAM: The Open Source CFD Toolbox           |
|  \\    /   O peration     | Version:  2.4.0                                 |
|   \\  /    A nd           | Web:      www.OpenFOAM.org                      |
|    \\/     M anipulation  |                                                 |
\*---------------------------------------------------------------------------*/
FoamFile
{
    version     2.0;
    format      ascii;
    class       surfaceScalarField;
    location    "2.4";
    object      phi;
}
// * * * * * * * * * * * * * * * * * * * * * * * * * * * * * * * * * * * * * //

dimensions      [0 3 -1 0 0 0 0];

internalField   nonuniform List<scalar> 
12720
(
1.45917e-07
-1.46592e-07
-1.18709e-10
-5.49797e-07
6.94035e-07
1.67921e-09
-2.0664e-06
1.51405e-06
2.55322e-09
-4.15826e-06
2.08857e-06
3.28538e-09
-6.59187e-06
2.42989e-06
3.71901e-09
-9.17523e-06
2.57946e-06
3.89658e-09
-1.17503e-05
2.57116e-06
3.9054e-09
-1.41801e-05
2.42607e-06
3.74881e-09
-1.63451e-05
2.16157e-06
3.40152e-09
1.80614e-06
2.8406e-09
-1.81541e-05
-7.25078e-07
5.7996e-07
-1.47347e-09
-3.27466e-06
3.24324e-06
3.74698e-10
-7.43299e-06
5.6739e-06
-1.50884e-09
-1.27798e-05
7.43775e-06
-2.37208e-09
-1.88724e-05
8.52533e-06
-2.80309e-09
-2.5298e-05
9.00808e-06
-3.07433e-09
-3.16823e-05
8.9586e-06
-3.08189e-09
-3.76881e-05
8.43469e-06
-2.86456e-09
-4.30244e-05
7.50034e-06
-2.51221e-09
6.26243e-06
-2.16696e-09
-4.74785e-05
-1.67713e-06
2.25958e-06
-2.4935e-09
-6.06277e-06
7.62665e-06
2.2318e-09
-1.25644e-05
1.21755e-05
1.01174e-10
-2.05936e-05
1.5467e-05
-9.20564e-11
-2.95723e-05
1.7504e-05
1.19665e-10
-3.89513e-05
1.8387e-05
1.13088e-10
-4.82114e-05
1.82185e-05
1.24508e-10
-5.68666e-05
1.70898e-05
1.81802e-10
-6.44887e-05
1.51222e-05
2.48008e-10
1.25357e-05
1.51459e-10
-7.07622e-05
-2.45475e-06
4.71793e-06
-3.60018e-09
-8.38808e-06
1.35568e-05
3.14356e-09
-1.68266e-05
2.0614e-05
-1.22393e-11
-2.69979e-05
2.56385e-05
-2.73981e-10
-3.82132e-05
2.87192e-05
9.1911e-11
-4.98287e-05
3.00024e-05
1.35329e-10
-6.12217e-05
2.96113e-05
1.76043e-10
-7.17863e-05
2.76541e-05
2.80082e-10
-8.09634e-05
2.42988e-05
4.75696e-10
1.98933e-05
4.17585e-10
-8.83214e-05
-3.00166e-06
7.72398e-06
-4.3867e-09
-1.00611e-05
2.06126e-05
3.69059e-09
-1.99102e-05
3.04635e-05
-4.19624e-10
-3.16232e-05
3.73524e-05
-9.05488e-10
-4.44254e-05
4.15219e-05
-5.42155e-10
-5.76079e-05
4.31853e-05
-5.15072e-10
-7.04721e-05
4.2476e-05
-4.57654e-10
-8.23067e-05
3.94889e-05
-2.64039e-10
-9.24071e-05
3.4399e-05
3.06219e-10
2.76577e-05
5.87156e-10
-0.000100172
-3.29617e-06
1.10249e-05
-4.77153e-09
-1.09835e-05
2.82959e-05
4.07994e-09
-2.16268e-05
4.11073e-05
-5.47454e-10
-3.42065e-05
4.99332e-05
-1.14998e-09
-4.78973e-05
5.52135e-05
-7.92571e-10
-6.19558e-05
5.72447e-05
-7.85539e-10
-7.56375e-05
5.61585e-05
-7.66455e-10
-8.81419e-05
5.19938e-05
-6.13632e-10
-9.85968e-05
4.48533e-05
5.22687e-10
3.51829e-05
1.62118e-09
-0.000106124
-3.33076e-06
1.43605e-05
-4.77742e-09
-1.11099e-05
3.60709e-05
4.18112e-09
-2.18717e-05
5.18697e-05
-5.84651e-10
-3.45715e-05
6.26343e-05
-1.25718e-09
-4.83732e-05
6.90162e-05
-9.54544e-10
-6.25333e-05
7.14058e-05
-9.89858e-10
-7.63006e-05
6.99269e-05
-1.0966e-09
-8.88249e-05
6.45195e-05
-1.31628e-09
-9.90688e-05
5.50965e-05
6.84925e-10
4.18263e-05
4.10562e-09
-0.000105716
-3.11271e-06
1.74776e-05
-4.40085e-09
-1.04488e-05
4.3403e-05
4.01032e-09
-2.06341e-05
6.20555e-05
-5.33361e-10
-3.26581e-05
7.46594e-05
-1.22275e-09
-4.57019e-05
8.2061e-05
-9.98273e-10
-5.90463e-05
8.47512e-05
-1.01599e-09
-7.19758e-05
8.28576e-05
-1.15032e-09
-8.36624e-05
7.62081e-05
-2.04277e-09
-9.29884e-05
6.44205e-05
2.00798e-09
4.6847e-05
1.43079e-08
-9.80234e-05
-2.67252e-06
2.01538e-05
-3.66932e-09
-9.08398e-06
4.98108e-05
3.63238e-09
-1.80423e-05
7.10143e-05
-3.69694e-10
-2.86037e-05
8.52218e-05
-1.02635e-09
-3.99644e-05
9.34226e-05
-9.44426e-10
-5.14122e-05
9.62001e-05
-1.02997e-09
-6.22671e-05
9.37138e-05
-1.39079e-09
-7.17757e-05
8.57216e-05
-4.84156e-09
-7.89574e-05
7.16036e-05
-1.4181e-09
4.91626e-05
3.21187e-08
-8.1305e-05
-2.0729e-06
-2.66538e-09
2.22293e-05
-7.2003e-06
3.13687e-09
5.49351e-05
-1.44216e-05
-6.3987e-11
7.82357e-05
-2.28623e-05
-5.86129e-10
9.3663e-05
-3.16886e-05
-6.28745e-10
0.00010225
-4.00934e-05
-9.35721e-10
0.000104606
-4.7274e-05
-1.99876e-09
0.000100896
-5.2326e-05
-1.21268e-08
9.07858e-05
-5.41469e-05
-2.82787e-08
7.34528e-05
9.51906e-09
-5.15512e-05
4.65573e-05
1.47526e-07
-1.47587e-07
-5.72126e-11
-5.50359e-07
6.99598e-07
-3.50385e-11
-2.06713e-06
1.51934e-06
-1.9398e-11
-4.15838e-06
2.09455e-06
-1.0117e-11
-6.59173e-06
2.43707e-06
-4.7745e-12
-9.17508e-06
2.58725e-06
-2.16198e-12
-1.17503e-05
2.57908e-06
-7.29959e-13
-1.41802e-05
2.43374e-06
1.0905e-13
-1.63455e-05
2.16862e-06
5.10759e-13
1.81204e-06
5.75309e-13
-1.81547e-05
-7.29786e-07
5.80759e-07
-3.52795e-11
-3.28019e-06
3.2504e-06
-2.48149e-11
-7.4379e-06
5.67555e-06
-1.53146e-11
-1.27832e-05
7.43747e-06
-8.60796e-12
-1.8874e-05
8.52514e-06
-4.16565e-12
-2.52981e-05
9.00819e-06
-1.75635e-12
-3.16812e-05
8.95913e-06
-5.15732e-13
-3.76861e-05
8.43579e-06
2.2078e-13
-4.3022e-05
7.50204e-06
5.83979e-13
6.26399e-06
6.3412e-13
-4.74762e-05
-1.68249e-06
2.26078e-06
-1.93056e-11
-6.06352e-06
7.63368e-06
-1.50266e-11
-1.25652e-05
1.21774e-05
-9.91981e-12
-2.05945e-05
1.54667e-05
-5.685e-12
-2.95728e-05
1.75036e-05
-2.72155e-12
-3.89514e-05
1.83868e-05
-9.7398e-13
-4.8211e-05
1.82189e-05
-1.4788e-13
-5.6866e-05
1.7091e-05
3.74577e-13
-6.44883e-05
1.51246e-05
6.25097e-13
1.25379e-05
6.32591e-13
-7.07621e-05
-2.4615e-06
4.71869e-06
-9.82092e-12
-8.38697e-06
1.35623e-05
-8.0324e-12
-1.68254e-05
2.06158e-05
-5.53265e-12
-2.69976e-05
2.56387e-05
-3.12676e-12
-3.82131e-05
2.87191e-05
-1.17561e-12
-4.98287e-05
3.00025e-05
-1.77998e-13
-6.12216e-05
2.96119e-05
2.57455e-13
-7.17861e-05
2.76558e-05
5.7072e-13
-8.09638e-05
2.43028e-05
7.33381e-13
1.98972e-05
7.29136e-13
-8.83226e-05
-3.01006e-06
7.72436e-06
-4.43357e-12
-1.00597e-05
2.06157e-05
-3.70609e-12
-1.99086e-05
3.04642e-05
-2.5317e-12
-3.16228e-05
3.7352e-05
-1.19127e-12
-4.44254e-05
4.15212e-05
-7.81679e-14
-5.7608e-05
4.31845e-05
4.20938e-13
-7.0472e-05
4.24755e-05
6.0776e-13
-8.23062e-05
3.94897e-05
8.09552e-13
-9.24075e-05
3.44044e-05
9.19531e-13
2.76648e-05
8.62089e-13
-0.000100174
-3.30544e-06
1.1025e-05
-1.34351e-12
-1.0982e-05
2.82964e-05
-9.55752e-13
-2.16252e-05
4.11069e-05
-4.46009e-13
-3.42064e-05
4.9932e-05
2.14139e-13
-4.78977e-05
5.52118e-05
7.87227e-13
-6.19567e-05
5.72427e-05
9.91732e-13
-7.56381e-05
5.61563e-05
1.05663e-12
-8.81414e-05
5.19923e-05
1.17259e-12
-9.85969e-05
4.48604e-05
1.18237e-12
3.51974e-05
9.96764e-13
-0.000106128
-3.34011e-06
1.43604e-05
3.60816e-13
-1.11085e-05
3.60689e-05
5.78772e-13
-2.18703e-05
5.18681e-05
7.95215e-13
-3.4572e-05
6.26324e-05
1.09717e-12
-4.83747e-05
6.90135e-05
1.3603e-12
-6.25356e-05
7.14025e-05
1.41983e-12
-7.63028e-05
6.99224e-05
1.43509e-12
-8.8825e-05
6.45132e-05
1.47113e-12
-9.90677e-05
5.51039e-05
1.35438e-12
4.18584e-05
1.01632e-12
-0.000105725
-3.12138e-06
1.74773e-05
1.07431e-12
-1.04475e-05
4.3399e-05
1.21823e-12
-2.06331e-05
6.20532e-05
1.32183e-12
-3.26592e-05
7.46573e-05
1.46196e-12
-4.57046e-05
8.20579e-05
1.57696e-12
-5.90503e-05
8.47471e-05
1.60007e-12
-7.19802e-05
8.28512e-05
1.58951e-12
-8.36626e-05
7.61935e-05
1.53398e-12
-9.2976e-05
6.44193e-05
1.31266e-12
4.6929e-05
8.89653e-13
-9.80323e-05
-2.67982e-06
2.01535e-05
1.31848e-12
-9.08274e-06
4.98056e-05
1.40027e-12
-1.80416e-05
7.10117e-05
1.47648e-12
-2.86055e-05
8.52201e-05
1.5498e-12
-3.99691e-05
9.34205e-05
1.60776e-12
-5.14206e-05
9.61976e-05
1.63104e-12
-6.22813e-05
9.37105e-05
1.58116e-12
-7.17951e-05
8.57025e-05
1.41417e-12
-7.89337e-05
7.15564e-05
1.10213e-12
4.92792e-05
8.09306e-13
-8.12517e-05
-2.07822e-06
1.37534e-12
2.2229e-05
-7.19877e-06
1.41317e-12
5.49293e-05
-1.44203e-05
1.49056e-12
7.82332e-05
-2.28632e-05
1.53599e-12
9.36624e-05
-3.16934e-05
1.56399e-12
0.00010225
-4.01053e-05
1.57284e-12
0.000104609
-4.73025e-05
1.47387e-12
0.000100906
-5.24135e-05
1.19287e-12
9.08013e-05
-5.42863e-05
8.16887e-13
7.3401e-05
6.27972e-13
-5.13251e-05
4.63274e-05
1.47582e-07
-1.47531e-07
-1.07914e-10
-5.50322e-07
6.99624e-07
-1.7561e-09
-2.06711e-06
1.51935e-06
-2.58602e-09
-4.15837e-06
2.09455e-06
-3.30151e-09
-6.59172e-06
2.43707e-06
-3.72682e-09
-9.17508e-06
2.58725e-06
-3.90003e-09
-1.17503e-05
2.57908e-06
-3.90679e-09
-1.41802e-05
2.43374e-06
-3.74922e-09
-1.63455e-05
2.16862e-06
-3.40134e-09
1.81204e-06
-2.84016e-09
-1.81547e-05
-7.29759e-07
5.80796e-07
1.39784e-09
-3.28017e-06
3.25043e-06
-4.19787e-10
-7.43788e-06
5.67556e-06
1.48439e-09
-1.27832e-05
7.43747e-06
2.35934e-09
-1.8874e-05
8.52514e-06
2.79682e-09
-2.5298e-05
9.00819e-06
3.07179e-09
-3.16812e-05
8.95913e-06
3.0813e-09
-3.76861e-05
8.43579e-06
2.86486e-09
-4.3022e-05
7.50203e-06
2.51289e-09
6.26399e-06
2.1678e-09
-4.74761e-05
-1.68248e-06
2.2608e-06
2.46206e-09
-6.06351e-06
7.63369e-06
-2.25596e-09
-1.25652e-05
1.21774e-05
-1.15951e-10
-2.05945e-05
1.54667e-05
8.38264e-11
-2.95728e-05
1.75036e-05
-1.23733e-10
-3.89513e-05
1.83868e-05
-1.144e-10
-4.8211e-05
1.82189e-05
-1.24448e-10
-5.6866e-05
1.7091e-05
-1.81161e-10
-6.44883e-05
1.51246e-05
-2.47075e-10
1.25379e-05
-1.50461e-10
-7.07621e-05
-2.46149e-06
4.71869e-06
3.58604e-09
-8.38696e-06
1.35623e-05
-3.15568e-09
-1.68254e-05
2.06158e-05
4.55865e-12
-2.69976e-05
2.56387e-05
2.69764e-10
-3.82131e-05
2.87191e-05
-9.3688e-11
-4.98286e-05
3.00025e-05
-1.35367e-10
-6.12215e-05
2.96119e-05
-1.75254e-10
-7.1786e-05
2.76558e-05
-2.79039e-10
-8.09637e-05
2.43028e-05
-4.74536e-10
1.98972e-05
-4.16398e-10
-8.83226e-05
-3.01005e-06
7.72436e-06
4.38133e-09
-1.00597e-05
2.06157e-05
-3.69571e-09
-1.99086e-05
3.04642e-05
4.16621e-10
-3.16228e-05
3.7352e-05
9.04188e-10
-4.44254e-05
4.15212e-05
5.42114e-10
-5.76079e-05
4.31845e-05
5.15996e-10
-7.0472e-05
4.24755e-05
4.58911e-10
-8.23061e-05
3.94897e-05
2.65298e-10
-9.24074e-05
3.44044e-05
-3.0493e-10
2.76648e-05
-5.85867e-10
-0.000100174
-3.30544e-06
1.1025e-05
4.77047e-09
-1.0982e-05
2.82964e-05
-4.08117e-09
-2.16252e-05
4.11068e-05
5.47182e-10
-3.42063e-05
4.9932e-05
1.15039e-09
-4.78977e-05
5.52117e-05
7.93515e-10
-6.19566e-05
5.72427e-05
7.86954e-10
-7.56381e-05
5.61562e-05
7.67918e-10
-8.81414e-05
5.19923e-05
6.1493e-10
-9.85969e-05
4.48604e-05
-5.2146e-10
3.51974e-05
-1.61998e-09
-0.000106128
-3.34011e-06
1.43604e-05
4.77874e-09
-1.11085e-05
3.60689e-05
-4.18018e-09
-2.18703e-05
5.18681e-05
5.85948e-10
-3.4572e-05
6.26324e-05
1.25859e-09
-4.83747e-05
6.90135e-05
9.56109e-10
-6.25355e-05
7.14025e-05
9.91609e-10
-7.63028e-05
6.99224e-05
1.09821e-09
-8.88249e-05
6.45132e-05
1.31756e-09
-9.90677e-05
5.51039e-05
-6.83836e-10
4.18584e-05
-4.10457e-09
-0.000105725
-3.12138e-06
1.74773e-05
4.40328e-09
-1.04475e-05
4.3399e-05
-4.00833e-09
-2.06331e-05
6.20532e-05
5.3539e-10
-3.26592e-05
7.46572e-05
1.22463e-09
-4.57046e-05
8.20579e-05
1.00014e-09
-5.90502e-05
8.47471e-05
1.01788e-09
-7.19802e-05
8.28512e-05
1.15194e-09
-8.36625e-05
7.61935e-05
2.04396e-09
-9.2976e-05
6.44193e-05
-2.00705e-09
4.6929e-05
-1.4307e-08
-9.80323e-05
-2.67981e-06
2.01535e-05
3.672e-09
-9.08273e-06
4.98056e-05
-3.63005e-09
-1.80416e-05
7.10117e-05
3.71882e-10
-2.86055e-05
8.52201e-05
1.02833e-09
-3.99691e-05
9.34205e-05
9.46309e-10
-5.14206e-05
9.61976e-05
1.03175e-09
-6.22813e-05
9.37105e-05
1.39225e-09
-7.17951e-05
8.57024e-05
4.84262e-09
-7.89337e-05
7.15564e-05
1.41895e-09
4.92792e-05
-3.21179e-08
-8.12517e-05
-2.07822e-06
2.6679e-09
2.2229e-05
-7.19877e-06
-3.13458e-09
5.49293e-05
-1.44203e-05
6.61123e-11
7.82332e-05
-2.28632e-05
5.88062e-10
9.36624e-05
-3.16934e-05
6.30559e-10
0.00010225
-4.01053e-05
9.37346e-10
0.000104609
-4.73025e-05
2.00008e-09
0.000100906
-5.24135e-05
1.21279e-08
9.08013e-05
-5.42863e-05
2.82797e-08
7.3401e-05
-9.51812e-09
-5.13251e-05
4.63274e-05
1.46199e-07
-1.46307e-07
-5.49682e-07
6.94127e-07
-2.06635e-06
1.51408e-06
-4.15823e-06
2.08858e-06
-6.59185e-06
2.42989e-06
-9.17521e-06
2.57946e-06
-1.17503e-05
2.57116e-06
-1.41801e-05
2.42607e-06
-1.63451e-05
2.16157e-06
1.80614e-06
-1.81541e-05
-7.24986e-07
5.80075e-07
-3.27458e-06
3.2433e-06
-7.43294e-06
5.67393e-06
-1.27798e-05
7.43775e-06
-1.88724e-05
8.52532e-06
-2.52979e-05
9.00808e-06
-3.16823e-05
8.9586e-06
-3.7688e-05
8.43469e-06
-4.30243e-05
7.50034e-06
6.26243e-06
-4.74784e-05
-1.6771e-06
2.25963e-06
-6.06273e-06
7.62668e-06
-1.25644e-05
1.21755e-05
-2.05935e-05
1.5467e-05
-2.95723e-05
1.7504e-05
-3.89513e-05
1.8387e-05
-4.82113e-05
1.82185e-05
-5.68666e-05
1.70898e-05
-6.44886e-05
1.51222e-05
1.25357e-05
-7.07621e-05
-2.45474e-06
4.71795e-06
-8.38805e-06
1.35568e-05
-1.68265e-05
2.0614e-05
-2.69978e-05
2.56385e-05
-3.82131e-05
2.87192e-05
-4.98287e-05
3.00024e-05
-6.12217e-05
2.96113e-05
-7.17862e-05
2.76541e-05
-8.09633e-05
2.42988e-05
1.98933e-05
-8.83213e-05
-3.00165e-06
7.72398e-06
-1.00611e-05
2.06126e-05
-1.99102e-05
3.04635e-05
-3.16232e-05
3.73524e-05
-4.44254e-05
4.15219e-05
-5.76078e-05
4.31853e-05
-7.04721e-05
4.2476e-05
-8.23066e-05
3.94888e-05
-9.2407e-05
3.43989e-05
2.76577e-05
-0.000100172
-3.29616e-06
1.10249e-05
-1.09835e-05
2.82959e-05
-2.16268e-05
4.11073e-05
-3.42064e-05
4.99332e-05
-4.78972e-05
5.52135e-05
-6.19558e-05
5.72447e-05
-7.56375e-05
5.61585e-05
-8.81418e-05
5.19938e-05
-9.85967e-05
4.48533e-05
3.51829e-05
-0.000106124
-3.33075e-06
1.43604e-05
-1.11099e-05
3.60708e-05
-2.18717e-05
5.18696e-05
-3.45715e-05
6.26342e-05
-4.83732e-05
6.90161e-05
-6.25332e-05
7.14057e-05
-7.63005e-05
6.99269e-05
-8.88248e-05
6.45194e-05
-9.90687e-05
5.50965e-05
4.18263e-05
-0.000105716
-3.1127e-06
1.74775e-05
-1.04488e-05
4.34029e-05
-2.06341e-05
6.20555e-05
-3.2658e-05
7.46594e-05
-4.57018e-05
8.2061e-05
-5.90462e-05
8.47511e-05
-7.19758e-05
8.28576e-05
-8.36624e-05
7.62081e-05
-9.29884e-05
6.44205e-05
4.6847e-05
-9.80234e-05
-2.67252e-06
2.01537e-05
-9.08397e-06
4.98107e-05
-1.80423e-05
7.10142e-05
-2.86037e-05
8.52217e-05
-3.99643e-05
9.34226e-05
-5.14122e-05
9.62e-05
-6.2267e-05
9.37138e-05
-7.17757e-05
8.57216e-05
-7.89574e-05
7.16036e-05
4.91626e-05
-8.1305e-05
-2.0729e-06
2.22293e-05
-7.20029e-06
5.4935e-05
-1.44216e-05
7.82356e-05
-2.28622e-05
9.3663e-05
-3.16886e-05
0.00010225
-4.00934e-05
0.000104606
-4.7274e-05
0.000100896
-5.2326e-05
9.07857e-05
-5.41469e-05
7.34528e-05
-5.15512e-05
4.65573e-05
-1.95662e-05
1.41004e-06
2.13435e-09
-2.06029e-05
1.03519e-06
1.49142e-09
-2.13265e-05
7.22551e-07
9.8598e-10
-2.18133e-05
4.8626e-07
6.21378e-10
-2.21361e-05
3.22412e-07
3.8051e-10
-2.23553e-05
2.18893e-07
2.35612e-10
-2.25178e-05
1.62339e-07
1.60261e-10
-2.26594e-05
1.41541e-07
1.34506e-10
-2.28077e-05
1.48153e-07
1.44848e-10
-2.29838e-05
1.75866e-07
1.82737e-10
-2.32029e-05
2.18829e-07
2.42142e-10
-2.34729e-05
2.69681e-07
3.16909e-10
-2.37906e-05
3.17386e-07
3.97662e-10
-2.41362e-05
3.45134e-07
4.68632e-10
-2.44656e-05
3.28861e-07
5.03698e-10
-2.47035e-05
2.37457e-07
4.6066e-10
-2.47409e-05
3.70644e-08
2.85452e-10
-2.44367e-05
-3.04156e-07
-5.45139e-11
-2.36417e-05
-7.9435e-07
-6.53557e-10
-1.40872e-06
-1.55516e-09
-2.22314e-05
-5.09633e-05
4.89679e-06
-1.91621e-09
-5.35385e-05
3.61199e-06
-1.59876e-09
-5.53566e-05
2.54191e-06
-1.2633e-09
-5.66e-05
1.73062e-06
-9.63896e-10
-5.74402e-05
1.16337e-06
-7.19586e-10
-5.80199e-05
7.99077e-07
-5.39872e-10
-5.84497e-05
5.92616e-07
-4.24119e-10
-5.88132e-05
5.05369e-07
-3.64813e-10
-5.91721e-05
5.0741e-07
-3.5151e-10
-5.95708e-05
5.74931e-07
-3.72029e-10
-6.00369e-05
6.85332e-07
-4.11947e-10
-6.0578e-05
8.11202e-07
-4.52221e-10
-6.1174e-05
9.13921e-07
-4.66709e-10
-6.17663e-05
9.37818e-07
-4.20821e-10
-6.22438e-05
8.06617e-07
-2.72183e-10
-6.24317e-05
4.25347e-07
2.32443e-11
-6.20875e-05
-3.0765e-07
4.95435e-10
-6.09174e-05
-1.47539e-06
1.13179e-09
-5.8615e-05
-3.09861e-06
1.89482e-09
-5.08593e-06
2.61212e-09
-5.49404e-05
-7.55709e-05
9.7058e-06
-2.37959e-10
-7.90453e-05
7.08673e-06
-4.12581e-10
-8.14476e-05
4.94464e-06
-4.51458e-10
-8.30622e-05
3.3457e-06
-4.2872e-10
-8.41385e-05
2.24004e-06
-3.66024e-10
-8.48723e-05
1.53315e-06
-2.92134e-10
-8.54087e-05
1.12924e-06
-2.25275e-10
-8.58525e-05
9.49347e-07
-1.72459e-10
-8.62782e-05
9.33272e-07
-1.34471e-10
-8.67367e-05
1.03353e-06
-1.08553e-10
-8.72569e-05
1.20564e-06
-9.03341e-11
-8.78426e-05
1.39689e-06
-7.4138e-11
-8.84632e-05
1.53466e-06
-5.32103e-11
-8.90412e-05
1.51577e-06
-1.93354e-11
-8.94342e-05
1.1996e-06
3.8467e-11
-8.94195e-05
4.10501e-07
1.28748e-10
-8.86854e-05
-1.042e-06
2.45921e-10
-8.68438e-05
-3.31737e-06
3.8291e-10
-8.34778e-05
-6.46509e-06
5.23254e-10
-1.03209e-05
4.4448e-10
-7.82433e-05
-9.37152e-05
1.51e-05
-3.74441e-10
-9.7409e-05
1.07812e-05
-6.03599e-10
-9.98283e-05
7.36454e-06
-5.98834e-10
-0.000101374
4.89187e-06
-5.32303e-10
-0.000102359
3.22511e-06
-4.23669e-10
-0.000103004
2.17867e-06
-3.13618e-10
-0.000103459
1.58507e-06
-2.22354e-10
-0.000103825
1.31552e-06
-1.53327e-10
-0.000104169
1.27658e-06
-1.04373e-10
-0.000104533
1.39748e-06
-7.11891e-11
-0.000104941
1.61417e-06
-4.96011e-11
-0.000105396
1.8524e-06
-3.58654e-11
-0.000105872
2.01033e-06
-2.64289e-11
-0.000106298
1.94194e-06
-1.56003e-11
-0.000106543
1.44406e-06
1.14069e-11
-0.000106386
2.53812e-07
6.96472e-11
-0.0001055
-1.92831e-06
1.37255e-10
-0.000103437
-5.38078e-06
2.65053e-10
-9.9663e-05
-1.02393e-05
5.08734e-10
-1.63128e-05
4.47862e-10
-9.36716e-05
-0.000105392
2.03207e-05
-1.01928e-09
-0.000108587
1.39775e-05
-1.14079e-09
-0.000110437
9.21607e-06
-9.22389e-10
-0.000111479
5.93379e-06
-7.21011e-10
-0.000112063
3.81005e-06
-5.07564e-10
-0.000112402
2.51818e-06
-3.33632e-10
-0.000112617
1.80027e-06
-2.13107e-10
-0.000112777
1.47532e-06
-1.35278e-10
-0.000112922
1.42133e-06
-8.85346e-11
-0.000113076
1.55175e-06
-6.3549e-11
-0.000113254
1.79243e-06
-5.39509e-11
-0.000113461
2.05945e-06
-5.55219e-11
-0.000113687
2.23679e-06
-6.52011e-11
-0.000113899
2.15315e-06
-7.65844e-11
-0.000114014
1.55963e-06
-6.34414e-11
-0.000113873
1.12318e-07
9.65101e-12
-0.000113188
-2.61319e-06
7.34085e-11
-0.000111491
-7.07789e-06
2.62986e-10
-0.00010811
-1.36208e-05
8.90959e-10
-2.21668e-05
1.26909e-09
-0.000102258
-0.000110327
2.45258e-05
-2.18339e-09
-0.000112245
1.58979e-05
-1.85706e-09
-0.000112954
9.92639e-06
-1.15967e-09
-0.000113118
6.09769e-06
-7.76344e-10
-0.000113072
3.7653e-06
-4.56683e-10
-0.000112966
2.41236e-06
-2.40912e-10
-0.000112852
1.6863e-06
-1.19376e-10
-0.000112742
1.36556e-06
-5.49204e-11
-0.000112635
1.31417e-06
-2.35473e-11
-0.000112527
1.44382e-06
-1.15646e-11
-0.000112419
1.68443e-06
-1.22212e-11
-0.000112319
1.95911e-06
-2.31257e-11
-0.000112241
2.15942e-06
-4.44767e-11
-0.000112206
2.11748e-06
-7.52829e-11
-0.000112219
1.57258e-06
-9.24129e-11
-0.000112237
1.30707e-07
-5.15128e-11
-0.000112095
-2.75505e-06
-2.4113e-11
-0.000111384
-7.78934e-06
1.49457e-10
-0.000109304
-1.57018e-05
1.52754e-09
-2.68629e-05
3.21398e-09
-0.000104611
-0.000107866
2.6681e-05
-5.81721e-09
-0.000107667
1.57027e-05
-3.82753e-09
-0.000106753
9.01426e-06
-1.76243e-09
-0.00010582
5.16541e-06
-9.186e-10
-0.000105071
3.01706e-06
-3.90147e-10
-0.000104512
1.85392e-06
-1.20417e-10
-0.000104088
1.26209e-06
-1.45823e-11
-0.000103736
1.01347e-06
2.0194e-11
-0.000103405
9.83301e-07
2.45344e-11
-0.000103061
1.09921e-06
1.49685e-11
-0.000102686
1.30943e-06
-2.95687e-12
-0.000102286
1.55959e-06
-2.8787e-11
-0.000101897
1.77055e-06
-6.38487e-11
-0.000101591
1.81104e-06
-1.11514e-10
-0.000101476
1.45793e-06
-1.49716e-10
-0.000101679
3.33533e-07
-8.24999e-11
-0.000102258
-2.17579e-06
9.3686e-11
-0.000103029
-7.01844e-06
4.68202e-10
-0.000103205
-1.55301e-05
3.68134e-09
-2.91792e-05
8.82849e-09
-0.000100897
-9.66586e-05
2.53261e-05
-9.88884e-09
-9.35458e-05
1.25939e-05
-3.99992e-09
-9.08354e-05
6.30462e-06
-8.05261e-10
-8.89138e-05
3.24413e-06
-3.08255e-10
-8.76425e-05
1.7458e-06
3.88381e-11
-8.68034e-05
1.01462e-06
1.61338e-10
-8.62138e-05
6.72337e-07
1.52467e-10
-8.57424e-05
5.41903e-07
1.25296e-10
-8.5299e-05
5.39881e-07
1.03806e-10
-8.48245e-05
6.24611e-07
8.87775e-11
-8.42857e-05
7.70506e-07
7.64504e-11
-8.36786e-05
9.5248e-07
6.07969e-11
-8.30402e-05
1.13205e-06
3.25087e-11
-8.24676e-05
1.23847e-06
-3.43072e-11
-8.21451e-05
1.13562e-06
-1.32873e-10
-8.23663e-05
5.54799e-07
-4.89694e-11
-8.34979e-05
-1.04433e-06
1.1225e-10
-8.58465e-05
-4.66942e-06
-4.52836e-10
-8.90814e-05
-1.22985e-05
3.26131e-09
-2.74949e-05
1.41208e-08
-9.07799e-05
-7.38647e-05
1.78982e-05
-1.23672e-08
-6.76521e-05
6.37577e-06
5.47165e-09
-6.38327e-05
2.47914e-06
6.10717e-09
-6.16373e-05
1.04612e-06
2.59664e-09
-6.0377e-05
4.84202e-07
1.33887e-09
-5.96207e-05
2.57469e-07
8.09944e-10
-5.91171e-05
1.68257e-07
5.06429e-10
-5.87186e-05
1.43017e-07
3.81575e-10
-5.83336e-05
1.54513e-07
3.65681e-10
-5.79019e-05
1.92489e-07
4.1144e-10
-5.73845e-05
2.52609e-07
4.9422e-10
-5.6764e-05
3.31441e-07
5.92718e-10
-5.60553e-05
4.22645e-07
6.69663e-10
-5.53285e-05
5.11005e-07
6.29058e-10
-5.47523e-05
5.59045e-07
3.47747e-10
-5.46768e-05
4.79477e-07
-1.16244e-10
-5.56728e-05
-4.6628e-08
-1.7074e-09
-5.87627e-05
-1.57191e-06
-7.57309e-09
-6.50177e-05
-6.03332e-06
-1.02238e-08
-1.90885e-05
1.53323e-08
-7.34394e-05
-3.35846e-05
-6.84302e-08
-2.71973e-05
-1.15481e-08
-2.47174e-05
-8.11481e-10
-2.36694e-05
-1.85699e-09
-2.3184e-05
-1.20453e-09
-2.29259e-05
-5.62699e-10
-2.27574e-05
-3.16757e-10
-2.26141e-05
-2.23449e-10
-2.24594e-05
-1.9716e-10
-2.22667e-05
-2.16439e-10
-2.20138e-05
-2.67896e-10
-2.16821e-05
-3.38474e-10
-2.1259e-05
-4.09407e-10
-2.07476e-05
-4.47417e-10
-2.01882e-05
-3.37109e-10
-1.97089e-05
2.41397e-10
-1.97564e-05
8.50186e-10
-2.13258e-05
-2.48953e-09
-2.73642e-05
5.06021e-09
8.62271e-08
-4.65389e-05
-1.95668e-05
1.41429e-06
5.29871e-13
-2.06034e-05
1.03806e-06
4.65783e-13
-2.13268e-05
7.24402e-07
3.99891e-13
-2.18136e-05
4.87392e-07
3.46963e-13
-2.21363e-05
3.23088e-07
2.72886e-13
-2.23554e-05
2.1931e-07
1.67188e-13
-2.25178e-05
1.62638e-07
4.56673e-14
-2.26595e-05
1.41818e-07
-1.52921e-14
-2.28078e-05
1.48474e-07
-9.27938e-15
-2.29839e-05
1.76279e-07
-5.8674e-14
-2.32031e-05
2.19369e-07
-1.46116e-13
-2.34731e-05
2.70365e-07
-1.36356e-13
-2.37909e-05
3.18207e-07
-7.91323e-14
-2.41365e-05
3.46049e-07
-2.92804e-14
-2.44658e-05
3.29783e-07
3.87219e-14
-2.47036e-05
2.38244e-07
1.42248e-13
-2.47406e-05
3.7296e-08
2.59094e-13
-2.44362e-05
-3.04389e-07
4.12678e-13
-2.36412e-05
-7.95657e-07
6.08282e-13
-1.41171e-06
7.98325e-13
-2.22311e-05
-5.09608e-05
4.89705e-06
5.62887e-13
-5.3536e-05
3.61164e-06
4.77999e-13
-5.53543e-05
2.54147e-06
4.14666e-13
-5.65981e-05
1.73023e-06
3.68556e-13
-5.74388e-05
1.16307e-06
2.89674e-13
-5.8019e-05
7.98888e-07
1.86874e-13
-5.84492e-05
5.92499e-07
7.87781e-14
-5.88131e-05
5.05288e-07
-1.52801e-14
-5.91723e-05
5.07328e-07
-5.72008e-14
-5.95712e-05
5.74811e-07
-1.14984e-13
-6.00374e-05
6.85137e-07
-1.61716e-13
-6.05784e-05
8.10897e-07
-1.34418e-13
-6.11741e-05
9.13482e-07
-5.51662e-14
-6.17657e-05
9.37255e-07
3.14593e-14
-6.22422e-05
8.06009e-07
1.4588e-13
-6.24288e-05
4.24862e-07
2.91303e-13
-6.20832e-05
-3.07774e-07
4.60245e-13
-6.09119e-05
-1.47462e-06
6.35745e-13
-5.8609e-05
-3.09666e-06
7.91442e-13
-5.08346e-06
9.13813e-13
-5.49346e-05
-7.55702e-05
9.7049e-06
5.68184e-13
-7.90439e-05
7.08489e-06
4.85294e-13
-8.14459e-05
4.94303e-06
3.93642e-13
-8.30606e-05
3.3445e-06
3.32968e-13
-8.41371e-05
2.23926e-06
2.7514e-13
-8.48712e-05
1.53271e-06
2.34492e-13
-8.5408e-05
1.12902e-06
1.2918e-13
-8.58521e-05
9.49229e-07
2.74432e-14
-8.62781e-05
9.33177e-07
2.76526e-14
-8.67368e-05
1.03339e-06
3.46781e-14
-8.72571e-05
1.20538e-06
-2.13426e-14
-8.78427e-05
1.39643e-06
-4.74199e-14
-8.84633e-05
1.53397e-06
-2.64806e-14
-8.90408e-05
1.51483e-06
7.98293e-15
-8.94333e-05
1.19851e-06
5.91762e-14
-8.94178e-05
4.09529e-07
1.26547e-13
-8.86829e-05
-1.04245e-06
1.89069e-13
-8.68407e-05
-3.3165e-06
2.47821e-13
-8.34748e-05
-6.46203e-06
3.2185e-13
-1.0317e-05
4.3561e-13
-7.82408e-05
-9.37149e-05
1.50968e-05
6.57964e-13
-9.74075e-05
1.07768e-05
5.31132e-13
-9.98263e-05
7.36127e-06
3.79595e-13
-0.000101372
4.88967e-06
2.83507e-13
-0.000102357
3.22381e-06
1.92525e-13
-0.000103003
2.178e-06
1.90426e-13
-0.000103459
1.58477e-06
1.23132e-13
-0.000103825
1.3154e-06
2.82524e-14
-0.000104168
1.27652e-06
4.69253e-14
-0.000104532
1.39738e-06
7.89308e-14
-0.000104941
1.61394e-06
4.87516e-14
-0.000105397
1.85194e-06
1.42853e-14
-0.000105872
2.00957e-06
-4.73148e-15
-0.000106298
1.94082e-06
-3.42304e-16
-0.000106542
1.44266e-06
1.8125e-14
-0.000106385
2.52546e-07
1.62922e-14
-0.000105498
-1.92924e-06
1.39073e-14
-0.000103435
-5.38001e-06
5.74975e-14
-9.96612e-05
-1.02349e-05
1.59527e-13
-1.63067e-05
3.06056e-13
-9.3671e-05
-0.000105391
2.03121e-05
7.44266e-13
-0.000108584
1.39688e-05
6.02461e-13
-0.000110434
9.21076e-06
4.4269e-13
-0.000111476
5.93066e-06
3.22564e-13
-0.000112061
3.80841e-06
1.74624e-13
-0.000112401
2.51745e-06
1.62025e-13
-0.000112616
1.80001e-06
1.00985e-13
-0.000112776
1.47526e-06
-2.20992e-14
-0.000112921
1.42132e-06
-5.36646e-14
-0.000113076
1.55169e-06
-3.26273e-14
-0.000113254
1.79223e-06
-2.60071e-14
-0.000113461
2.059e-06
-2.74391e-14
-0.000113688
2.23596e-06
-2.70064e-14
-0.000113899
2.15185e-06
-2.92679e-14
-0.000114014
1.55785e-06
-4.94266e-14
-0.000113872
1.10858e-07
-9.0348e-14
-0.000113186
-2.61493e-06
-6.49632e-14
-0.000111489
-7.07763e-06
7.32931e-14
-0.000108108
-1.36141e-05
2.47724e-13
-2.21558e-05
3.6914e-13
-0.000102258
-0.000110324
2.45058e-05
7.83203e-13
-0.00011224
1.58828e-05
6.43982e-13
-0.00011295
9.9196e-06
5.24618e-13
-0.000113114
6.09451e-06
4.46232e-13
-0.00011307
3.76399e-06
3.34137e-13
-0.000112965
2.41198e-06
3.39432e-13
-0.000112851
1.68629e-06
2.63522e-13
-0.000112742
1.36566e-06
8.70775e-14
-0.000112635
1.31426e-06
-3.55772e-14
-0.000112527
1.44384e-06
-7.2423e-14
-0.000112419
1.6843e-06
-6.08664e-14
-0.000112319
1.95873e-06
-5.35625e-14
-0.000112242
2.15865e-06
-1.00822e-13
-0.000112206
2.11614e-06
-1.97956e-13
-0.000112219
1.57056e-06
-2.77884e-13
-0.000112237
1.28893e-07
-2.52701e-13
-0.000112094
-2.75799e-06
-9.19046e-14
-0.000111381
-7.79057e-06
6.90937e-14
-0.000109302
-1.56917e-05
1.48364e-13
-2.68402e-05
1.11306e-13
-0.000104614
-0.000107858
2.66337e-05
6.7768e-13
-0.000107657
1.56772e-05
4.99657e-13
-0.000106746
9.00747e-06
4.11895e-13
-0.000105816
5.16355e-06
3.2579e-13
-0.000105069
3.0168e-06
2.67478e-13
-0.000104512
1.8542e-06
2.95161e-13
-0.000104088
1.26241e-06
2.864e-13
-0.000103736
1.01371e-06
1.71186e-13
-0.000103405
9.83442e-07
4.5388e-14
-0.00010306
1.09924e-06
-8.23726e-15
-0.000102685
1.3093e-06
-1.10867e-14
-0.000102286
1.55923e-06
-5.79823e-14
-0.000101897
1.76982e-06
-1.96385e-13
-0.000101591
1.8097e-06
-3.51359e-13
-0.000101476
1.45577e-06
-3.92514e-13
-0.000101678
3.30996e-07
-2.55111e-13
-0.000102257
-2.1798e-06
-1.18422e-13
-0.000103025
-7.02147e-06
-1.82851e-14
-0.0001032
-1.55129e-05
-8.35201e-14
-2.91251e-05
-2.99157e-13
-0.000100907
-9.66445e-05
2.5236e-05
6.19287e-13
-9.35356e-05
1.25644e-05
3.69108e-13
-9.08321e-05
6.3031e-06
1.78545e-13
-8.89136e-05
3.24482e-06
5.35158e-14
-8.76432e-05
1.74642e-06
1.2911e-13
-8.6804e-05
1.01516e-06
1.94315e-13
-8.62141e-05
6.72681e-07
1.94753e-13
-8.57424e-05
5.4209e-07
1.11625e-13
-8.52988e-05
5.39972e-07
2.32012e-14
-8.48241e-05
6.2463e-07
-1.14823e-14
-8.42852e-05
7.70447e-07
-3.57315e-14
-8.36782e-05
9.52309e-07
-1.46338e-13
-8.304e-05
1.13168e-06
-3.19764e-13
-8.24681e-05
1.23772e-06
-4.10692e-13
-8.21466e-05
1.13419e-06
-3.24607e-13
-8.23683e-05
5.52648e-07
-1.62498e-13
-8.35015e-05
-1.04655e-06
-1.70217e-13
-8.58491e-05
-4.67434e-06
-2.02204e-13
-8.9079e-05
-1.22796e-05
-3.97104e-13
-2.73947e-05
-8.24898e-13
-9.07954e-05
-7.38467e-05
1.78186e-05
7.27661e-13
-6.76597e-05
6.38291e-06
6.42784e-13
-6.38414e-05
2.49091e-06
5.34133e-13
-6.16437e-05
1.04967e-06
2.25502e-13
-6.03808e-05
4.8488e-07
1.06127e-13
-5.96225e-05
2.57687e-07
1.37913e-13
-5.91178e-05
1.68439e-07
1.34544e-13
-5.87186e-05
1.43249e-07
6.53182e-14
-5.83331e-05
1.54848e-07
1.03193e-14
-5.7901e-05
1.92979e-07
-2.66838e-15
-5.73834e-05
2.53316e-07
-7.56605e-14
-5.67629e-05
3.32443e-07
-2.25542e-13
-5.60546e-05
4.24033e-07
-3.54603e-13
-5.53292e-05
5.12899e-07
-3.34789e-13
-5.4756e-05
5.61412e-07
-2.09772e-13
-5.46832e-05
4.7975e-07
-1.99469e-13
-5.56876e-05
-4.3934e-08
-4.57849e-13
-5.87887e-05
-1.58077e-06
-6.22944e-13
-6.50332e-05
-6.0454e-06
-1.30695e-12
-1.90249e-05
-1.74367e-12
-7.33876e-05
-3.35749e-05
2.98343e-13
-2.72035e-05
3.01699e-13
-2.47134e-05
3.06669e-13
-2.36656e-05
2.28192e-13
-2.3182e-05
2.12393e-13
-2.29248e-05
2.33052e-13
-2.27567e-05
1.95158e-13
-2.26137e-05
1.20234e-13
-2.2459e-05
6.91016e-14
-2.22663e-05
2.80015e-14
-2.20132e-05
-7.93665e-14
-2.16811e-05
-2.14786e-13
-2.12575e-05
-2.6255e-13
-2.0745e-05
-1.80027e-13
-2.0184e-05
-1.3684e-13
-1.9704e-05
-3.64684e-13
-1.97471e-05
-9.50738e-13
-2.13303e-05
-1.51674e-12
-2.73707e-05
-1.90334e-12
-2.26971e-12
-4.63093e-05
-1.95668e-05
1.41429e-06
-2.13391e-09
-2.06034e-05
1.03806e-06
-1.49104e-09
-2.13268e-05
7.24402e-07
-9.85675e-10
-2.18136e-05
4.87392e-07
-6.21124e-10
-2.21363e-05
3.23088e-07
-3.8028e-10
-2.23553e-05
2.1931e-07
-2.35484e-10
-2.25178e-05
1.62638e-07
-1.60254e-10
-2.26595e-05
1.41818e-07
-1.34585e-10
-2.28078e-05
1.48474e-07
-1.45013e-10
-2.29839e-05
1.76279e-07
-1.8297e-10
-2.32031e-05
2.19369e-07
-2.42404e-10
-2.34731e-05
2.70365e-07
-3.17145e-10
-2.37909e-05
3.18207e-07
-3.97866e-10
-2.41365e-05
3.46049e-07
-4.688e-10
-2.44658e-05
3.29783e-07
-5.03719e-10
-2.47036e-05
2.38244e-07
-4.60401e-10
-2.47406e-05
3.72965e-08
-2.84861e-10
-2.44362e-05
-3.04388e-07
5.54755e-11
-2.36412e-05
-7.95655e-07
6.54942e-10
-1.41171e-06
1.55698e-09
-2.22311e-05
-5.09608e-05
4.89704e-06
1.91697e-09
-5.3536e-05
3.61164e-06
1.59939e-09
-5.53543e-05
2.54147e-06
1.26384e-09
-5.65981e-05
1.73023e-06
9.64372e-10
-5.74388e-05
1.16307e-06
7.20021e-10
-5.80189e-05
7.98887e-07
5.40179e-10
-5.84492e-05
5.92498e-07
4.24305e-10
-5.88131e-05
5.05287e-07
3.64898e-10
-5.91723e-05