/*--------------------------------*- C++ -*----------------------------------*\
| =========                 |                                                 |
| \\      /  F ield         | OpenFOAM: The Open Source CFD Toolbox           |
|  \\    /   O peration     | Version:  2.4.0                                 |
|   \\  /    A nd           | Web:      www.OpenFOAM.org                      |
|    \\/     M anipulation  |                                                 |
\*---------------------------------------------------------------------------*/
FoamFile
{
    version     2.0;
    format      ascii;
    class       volVectorField;
    location    "2.4";
    object      U;
}
// * * * * * * * * * * * * * * * * * * * * * * * * * * * * * * * * * * * * * //

dimensions      [0 1 -1 0 0 0 0];

internalField   nonuniform List<vector> 
4800
(
(0.000298764 -0.000302584 -5.17593e-07)
(4.92069e-07 0.000162028 0.000214275)
(-0.00185452 0.000663933 0.000436967)
(-0.00482326 0.00100191 0.000599784)
(-0.00851398 0.00119305 0.00065935)
(-0.0125895 0.00127492 0.000595607)
(-0.0167702 0.00127474 0.000402469)
(-0.0208212 0.0012062 8.06128e-05)
(-0.0245351 0.00107663 -0.000363777)
(-0.0277374 0.000898033 -0.000917678)
(-0.000187183 -1.91789e-06 -0.000215044)
(-0.00247778 0.0023899 4.36094e-06)
(-0.00801178 0.00471173 0.00016912)
(-0.015804 0.00638135 0.000264793)
(-0.0251184 0.00739672 0.00027355)
(-0.0352849 0.00785088 0.000179658)
(-0.0456723 0.00782956 -2.34142e-05)
(-0.0557083 0.00739215 -0.000337842)
(-0.0648816 0.00659367 -0.000762081)
(-0.072772 0.00552297 -0.00128938)
(-0.000775025 0.00197934 -0.00044302)
(-0.00516764 0.00803994 -0.000153644)
(-0.0141458 0.0134163 1.19532e-05)
(-0.0260434 0.0173403 8.63176e-05)
(-0.0398705 0.0197775 7.788e-05)
(-0.0547686 0.0208591 -2.21824e-05)
(-0.069882 0.0207264 -0.000218066)
(-0.0843992 0.0195009 -0.000513391)
(-0.0975726 0.0173284 -0.00091099)
(-0.108775 0.0144566 -0.00141019)
(-0.00124354 0.00536047 -0.000595262)
(-0.00740043 0.0164465 -0.000221151)
(-0.0192767 0.0255885 -3.2045e-05)
(-0.0345127 0.0321736 4.43308e-05)
(-0.0518844 0.036243 3.80266e-05)
(-0.0704028 0.037985 -5.39078e-05)
(-0.0890601 0.0375828 -0.000234008)
(-0.106865 0.0352039 -0.000508443)
(-0.122864 0.0310871 -0.000886177)
(-0.136208 0.0256814 -0.00137505)
(-0.0015628 0.00981036 -0.000598402)
(-0.00898835 0.027006 -0.000150883)
(-0.0229856 0.0404364 6.31816e-05)
(-0.0406434 0.0499242 0.000151722)
(-0.0605483 0.0557113 0.000160451)
(-0.0816195 0.0580778 8.9845e-05)
(-0.102746 0.0572335 -6.34788e-05)
(-0.122798 0.053355 -0.000311074)
(-0.140623 0.0467382 -0.000671808)
(-0.155079 0.0380332 -0.00116878)
(-0.00172824 0.0149418 -0.000404234)
(-0.00985029 0.0389898 9.79226e-05)
(-0.0250409 0.0570769 0.000332598)
(-0.0440647 0.0696301 0.000440384)
(-0.0653919 0.0771847 0.000476279)
(-0.0878928 0.0801441 0.000441532)
(-0.110402 0.078726 0.000328728)
(-0.131699 0.0730573 0.000117115)
(-0.150446 0.0634016 -0.000227596)
(-0.165089 0.050525 -0.000758492)
(-0.00174098 0.020338 1.02574e-05)
(-0.00995531 0.0515573 0.000545463)
(-0.0253284 0.0744648 0.000793284)
(-0.0445547 0.0901518 0.000925319)
(-0.0660722 0.099493 0.00100001)
(-0.0887476 0.103036 0.00101735)
(-0.111418 0.100988 0.000962973)
(-0.132844 0.0933492 0.000803105)
(-0.151592 0.0801924 0.000482247)
(-0.165551 0.06213 -0.000113004)
(-0.00160842 0.0255816 0.000645109)
(-0.00932131 0.0638357 0.00119192)
(-0.0238556 0.0914842 0.00144422)
(-0.0420698 0.11024 0.00160401)
(-0.0624375 0.121316 0.00172848)
(-0.0838485 0.125417 0.00181583)
(-0.105184 0.122736 0.00184333)
(-0.125282 0.113084 0.0017622)
(-0.142841 0.0961346 0.00149498)
(-0.155156 0.0717383 0.000812639)
(-0.00135043 0.0302827 0.00147829)
(-0.0080363 0.0749903 0.002018)
(-0.0207995 0.107031 0.00226598)
(-0.0368405 0.1286 0.00245477)
(-0.054694 0.141199 0.00263709)
(-0.0732448 0.145699 0.00281067)
(-0.0913829 0.14233 0.00294523)
(-0.108039 0.130757 0.00297629)
(-0.122427 0.110195 0.00281611)
(-0.131674 0.0788994 0.00203204)
(-0.00100556 0.0341241 0.0024681)
(-0.00628187 0.0843202 0.00298741)
(-0.0165648 0.120131 0.00322251)
(-0.0294992 0.144013 0.00343757)
(-0.0436551 0.157635 0.00367973)
(-0.0577973 0.161998 0.00395122)
(-0.0706088 0.157418 0.00422371)
(-0.0807271 0.143545 0.00442901)
(-0.0878635 0.11945 0.00453576)
(-0.090996 0.0823958 0.00392628)
(0.000303858 -0.000306907 -1.42452e-07)
(7.76423e-06 0.000156221 1.28e-06)
(-0.00185076 0.000650056 1.97377e-06)
(-0.00482066 0.000982356 2.55125e-06)
(-0.00851251 0.00117038 2.89303e-06)
(-0.012589 0.00125074 3.0335e-06)
(-0.0167704 0.00125053 3.04145e-06)
(-0.0208223 0.0011833 2.92012e-06)
(-0.0245373 0.00105613 2.64992e-06)
(-0.0277407 0.000880562 2.21305e-06)
(-0.000179849 -8.96475e-06 -1.1757e-06)
(-0.00247474 0.00238796 2.72076e-07)
(-0.00801921 0.00470062 -1.18537e-06)
(-0.0158087 0.00636516 -1.85167e-06)
(-0.0251207 0.00737875 -2.18355e-06)
(-0.0352856 0.0078321 -2.39259e-06)
(-0.0456714 0.00781091 -2.3975e-06)
(-0.0557063 0.00737468 -2.22791e-06)
(-0.0648796 0.00657824 -1.95356e-06)
(-0.0727708 0.00550964 -1.68498e-06)
(-0.000759174 0.0019739 -1.95718e-06)
(-0.00515647 0.00804646 1.72416e-06)
(-0.0141527 0.0134195 7.09902e-08)
(-0.0260456 0.0173436 -7.61394e-08)
(-0.0398705 0.0197827 9.08783e-08)
(-0.0547684 0.0208653 8.70935e-08)
(-0.0698812 0.0207331 9.66447e-08)
(-0.0843981 0.0195077 1.41613e-07)
(-0.0975724 0.0173353 1.93305e-07)
(-0.108777 0.0144623 1.18232e-07)
(-0.00122085 0.00535572 -2.81191e-06)
(-0.00738426 0.0164505 2.43866e-06)
(-0.0192857 0.0255877 -1.38421e-08)
(-0.0345145 0.032171 -2.15604e-07)
(-0.0518834 0.0362409 7.04314e-08)
(-0.070402 0.0379833 1.05045e-07)
(-0.0890587 0.0375816 1.37079e-07)
(-0.106863 0.0352036 2.18221e-07)
(-0.122864 0.031089 3.70491e-07)
(-0.136212 0.0256835 3.25309e-07)
(-0.00153565 0.00980736 -3.42046e-06)
(-0.00897001 0.0270083 2.8675e-06)
(-0.022998 0.0404344 -3.28376e-07)
(-0.0406465 0.0499202 -7.05305e-07)
(-0.0605473 0.0557069 -4.21874e-07)
(-0.0816184 0.0580732 -4.00357e-07)
(-0.102744 0.0572291 -3.55539e-07)
(-0.122794 0.0533518 -2.04818e-07)
(-0.14062 0.0467395 2.38802e-07)
(-0.155086 0.0380367 4.57287e-07)
(-0.00169864 0.0149409 -3.71787e-06)
(-0.00983096 0.0389911 3.17238e-06)
(-0.0250555 0.0570758 -4.26251e-07)
(-0.0440688 0.0696277 -8.94423e-07)
(-0.0653913 0.0771816 -6.16007e-07)
(-0.0878919 0.0801406 -6.10334e-07)
(-0.1104 0.0787219 -5.95434e-07)
(-0.131691 0.0730538 -4.76493e-07)
(-0.15044 0.0634062 4.07328e-07)
(-0.165104 0.0505368 1.26161e-06)
(-0.0017111 0.0203393 -3.72113e-06)
(-0.00993625 0.0515575 3.25227e-06)
(-0.0253441 0.0744646 -4.5424e-07)
(-0.0445597 0.090151 -9.77135e-07)
(-0.0660723 0.0994914 -7.41551e-07)
(-0.0887474 0.103034 -7.68944e-07)
(-0.111416 0.100984 -8.51952e-07)
(-0.132831 0.0933444 -1.0228e-06)
(-0.151574 0.0802029 5.33629e-07)
(-0.16558 0.0621679 3.19396e-06)
(-0.00158038 0.0255848 -3.42723e-06)
(-0.00930378 0.063835 3.11996e-06)
(-0.0238712 0.091485 -4.13936e-07)
(-0.0420752 0.110241 -9.50058e-07)
(-0.0624383 0.121316 -7.75384e-07)
(-0.0838494 0.125416 -7.89137e-07)
(-0.105183 0.122731 -8.93626e-07)
(-0.12526 0.113069 -1.5878e-06)
(-0.14279 0.0961305 1.56264e-06)
(-0.155202 0.0717987 1.1129e-05)
(-0.00132604 0.0302876 -2.85722e-06)
(-0.00802126 0.0749892 2.82617e-06)
(-0.0208137 0.107033 -2.86516e-07)
(-0.0368461 0.128604 -7.97227e-07)
(-0.054696 0.141202 -7.33467e-07)
(-0.0732493 0.145702 -7.99985e-07)
(-0.0913939 0.142327 -1.08067e-06)
(-0.108022 0.130723 -3.76473e-06)
(-0.122322 0.11012 -1.10223e-06)
(-0.131722 0.0788689 2.49818e-05)
(-0.000986036 0.0341301 -2.07516e-06)
(-0.00626974 0.0843188 2.4408e-06)
(-0.0165759 0.120135 -4.87288e-08)
(-0.0295033 0.144021 -4.54826e-07)
(-0.0436565 0.157647 -4.87949e-07)
(-0.0578042 0.16202 -7.26712e-07)
(-0.0706419 0.157462 -1.55361e-06)
(-0.0807683 0.143609 -9.43118e-06)
(-0.0877753 0.119512 -2.1994e-05)
(-0.0910745 0.0825132 7.40414e-06)
(0.00030391 -0.000306854 -1.34032e-07)
(7.84569e-06 0.000156245 -1.39592e-06)
(-0.00185071 0.000650065 -2.02943e-06)
(-0.00482064 0.000982359 -2.57959e-06)
(-0.0085125 0.00117038 -2.90688e-06)
(-0.0125889 0.00125074 -3.03965e-06)
(-0.0167704 0.00125053 -3.04384e-06)
(-0.0208223 0.0011833 -2.92046e-06)
(-0.0245373 0.00105613 -2.64916e-06)
(-0.0277407 0.000880562 -2.21196e-06)
(-0.000179824 -8.88294e-06 1.0609e-06)
(-0.00247469 0.00238801 -3.45856e-07)
(-0.00801917 0.00470063 1.1427e-06)
(-0.0158087 0.00636517 1.82833e-06)
(-0.0251207 0.00737875 2.17193e-06)
(-0.0352856 0.0078321 2.38773e-06)
(-0.0456713 0.00781091 2.3961e-06)
(-0.0557063 0.00737467 2.22831e-06)
(-0.0648795 0.00657823 1.95485e-06)
(-0.0727708 0.00550963 1.6865e-06)
(-0.000759164 0.00197395 1.90293e-06)
(-0.00515645 0.00804649 -1.76633e-06)
(-0.0141527 0.0134195 -9.78851e-08)
(-0.0260456 0.0173436 6.06583e-08)
(-0.0398705 0.0197827 -9.84314e-08)
(-0.0547684 0.0208653 -8.98412e-08)
(-0.0698812 0.0207331 -9.6988e-08)
(-0.084398 0.0195077 -1.40692e-07)
(-0.0975724 0.0173353 -1.9176e-07)
(-0.108777 0.0144623 -1.16595e-07)
(-0.00122084 0.00535574 2.78578e-06)
(-0.00738424 0.0164505 -2.46075e-06)
(-0.0192857 0.0255877 -7.77032e-10)
(-0.0345145 0.032171 2.0731e-07)
(-0.0518833 0.0362409 -7.39234e-08)
(-0.0704019 0.0379833 -1.05496e-07)
(-0.0890586 0.0375816 -1.36152e-07)
(-0.106863 0.0352036 -2.16651e-07)
(-0.122864 0.031089 -3.68578e-07)
(-0.136212 0.0256835 -3.23344e-07)
(-0.00153565 0.00980737 3.40937e-06)
(-0.00897 0.0270083 -2.87741e-06)
(-0.022998 0.0404344 3.22037e-07)
(-0.0406464 0.0499201 7.02221e-07)
(-0.0605473 0.0557068 4.21446e-07)
(-0.0816184 0.0580732 4.01585e-07)
(-0.102744 0.057229 3.57345e-07)
(-0.122794 0.0533518 2.06889e-07)
(-0.14062 0.0467395 -2.36536e-07)
(-0.155086 0.0380367 -4.55064e-07)
(-0.00169864 0.0149409 3.71485e-06)
(-0.00983095 0.0389911 -3.17515e-06)
(-0.0250555 0.0570758 4.25132e-07)
(-0.0440688 0.0696277 8.94751e-07)
(-0.0653913 0.0771816 6.17616e-07)
(-0.0878918 0.0801405 6.12716e-07)
(-0.1104 0.0787219 5.97968e-07)
(-0.131691 0.0730538 4.79055e-07)
(-0.15044 0.0634062 -4.04786e-07)
(-0.165104 0.0505368 -1.2593e-06)
(-0.0017111 0.0203392 3.72261e-06)
(-0.00993624 0.0515575 -3.25096e-06)
(-0.0253441 0.0744646 4.56226e-07)
(-0.0445596 0.0901509 9.79578e-07)
(-0.0660723 0.0994914 7.44512e-07)
(-0.0887474 0.103034 7.72197e-07)
(-0.111416 0.100984 8.55121e-07)
(-0.132831 0.0933444 1.02575e-06)
(-0.151574 0.0802029 -5.30962e-07)
(-0.16558 0.0621679 -3.19174e-06)
(-0.00158038 0.0255848 3.43072e-06)
(-0.00930377 0.063835 -3.11677e-06)
(-0.0238712 0.091485 4.17315e-07)
(-0.0420752 0.110241 9.53457e-07)
(-0.0624383 0.121316 7.78938e-07)
(-0.0838494 0.125416 7.92762e-07)
(-0.105183 0.122731 8.97019e-07)
(-0.12526 0.113069 1.59077e-06)
(-0.14279 0.0961305 -1.56016e-06)
(-0.155202 0.0717986 -1.11271e-05)
(-0.00132604 0.0302876 2.86128e-06)
(-0.00802125 0.0749891 -2.82239e-06)
(-0.0208136 0.107033 2.90265e-07)
(-0.036846 0.128604 8.00856e-07)
(-0.054696 0.141202 7.37105e-07)
(-0.0732493 0.145702 8.03574e-07)
(-0.0913939 0.142327 1.08391e-06)
(-0.108022 0.130723 3.76742e-06)
(-0.122322 0.11012 1.10437e-06)
(-0.131722 0.0788689 -2.498e-05)
(-0.000986035 0.03413 2.07918e-06)
(-0.00626974 0.0843188 -2.43699e-06)
(-0.0165759 0.120135 5.24596e-08)
(-0.0295033 0.144021 4.58434e-07)
(-0.0436565 0.157647 4.9151e-07)
(-0.0578042 0.16202 7.30118e-07)
(-0.0706419 0.157462 1.5566e-06)
(-0.0807682 0.143609 9.43361e-06)
(-0.0877753 0.119512 2.19959e-05)
(-0.0910745 0.0825133 -7.40255e-06)
(0.000299006 -0.000302339 8.08256e-07)
(8.2906e-07 0.000162114 -0.000214152)
(-0.00185438 0.000663959 -0.000436908)
(-0.0048232 0.00100192 -0.000599754)
(-0.00851394 0.00119305 -0.000659336)
(-0.0125895 0.00127492 -0.0005956)
(-0.0167702 0.00127474 -0.000402467)
(-0.0208212 0.0012062 -8.06124e-05)
(-0.0245351 0.00107663 0.000363777)
(-0.0277373 0.000898033 0.000917676)
(-0.000187099 -1.57834e-06 0.000215165)
(-0.00247764 0.00239003 -4.28295e-06)
(-0.00801168 0.00471177 -0.000169075)
(-0.015804 0.00638136 -0.000264768)
(-0.0251183 0.00739672 -0.000273538)
(-0.0352849 0.00785088 -0.000179653)
(-0.0456722 0.00782955 2.34156e-05)
(-0.0557082 0.00739214 0.000337842)
(-0.0648815 0.00659367 0.00076208)
(-0.0727719 0.00552297 0.00128938)
(-0.000774997 0.00197947 0.000443077)
(-0.00516758 0.00804002 0.000153688)
(-0.0141458 0.0134164 -1.19248e-05)
(-0.0260433 0.0173403 -8.63013e-05)
(-0.0398704 0.0197775 -7.78721e-05)
(-0.0547685 0.0208591 2.21853e-05)
(-0.0698819 0.0207264 0.000218067)
(-0.0843991 0.0195009 0.00051339)
(-0.0975725 0.0173284 0.000910988)
(-0.108775 0.0144566 0.00141019)
(-0.00124352 0.00536052 0.00059529)
(-0.00740039 0.0164466 0.000221174)
(-0.0192767 0.0255885 3.20604e-05)
(-0.0345126 0.0321736 -4.4322e-05)
(-0.0518843 0.036243 -3.8023e-05)
(-0.0704027 0.037985 5.39083e-05)
(-0.0890599 0.0375828 0.000234007)
(-0.106865 0.0352038 0.000508441)
(-0.122864 0.0310871 0.000886175)
(-0.136208 0.0256813 0.00137505)
(-0.00156279 0.00981037 0.000598414)
(-0.00898832 0.027006 0.000150893)
(-0.0229856 0.0404364 -6.31749e-05)
(-0.0406434 0.0499242 -0.000151718)
(-0.0605482 0.0557113 -0.00016045)
(-0.0816194 0.0580777 -8.98463e-05)
(-0.102746 0.0572334 6.34769e-05)
(-0.122798 0.0533549 0.000311072)
(-0.140622 0.0467381 0.000671805)
(-0.155079 0.0380332 0.00116878)
(-0.00172823 0.0149418 0.000404237)
(-0.00985027 0.0389898 -9.79197e-05)
(-0.0250408 0.0570768 -0.000332596)
(-0.0440647 0.0696301 -0.000440384)
(-0.0653918 0.0771846 -0.000476281)
(-0.0878927 0.080144 -0.000441535)
(-0.110402 0.0787259 -0.000328731)
(-0.131699 0.0730573 -0.000117118)
(-0.150446 0.0634016 0.000227593)
(-0.165089 0.0505249 0.000758489)
(-0.00174098 0.020338 -1.0259e-05)
(-0.00995529 0.0515573 -0.000545464)
(-0.0253284 0.0744647 -0.000793286)
(-0.0445547 0.0901517 -0.000925322)
(-0.0660721 0.0994929 -0.00100001)
(-0.0887475 0.103036 -0.00101736)
(-0.111418 0.100988 -0.000962976)
(-0.132844 0.0933491 -0.000803108)
(-0.151592 0.0801923 -0.00048225)
(-0.16555 0.0621299 0.000113001)
(-0.00160842 0.0255815 -0.000645113)
(-0.0093213 0.0638356 -0.00119192)
(-0.0238556 0.0914841 -0.00144422)
(-0.0420697 0.11024 -0.00160402)
(-0.0624374 0.121316 -0.00172848)
(-0.0838484 0.125416 -0.00181583)
(-0.105184 0.122736 -0.00184333)
(-0.125282 0.113084 -0.0017622)
(-0.142841 0.0961346 -0.00149499)
(-0.155156 0.0717383 -0.000812641)
(-0.00135043 0.0302826 -0.00147829)
(-0.00803628 0.0749902 -0.002018)
(-0.0207995 0.10703 -0.00226598)
(-0.0368404 0.1286 -0.00245477)
(-0.0546939 0.141199 -0.00263709)
(-0.0732447 0.145699 -0.00281067)
(-0.0913828 0.14233 -0.00294523)
(-0.108039 0.130756 -0.0029763)
(-0.122427 0.110195 -0.00281611)
(-0.131674 0.0788994 -0.00203204)
(-0.00100556 0.0341241 -0.00246811)
(-0.00628186 0.0843201 -0.00298742)
(-0.0165648 0.120131 -0.00322251)
(-0.0294992 0.144013 -0.00343757)
(-0.043655 0.157635 -0.00367973)
(-0.0577973 0.161998 -0.00395122)
(-0.0706088 0.157418 -0.00422371)
(-0.0807271 0.143545 -0.00442901)
(-0.0878635 0.11945 -0.00453576)
(-0.090996 0.0823958 -0.00392628)
(-0.0303168 0.000695671 -0.00156036)
(-0.0322601 0.000503398 -0.00226645)
(-0.0336429 0.000343884 -0.00301311)
(-0.0345843 0.000224846 -0.0037832)
(-0.0352082 0.000143997 -0.00456537)
(-0.0356226 9.46135e-05 -0.00535304)
(-0.0359131 6.95104e-05 -0.00614308)
(-0.0361453 6.29538e-05 -0.00693477)
(-0.0363689 7.10316e-05 -0.00772917)
(-0.0366224 9.11655e-05 -0.00852892)
(-0.036935 0.000121184 -0.00933828)
(-0.0373261 0.000158141 -0.0101632)
(-0.0378013 0.000196967 -0.0110115)
(-0.0383441 0.000229064 -0.0118925)
(-0.0389057 0.000241113 -0.0128161)
(-0.0393921 0.000214731 -0.0137914)
(-0.0396554 0.000128279 -0.0148234)
(-0.0394912 -3.76657e-05 -0.0159099)
(-0.0386576 -0.000294642 -0.017035)
(-0.0369209 -0.00063113 -0.0181674)
(-0.0791247 0.00433047 -0.00190587)
(-0.0839256 0.00319905 -0.0025917)
(-0.0873709 0.00225034 -0.00332842)
(-0.0897498 0.00152807 -0.00410077)
(-0.091356 0.00102267 -0.00489704)
(-0.0924439 0.000699495 -0.00570907)
(-0.0932152 0.000519202 -0.00653176)
(-0.093823 0.000447991 -0.00736249)
(-0.0943814 0.000459953 -0.00820072)
(-0.0949744 0.000534903 -0.00904772)
(-0.09566 0.000653852 -0.00990641)
(-0.0964683 0.000793293 -0.0107813)
(-0.0973931 0.000918982 -0.0116781)
(-0.0983759 0.000980087 -0.0126037)
(-0.0992861 0.00090536 -0.013565)
(-0.0998978 0.000604408 -0.0145675)
(-0.0998756 -2.1208e-05 -0.0156134)
(-0.0987801 -0.00105275 -0.0166982)
(-0.0961082 -0.00251647 -0.0178081)
(-0.0913873 -0.00433174 -0.018916)
(-0.11763 0.0112934 -0.00200158)
(-0.124167 0.00832635 -0.00266489)
(-0.128753 0.00586149 -0.00338264)
(-0.131859 0.00399534 -0.00414024)
(-0.133925 0.00269042 -0.00492581)
(-0.135308 0.00185033 -0.00573062)
(-0.136277 0.0013704 -0.00654883)
(-0.137028 0.00116122 -0.00737698)
(-0.1377 0.00115323 -0.00821367)
(-0.138393 0.00129071 -0.00905922)
(-0.13917 0.00152076 -0.00991547)
(-0.14006 0.00177985 -0.0107856)
(-0.141045 0.00197978 -0.011674)
(-0.142047 0.00199499 -0.0125857)
(-0.142894 0.00165502 -0.0135264)
(-0.1433 0.000749043 -0.0145007)
(-0.142839 -0.000947443 -0.0155114)
(-0.140938 -0.0036157 -0.0165567)
(-0.136926 -0.00729982 -0.0176272)
(-0.130138 -0.011794 -0.0187026)
(-0.14637 0.0197749 -0.00196936)
(-0.153482 0.0143512 -0.00263921)
(-0.158199 0.00995665 -0.00336413)
(-0.16123 0.00670455 -0.00412848)
(-0.163151 0.00447144 -0.00491967)
(-0.164386 0.00305014 -0.00572881)
(-0.16522 0.00223803 -0.00655003)
(-0.165847 0.00187136 -0.00737984)
(-0.166394 0.00182695 -0.00821655)
(-0.166947 0.00200853 -0.00905992)
(-0.16756 0.00232679 -0.0099109)
(-0.168256 0.00267687 -0.0107715)
(-0.169019 0.00291521 -0.0116448)
(-0.16978 0.00283824 -0.0125347)
(-0.170384 0.00216799 -0.013446)
(-0.170562 0.000555189 -0.0143841)
(-0.169881 -0.00238319 -0.0153546)
(-0.167718 -0.00697525 -0.0163613)
(-0.163262 -0.0133368 -0.0174034)
(-0.1556 -0.0211576 -0.018471)
(-0.165373 0.0285569 -0.00180255)
(-0.171831 0.0201351 -0.0025138)
(-0.175617 0.0135874 -0.00327493)
(-0.17776 0.00892645 -0.00406867)
(-0.178957 0.00582952 -0.0048819)
(-0.179637 0.00390681 -0.00570661)
(-0.180046 0.00282346 -0.00653816)
(-0.180327 0.00233038 -0.00737399)
(-0.180559 0.00225161 -0.00821283)
(-0.180791 0.00245694 -0.00905428)
(-0.181053 0.00283081 -0.00989857)
(-0.181362 0.00324058 -0.0107465)
(-0.181717 0.00350426 -0.0115996)
(-0.182089 0.00335875 -0.0124603)
(-0.182397 0.00243317 -0.0133327)
(-0.182464 0.00023862 -0.0142231)
(-0.18195 -0.0038016 -0.0151409)
(-0.180273 -0.0102445 -0.0160983)
(-0.176515 -0.0194107 -0.0171076)
(-0.169394 -0.0310152 -0.0181789)
(-0.174276 0.0364371 -0.00149445)
(-0.1787 0.0245276 -0.00229628)
(-0.180458 0.0158382 -0.00312772)
(-0.180978 0.0100072 -0.00397382)
(-0.180991 0.00632255 -0.00482351)
(-0.180838 0.00412386 -0.00567244)
(-0.180653 0.00291913 -0.00651934)
(-0.180474 0.0023783 -0.00736394)
(-0.180302 0.00228742 -0.0082062)
(-0.18013 0.00250021 -0.00904596)
(-0.179956 0.00289519 -0.00988283)
(-0.179785 0.00333665 -0.0107163)
(-0.179636 0.00363548 -0.011546)
(-0.179541 0.0035072 -0.0123724)
(-0.179529 0.00252743 -0.0131978)
(-0.179593 9.19529e-05 -0.0140288)
(-0.179602 -0.00459349 -0.0148786)
(-0.179157 -0.0124273 -0.0157686)
(-0.177354 -0.0241765 -0.0167296)
(-0.172423 -0.0399104 -0.01781)
(-0.17217 0.0419445 -0.00106508)
(-0.172928 0.0262178 -0.00202495)
(-0.171609 0.0158219 -0.00296072)
(-0.169999 0.00943085 -0.00387547)
(-0.168633 0.00567788 -0.00476771)
(-0.167603 0.00356588 -0.00564223)
(-0.166842 0.00245907 -0.00650415)
(-0.166243 0.0019803 -0.00735684)
(-0.165713 0.00190993 -0.00820201)
(-0.165182 0.00211263 -0.00903987)
(-0.164608 0.00248603 -0.00986937)
(-0.163981 0.00291988 -0.0106885)
(-0.16333 0.00325628 -0.0114944)
(-0.162739 0.00324249 -0.0122849)
(-0.162358 0.0024692 -0.013059)
(-0.162392 0.000288023 -0.0138211)
(-0.163031 -0.00427819 -0.0145865)
(-0.16429 -0.0125543 -0.0153848)
(-0.165611 -0.0260987 -0.0162686)
(-0.164779 -0.0460447 -0.0173576)
(-0.157085 0.0429379 -0.000570726)
(-0.152254 0.0236261 -0.0017709)
(-0.147198 0.0127978 -0.00283249)
(-0.143515 0.00698305 -0.00381595)
(-0.141047 0.00391978 -0.00474223)
(-0.139435 0.00233896 -0.00563307)
(-0.138349 0.00156533 -0.00650291)
(-0.13754 0.00125374 -0.00735911)
(-0.136836 0.00122844 -0.00820479)
(-0.136118 0.00139488 -0.00904018)
(-0.135314 0.00169039 -0.00986326)
(-0.134391 0.00205138 -0.0106701)
(-0.13337 0.00238261 -0.0114554)
(-0.132349 0.00251727 -0.0122128)
(-0.131546 0.0021524 -0.0129369)
(-0.131344 0.00073488 -0.0136267)
(-0.132284 -0.0027264 -0.0142971)
(-0.135037 -0.00988619 -0.0149803)
(-0.140077 -0.0234025 -0.015745)
(-0.145492 -0.0468772 -0.0168215)
(-0.124632 0.0369249 -0.000297899)
(-0.112499 0.0158474 -0.0017638)
(-0.104426 0.00699142 -0.00287108)
(-0.0999273 0.00323961 -0.00386113)
(-0.0973694 0.00160465 -0.00477968)
(-0.0958698 0.000883236 -0.00566084)
(-0.0949292 0.000574419 -0.00652376)
(-0.0942489 0.000471015 -0.00737586)
(-0.0936486 0.000487433 -0.00821914)
(-0.0930125 0.000587058 -0.00905247)
(-0.0922629 0.000751319 -0.00987219)
(-0.0913525 0.000963818 -0.0106722)
(-0.0902731 0.00119721 -0.011444)
(-0.089081 0.00139379 -0.0121766)
(-0.0879515 0.00142558 -0.0128568)
(-0.0872684 0.00100389 -0.013474)
(-0.0877019 -0.000539847 -0.0140362)
(-0.090538 -0.00479906 -0.0145485)
(-0.098213 -0.0152843 -0.0150545)
(-0.111786 -0.0398949 -0.0159435)
(-0.0635077 0.0226536 -0.000940854)
(-0.0473622 0.00652184 -0.00239405)
(-0.0407627 0.0019832 -0.00314409)
(-0.0383811 0.000633639 -0.00389081)
(-0.0373529 0.000215845 -0.00465453)
(-0.0368316 8.8482e-05 -0.00543147)
(-0.0365237 5.46144e-05 -0.00621925)
(-0.0362923 5.41006e-05 -0.00701263)
(-0.0360653 7.0272e-05 -0.00780664)
(-0.0357955 9.98762e-05 -0.00859634)
(-0.0354451 0.000143731 -0.00937569)
(-0.0349808 0.000203777 -0.0101364)
(-0.0343754 0.000281502 -0.0108665)
(-0.0336156 0.000374694 -0.0115487)
(-0.0327234 0.000467221 -0.0121586)
(-0.0318067 0.000497782 -0.012661)
(-0.0312022 0.0002455 -0.0130096)
(-0.0318557 -0.00113276 -0.0131688)
(-0.0373984 -0.00632209 -0.0130204)
(-0.0558011 -0.0253016 -0.0131891)
(-0.0303205 0.000681366 1.6629e-06)
(-0.0322631 0.000492318 1.16206e-06)
(-0.0336451 0.000335712 7.68301e-07)
(-0.0345857 0.000219025 4.84256e-07)
(-0.035209 0.000139925 2.96582e-07)
(-0.035623 9.17349e-05 1.83644e-07)
(-0.0359132 6.73536e-05 1.24864e-07)
(-0.0361453 6.11401e-05 1.04751e-07)
(-0.0363687 6.92663e-05 1.12821e-07)
(-0.036622 8.92284e-05 1.423e-07)
(-0.0369345 0.000118929 1.88503e-07)
(-0.0373256 0.000155511 2.46739e-07)
(-0.0378007 0.000194031 3.09688e-07)
(-0.0383435 0.000226065 3.65012e-07)
(-0.0389052 0.000238534 3.9238e-07)
(-0.0393921 0.000213344 3.58933e-07)
(-0.0396562 0.000129125 2.2256e-07)
(-0.0394932 -3.34262e-05 -4.21137e-08)
(-0.0386613 -0.000285775 -5.08568e-07)
(-0.0369263 -0.00061691 -1.21071e-06)
(-0.0791237 0.00431865 -1.48999e-06)
(-0.0839241 0.00318937 -1.24314e-06)
(-0.087369 0.00224296 -9.82272e-07)
(-0.0897479 0.00152269 -7.4944e-07)
(-0.0913543 0.00101886 -5.59474e-07)
(-0.0924426 0.000696826 -4.19753e-07)
(-0.0932143 0.000517278 -3.29801e-07)
(-0.0938225 0.000446483 -2.83755e-07)
(-0.0943812 0.000458601 -2.73436e-07)
(-0.0949744 0.000533504 -2.8943e-07)
(-0.0956599 0.000652258 -3.20521e-07)
(-0.0964681 0.000791415 -3.51829e-07)
(-0.0973925 0.000916814 -3.63038e-07)
(-0.0983746 0.00097775 -3.27287e-07)
(-0.0992838 0.000903165 -2.11606e-07)
(-0.0998944 0.000602913 1.8268e-08)
(-0.0998712 -2.12128e-05 3.85643e-07)
(-0.0987751 -0.00105029 8.80706e-07)
(-0.0961039 -0.0025105 1.47429e-06)
(-0.0913848 -0.0043222 2.03227e-06)
(-0.117632 0.0112955 -1.84679e-07)
(-0.124167 0.00832677 -3.20546e-07)
(-0.128752 0.00586148 -3.50853e-07)
(-0.131858 0.00399525 -3.33222e-07)
(-0.133924 0.00269042 -2.84498e-07)
(-0.135307 0.0018505 -2.27045e-07)
(-0.136276 0.00137073 -1.75114e-07)
(-0.137027 0.00116172 -1.34125e-07)
(-0.1377 0.00115391 -1.0457e-07)
(-0.138393 0.00129157 -8.44075e-08)
(-0.13917 0.00152176 -7.02801e-08)
(-0.140059 0.00178092 -5.76974e-08)
(-0.141045 0.00198079 -4.14047e-08)
(-0.142046 0.00199573 -1.50354e-08)
(-0.142892 0.00165525 2.99666e-08)
(-0.143298 0.000748517 1.00247e-07)
(-0.142836 -0.000948995 1.91437e-07)
(-0.140936 -0.00361823 2.98036e-07)
(-0.136925 -0.00730319 4.07259e-07)
(-0.13014 -0.0117998 3.46092e-07)
(-0.146375 0.0197715 -2.90749e-07)
(-0.153483 0.0143473 -4.69068e-07)
(-0.158198 0.00995415 -4.65475e-07)
(-0.161228 0.00670317 -4.13813e-07)
(-0.16315 0.00447091 -3.29391e-07)
(-0.164384 0.00305015 -2.43795e-07)
(-0.165219 0.00223831 -1.72859e-07)
(-0.165846 0.00187177 -1.19241e-07)
(-0.166393 0.00182741 -8.11423e-08)
(-0.166947 0.002009 -5.53016e-08)
(-0.16756 0.00232723 -3.85372e-08)
(-0.168256 0.0026772 -2.78857e-08)
(-0.169019 0.00291536 -2.056e-08)
(-0.169779 0.00283809 -1.21335e-08)
(-0.170383 0.00216753 8.88575e-09)
(-0.17056 0.000554507 5.41831e-08)
(-0.169878 -0.00238396 1.06753e-07)
(-0.167715 -0.00697522 2.06174e-07)
(-0.163262 -0.0133345 3.95785e-07)
(-0.155606 -0.0211548 3.48571e-07)
(-0.165381 0.028548 -7.92231e-07)
(-0.17183 0.0201276 -8.86842e-07)
(-0.175614 0.0135838 -7.17084e-07)
(-0.177757 0.00892513 -5.60546e-07)
(-0.178955 0.00582948 -3.9465e-07)
(-0.179634 0.00390736 -2.59364e-07)
(-0.180045 0.00282418 -1.65669e-07)
(-0.180326 0.00233106 -1.05222e-07)
(-0.180558 0.00225219 -6.8888e-08)
(-0.18079 0.0024574 -4.94444e-08)
(-0.181053 0.00283113 -4.19823e-08)
(-0.181362 0.00324075 -4.3202e-08)
(-0.181717 0.00350422 -5.0727e-08)
(-0.182089 0.00335844 -5.95898e-08)
(-0.182396 0.00243262 -4.93946e-08)
(-0.182462 0.000238064 7.43406e-09)
(-0.181947 -0.00380168 5.70435e-08)
(-0.180267 -0.0102424 2.04585e-07)
(-0.176511 -0.0194022 6.9312e-07)
(-0.169404 -0.0310025 9.87301e-07)
(-0.174292 0.0364193 -1.69764e-06)
(-0.178696 0.0245155 -1.44393e-06)
(-0.18045 0.0158346 -9.01601e-07)
(-0.180972 0.010007 -6.03497e-07)
(-0.180987 0.00632367 -3.54966e-07)
(-0.180836 0.00412529 -1.87131e-07)
(-0.180652 0.00292041 -9.26477e-08)
(-0.180473 0.00237931 -4.26404e-08)
(-0.180301 0.0022882 -1.83328e-08)
(-0.18013 0.00250081 -9.04615e-09)
(-0.179956 0.00289565 -9.54797e-09)
(-0.179785 0.00333697 -1.80169e-08)
(-0.179636 0.00363562 -3.46527e-08)
(-0.17954 0.00350708 -5.86854e-08)
(-0.179528 0.00252703 -7.20748e-08)
(-0.179591 9.15769e-05 -4.02586e-08)
(-0.179598 -0.004593 -1.88412e-08)
(-0.179146 -0.0124235 1.16299e-07)
(-0.177344 -0.0241604 1.18821e-06)
(-0.172439 -0.0398833 2.49983e-06)
(-0.172201 0.0419198 -4.52401e-06)
(-0.172913 0.0262098 -2.97663e-06)
(-0.171594 0.0158255 -1.37049e-06)
(-0.169991 0.00943511 -7.14237e-07)
(-0.168628 0.00568135 -3.03275e-07)
(-0.167601 0.00356845 -9.34742e-08)
(-0.166841 0.00246084 -1.11561e-08)
(-0.166243 0.00198154 1.58225e-08)
(-0.165713 0.0019109 1.91147e-08)
(-0.165182 0.00211349 1.16361e-08)
(-0.164608 0.00248687 -2.30547e-09)
(-0.163981 0.00292074 -2.24246e-08)
(-0.16333 0.00325707 -4.97959e-08)
(-0.16274 0.00324301 -8.69866e-08)
(-0.162357 0.00246915 -1.16736e-07)
(-0.162389 0.000287395 -6.43862e-08)
(-0.163024 -0.00427978 7.27721e-08)
(-0.16427 -0.0125568 3.64142e-07)
(-0.165586 -0.0260874 2.86319e-06)
(-0.164811 -0.0460097 6.86632e-06)
(-0.157144 0.042897 -7.69086e-06)
(-0.152222 0.0236362 -3.11081e-06)
(-0.14718 0.0128193 -6.2617e-07)
(-0.14351 0.00699517 -2.39696e-07)
(-0.141045 0.00392595 3.0299e-08)
(-0.139434 0.00234229 1.25605e-07)
(-0.138349 0.00156724 1.18704e-07)
(-0.137541 0.00125504 9.75215e-08)
(-0.136835 0.00122964 8.07509e-08)
(-0.136118 0.00139623 6.90419e-08)
(-0.135314 0.00169204 5.94402e-08)
(-0.134391 0.00205338 4.71888e-08)
(-0.13337 0.00238488 2.50586e-08)
(-0.13235 0.00251939 -2.69775e-08)
(-0.131547 0.00215349 -1.03587e-07)
(-0.131344 0.000733429 -3.82488e-08)
(-0.132282 -0.00273489 8.71692e-08)
(-0.135016 -0.00990835 -3.52368e-07)
(-0.140032 -0.0234154 2.53624e-06)
(-0.145551 -0.046822 1.09823e-05)
(-0.124704 0.0367299 -9.61839e-06)
(-0.112432 0.0157886 4.2562e-06)
(-0.104415 0.00698057 4.75042e-06)
(-0.0999366 0.00323254 2.01977e-06)
(-0.0973747 0.00159941 1.04144e-06)
(-0.0958724 0.000879979 6.30079e-07)
(-0.0949306 0.000572289 3.94005e-07)
(-0.0942494 0.000469431 2.96841e-07)
(-0.0936484 0.000486061 2.84433e-07)
(-0.0930121 0.000585673 3.20007e-07)
(-0.0922623 0.000749777 3.84353e-07)
(-0.0913521 0.000962068 4.60857e-07)
(-0.0902733 0.00119535 5.20612e-07)
(-0.0890825 0.00139217 4.8905e-07)
(-0.087955 0.00142498 2.70323e-07)
(-0.0872771 0.00100532 -9.06094e-08)
(-0.0877206 -0.000536226 -1.32835e-06)
(-0.0905341 -0.00479173 -5.89075e-06)
(-0.0981241 -0.0152207 -7.95285e-06)
(-0.111837 -0.0396424 1.19239e-05)
(-0.0635495 0.0225099 -5.33033e-05)
(-0.0472047 0.00645384 -8.99518e-06)
(-0.0407183 0.00195585 -6.31859e-07)
(-0.0383769 0.000618215 -1.44633e-06)
(-0.03735 0.000206884 -9.38124e-07)
(-0.0368295 8.34575e-05 -4.38159e-07)
(-0.0365228 5.15691e-05 -2.46605e-07)
(-0.036292 5.18931e-05 -1.73973e-07)
(-0.0360653 6.82736e-05 -1.53526e-07)
(-0.0357957 9.7709e-05 -1.68572e-07)
(-0.0354454 0.000141163 -2.08727e-07)
(-0.0349812 0.000200716 -2.63802e-07)
(-0.0343757 0.000278079 -3.19087e-07)
(-0.0336156 0.000371489 -3.48648e-07)
(-0.0327222 0.000465576 -2.6272e-07)
(-0.0318056 0.000499957 1.87712e-07)
(-0.0312045 0.000255146 6.61547e-07)
(-0.0318145 -0.00110935 -1.94029e-06)
(-0.0371857 -0.00624904 3.94029e-06)
(-0.0557885 -0.0251098 6.71647e-05)
(-0.0303205 0.000681366 -1.66185e-06)
(-0.0322631 0.000492318 -1.16112e-06)
(-0.0336451 0.000335712 -7.67515e-07)
(-0.0345857 0.000219025 -4.83588e-07)
(-0.035209 0.000139925 -2.96033e-07)
(-0.0356229 9.17348e-05 -1.83315e-07)
(-0.0359132 6.73535e-05 -1.248e-07)
(-0.0361452 6.11399e-05 -1.04856e-07)
(-0.0363687 6.92659e-05 -1.12965e-07)
(-0.036622 8.9228e-05 -1.42567e-07)
(-0.0369345 0.000118928 -1.88933e-07)
(-0.0373256 0.00015551 -2.47156e-07)
(-0.0378007 0.00019403 -3.09986e-07)
(-0.0383435 0.000226065 -3.65199e-07)
(-0.0389052 0.000238533 -3.92345e-07)
(-0.0393921 0.000213344 -3.58524e-07)
(-0.0396561 0.000129126 -2.21683e-07)
(-0.0394931 -3.34256e-05 4.35623e-08)
(-0.0386613 -0.000285774 5.10684e-07)
(-0.0369262 -0.000616909 1.21348e-06)
(-0.0791237 0.00431865 1.49137e-06)
(-0.083924 0.00318937 1.24431e-06)
(-0.0873689 0.00224296 9.83282e-07)
(-0.0897478 0.00152268 7.50324e-07)