/*--------------------------------*- C++ -*----------------------------------*\
| =========                 |                                                 |
| \\      /  F ield         | OpenFOAM: The Open Source CFD Toolbox           |
|  \\    /   O peration     | Version:  2.4.0                                 |
|   \\  /    A nd           | Web:      www.OpenFOAM.org                      |
|    \\/     M anipulation  |                                                 |
\*---------------------------------------------------------------------------*/
FoamFile
{
    version     2.0;
    format      ascii;
    class       volScalarField;
    location    "0.655";
    object      T;
}
// * * * * * * * * * * * * * * * * * * * * * * * * * * * * * * * * * * * * * //

dimensions      [0 0 0 1 0 0 0];

internalField   nonuniform List<scalar> 
1600
(
101.401
104.203
107.002
109.797
112.586
115.368
118.141
120.903
123.653
126.389
129.11
131.813
134.499
137.165
139.81
142.434
145.034
147.612
150.164
152.693
155.196
157.674
160.127
162.555
164.959
167.339
169.697
172.032
174.348
176.644
178.923
181.185
183.433
185.668
187.892
190.106
192.313
194.513
196.71
198.904
101.402
104.205
107.006
109.803
112.594
115.378
118.153
120.917
123.668
126.406
129.128
131.833
134.52
137.187
139.834
142.458
145.06
147.637
150.191
152.719
155.222
157.7
160.153
162.58
164.983
167.363
169.719
172.054
174.368
176.663
178.94
181.201
183.447
185.68
187.902
190.115
192.32
194.518
196.713
198.905
101.404
104.211
107.015
109.816
112.61
115.397
118.176
120.943
123.698
126.438
129.163
131.871
134.561
137.231
139.879
142.505
145.108
147.687
150.242
152.771
155.274
157.752
160.204
162.631
165.033
167.411
169.765
172.098
174.409
176.701
178.975
181.233
183.475
185.705
187.923
190.132
192.333
194.528
196.718
198.907
101.407
104.219
107.028
109.834
112.634
115.426
118.21
120.982
123.741
126.487
129.216
131.928
134.621
137.295
139.946
142.575
145.181
147.762
150.317
152.847
155.351
157.829
160.281
162.706
165.107
167.482
169.834
172.163
174.471
176.759
179.028
181.28
183.518
185.742
187.955
190.158
192.354
194.543
196.727
198.909
101.41
104.229
107.046
109.859
112.666
115.465
118.255
121.033
123.799
126.55
129.285
132.003
134.701
137.379
140.034
142.667
145.276
147.859
150.417
152.948
155.453
157.931
160.381
162.806
165.204
167.577
169.925
172.25
174.553
176.835
179.098
181.344
183.575
185.792
187.998
190.193
192.381
194.562
196.739
198.913
101.414
104.242
107.068
109.889
112.705
115.512
118.31
121.097
123.87
126.629
129.371
132.095
134.799
137.483
140.143
142.78
145.393
147.979
150.54
153.073
155.578
158.056
160.506
162.929
165.324
167.694
170.038
172.357
174.654
176.93
179.186
181.424
183.647
185.855
188.051
190.237
192.415
194.587
196.754
198.918
101.42
104.258
107.094
109.926
112.751
115.569
118.376
121.173
123.955
126.722
129.473
132.204
134.916
137.606
140.272
142.915
145.532
148.122
150.685
153.22
155.727
158.205
160.654
163.075
165.467
167.833
170.172
172.486
174.776
177.044
179.291
181.52
183.732
185.93
188.115
190.29
192.457
194.616
196.772
198.924
101.426
104.276
107.124
109.968
112.805
115.634
118.453
121.26
124.053
126.831
129.59
132.331
135.051
137.748
140.422
143.07
145.692
148.286
150.853
153.39
155.898
158.376
160.825
163.243
165.633
167.994
170.328
172.635
174.918
177.177
179.414
181.632
183.833
186.018
188.19
190.352
192.505
194.651
196.792
198.931
101.433
104.297
107.159
110.016
112.867
115.709
118.541
121.36
124.165
126.954
129.724
132.474
135.203
137.909
140.59
143.245
145.873
148.472
151.042
153.582
156.091
158.57
161.018
163.434
165.821
168.177
170.505
172.805
175.078
177.328
179.554
181.76
183.947
186.119
188.277
190.423
192.56
194.691
196.816
198.939
101.44
104.32
107.198
110.07
112.936
115.793
118.639
121.472
124.29
127.091
129.873
132.635
135.374
138.089
140.778
143.441
146.074
148.679
151.253
153.796
156.307
158.785
161.232
163.647
166.029
168.381
170.702
172.994
175.258
177.497
179.711
181.904
184.076
186.232
188.374
190.503
192.623
194.736
196.843
198.948
101.449
104.346
107.241
110.131
113.013
115.886
118.748
121.596
124.429
127.244
130.039
132.812
135.562
138.287
140.986
143.656
146.296
148.906
151.484
154.03
156.543
159.022
161.467
163.879
166.258
168.604
170.919
173.203
175.457
177.684
179.885
182.063
184.22
186.359
188.482
190.593
192.693
194.786
196.874
198.958
101.459
104.375
107.289
110.197
113.098
115.989
118.869
121.733
124.582
127.412
130.221
133.007
135.769
138.505
141.213
143.891
146.539
149.154
151.737
154.285
156.799
159.279
161.723
164.133
166.507
168.848
171.155
173.43
175.674
177.888
180.076
182.238
184.378
186.498
188.602
190.691
192.77
194.841
196.907
198.969
101.469
104.407
107.341
110.271
113.192
116.103
119.001
121.884
124.749
127.595
130.419
133.22
135.994
138.742
141.459
144.146
146.801
149.423
152.01
154.561
157.077
159.556
161.999
164.405
166.776
169.11
171.41
173.675
175.908
178.11
180.282
182.428
184.55
186.65
188.733
190.8
192.855
194.902
196.944
198.981
101.481
104.441
107.399
110.351
113.294
116.226
119.145
122.048
124.932
127.795
130.636
133.451
136.239
138.998
141.727
144.423
147.085
149.712
152.304
154.858
157.375
159.854
162.295
164.698
167.064
169.392
171.683
173.939
176.16
178.348
180.506
182.634
184.737
186.816
188.875
190.918
192.948
194.969
196.984
198.995
101.494
104.48
107.462
110.439
113.406
116.362
119.302
122.226
125.13
128.013
130.87
133.702
136.504
139.276
142.016
144.721
147.391
150.025
152.62
155.178
157.696
160.174
162.613
165.013
167.372
169.693
171.976
174.221
176.43
178.604
180.745
182.855
184.938
186.995
189.03
191.047
193.049
195.042
197.028
199.009
101.508
104.521
107.532
110.535
113.528
116.509
119.474
122.421
125.347
128.249
131.125
133.974
136.791
139.577
142.328
145.043
147.721
150.361
152.961
155.521
158.041
160.518
162.955
165.35
167.704
170.017
172.29
174.523
176.719
178.878
181.002
183.093
185.154
187.187
189.197
191.186
193.159
195.121
197.076
199.025
101.523
104.567
107.607
110.64
113.662
116.67
119.661
122.633
125.582
128.506
131.402
134.269
137.103
139.902
142.666
145.392
148.078
150.724
153.329
155.892
158.412
160.889
163.323
165.713
168.06
170.364
172.627
174.848
177.029
179.171
181.277
183.347
185.385
187.394
189.376
191.336
193.278
195.206
197.127
199.042
101.54
104.617
107.69
110.755
113.808
116.846
119.866
122.864
125.839
128.786
131.704
134.589
137.44
140.255
143.032
145.769
148.464
151.117
153.727
156.293
158.814
161.289
163.72
166.105
168.445
170.74
172.99
175.198
177.363
179.487
181.573
183.621
185.634
187.616
189.569
191.498
193.406
195.299
197.183
199.061
101.558
104.672
107.78
110.88
113.967
117.038
120.089
123.117
126.118
129.091
132.032
134.938
137.808
140.639
143.429
146.178
148.883
151.544
154.159
156.727
159.249
161.723
164.15
166.529
168.861
171.146
173.384
175.576
177.724
179.829
181.892
183.916
185.903
187.855
189.778
191.673
193.545
195.399
197.244
199.081
101.578
104.732
107.88
111.018
114.142
117.249
120.333
123.393
126.424
129.424
132.39
135.318
138.208
141.056
143.862
146.623
149.339
152.007
154.627
157.199
159.722
162.195
164.618
166.991
169.314
171.587
173.811
175.987
178.116
180.199
182.238
184.235
186.193
188.114
190.003
191.861
193.695
195.508
197.31
199.103
101.6
104.798
107.989
111.17
114.335
117.48
120.602
123.696
126.759
129.788
132.781
135.734
138.645
141.512
144.334
147.109
149.835
152.512
155.138
157.713
160.237
162.708
165.127
167.493
169.806
172.067
174.276
176.435
178.543
180.603
182.615
184.583
186.509
188.395
190.246
192.066
193.858
195.627
197.383
199.127
101.625
104.871
108.11
111.337
114.547
117.734
120.896
124.028
127.127
130.188
133.21
136.189
139.123
142.01
144.849
147.638
150.377
153.062
155.695
158.274
160.799
163.268
165.682
168.041
170.344
172.591
174.784
176.923
179.009
181.043
183.027
184.962
186.853
188.702
190.512
192.289
194.035
195.756
197.461
199.153
101.651
104.952
108.243
111.521
114.78
118.015
121.221
124.395
127.531
130.627
133.68
136.687
139.646
142.556
145.413
148.218
150.968
153.664
156.304
158.886
161.412
163.879
166.288
168.639
170.93
173.164
175.339
177.457
179.518
181.524
183.477
185.378
187.23
189.037
190.803
192.532
194.228
195.897
197.548
199.181
101.681
105.041
108.391
111.726
115.039
118.325
121.58
124.798
127.976
131.11
134.197
137.235
140.221
143.153
146.031
148.852
151.616
154.322
156.968
159.555
162.082
164.547
166.95
169.292
171.572
173.79
175.946
178.041
180.076
182.052
183.97
185.834
187.644
189.405
191.122
192.799
194.44
196.052
197.642
199.213
101.715
105.14
108.555
111.953
115.326
118.669
121.977
125.244
128.467
131.642
134.766
137.836
140.851
143.808
146.707
149.546
152.324
155.041
157.695
160.286
162.813
165.276
167.674
170.006
172.273
174.474
176.61
178.681
180.688
182.631
184.513
186.335
188.1
189.811
191.474
193.093
194.674
196.222
197.747
199.247
101.752
105.251
108.738
112.205
115.645
119.05
122.416
125.738
129.01
132.229
135.392
138.498
141.543
144.527
147.448
150.306
153.099
155.827
158.489
161.084
163.612
166.072
168.464
170.787
173.04
175.223
177.338
179.382
181.358
183.267
185.109
186.886
188.602
190.259
191.863
193.418
194.932
196.41
197.862
199.286
101.793
105.375
108.942
112.486
115.999
119.474
122.904
126.284
129.609
132.876
136.083
139.225
142.304
145.315
148.26
151.137
153.946
156.685
159.355
161.955
164.484
166.941
169.326
171.639
173.877
176.043
178.134
180.151
182.095
183.966
185.765
187.494
189.156
190.754
192.293
193.779
195.218
196.618
197.99
199.328
101.84
105.513
109.17
112.801
116.395
119.946
123.446
126.89
130.273
133.591
136.843
140.026
143.138
146.18
149.149
152.047
154.871
157.623
160.301
162.905
165.435
167.889
170.267
172.569
174.792
176.938
179.005
180.993
182.903
184.734
186.487
188.165
189.769
191.303
192.771
194.18
195.537
196.851
198.133
199.376
101.892
105.669
109.427
113.153
116.838
120.473
124.049
127.563
131.007
134.381
137.681
140.906
144.055
147.127
150.122
153.04
155.882
158.646
161.332
163.941
166.471
168.922
171.292
173.582
175.79
177.916
179.958
181.916
183.789
185.578
187.284
188.906
190.448
191.912
193.303
194.628
195.894
197.111
198.292
199.429
101.951
105.845
109.716
113.55
117.335
121.062
124.722
128.31
131.821
135.253
138.604
141.873
145.059
148.163
151.185
154.125
156.983
159.759
162.454
165.067
167.597
170.045
172.408
174.686
176.878
178.983
180.999
182.925
184.762
186.507
188.161
189.725
191.201
192.59
193.897
195.128
196.294
197.403
198.471
199.489
102.018
106.045
110.044
113.999
117.895
121.723
125.474
129.142
132.723
136.217
139.621
142.935
146.16
149.296
152.345
155.306
158.181
160.97
163.673
166.29
168.821
171.264
173.62
175.886
178.062
180.145
182.135
184.03
185.828
187.528
189.129
190.632
192.036
193.345
194.561
195.691
196.744
197.734
198.672
199.556
102.095
106.274
110.418
114.508
118.528
122.466
126.314
130.068
133.723
137.28
140.739
144.099
147.363
150.532
153.608
156.59
159.482
162.283
164.994
167.616
170.146
172.586
174.934
177.189
179.348
181.41
183.374
185.237
186.996
188.65
190.197
191.636
192.966
194.188
195.306
196.325
197.255
198.109
198.902
199.634
102.184
106.538
110.848
115.09
119.246
123.304
127.256
131.099
134.832
138.454
141.968
145.375
148.678
151.879
154.98
157.984
160.892
163.705
166.424
169.049
171.58
174.016
176.357
178.6
180.743
182.785
184.723
186.554
188.274
189.882
191.375
192.748
194.002
195.134
196.147
197.045
197.837
198.539
199.165
199.724
102.289
106.846
111.347
115.76
120.066
124.253
128.315
132.25
136.061
139.748
143.317
146.769
150.11
153.342
156.469
159.493
162.417
165.241
167.967
170.596
173.127
175.56
177.893
180.125
182.253
184.275
186.188
187.989
189.673
191.236
192.674
193.982
195.157
196.197
197.099
197.867
198.508
199.037
199.471
199.83
102.414
107.212
111.934
116.54
121.008
125.331
129.506
133.535
137.422
141.174
144.795
148.291
151.667
154.929
158.08
161.122
164.06
166.895
169.628
172.261
174.792
177.221
179.548
181.769
183.884
185.888
187.779
189.551
191.2
192.72
194.106
195.352
196.45
197.395
198.183
198.813
199.287
199.623
199.834
199.958
102.568
107.659
112.637
117.456
122.099
126.561
130.849
134.969
138.929
142.741
146.411
149.947
153.356
156.645
159.817
162.877
165.828
168.672
171.412
174.047
176.578
179.005
181.326
183.539
185.642
187.63
189.5
191.247
192.865
194.347
195.686
196.873
197.898
198.752
199.425
199.91
200.205
200.324
200.274
200.115
102.766
108.221
113.497
118.548
123.369
127.969
132.364
136.567
140.595
144.46
148.173
151.745
155.183
158.494
161.685
164.76
167.723
170.576
173.321
175.96
178.492
180.917
183.233
185.439
187.532
189.507
191.361
193.087
194.679
196.128
197.427
198.562
199.522
200.292
200.857
201.199
201.306
201.182
200.818
200.31
103.039
108.965
114.576
119.864
124.857
129.583
134.072
138.348
142.432
146.341
150.091
153.691
157.153
160.484
163.691
166.778
169.75
172.611
175.361
178.003
180.536
182.96
185.274
187.476
189.561
191.527
193.368
195.079
196.65
198.075
199.341
200.436
201.344
202.046
202.517
202.731
202.654
202.268
201.523
200.571
103.499
110.005
115.951
121.46
126.601
131.431
135.994
140.326
144.453
148.396
152.173
155.795
159.275
162.621
165.839
168.937
171.917
174.784
177.539
180.183
182.718
185.143
187.456
189.655
191.736
193.697
195.53
197.23
198.789
200.197
201.441
202.509
203.381
204.034
204.439
204.558
204.332
203.705
202.536
201.01
104.347
111.59
117.811
123.469
128.701
133.589
138.192
142.553
146.702
150.663
154.454
158.088
161.578
164.931
168.157
171.26
174.245
177.115
179.872
182.519
185.055
187.48
189.793
191.99
194.07
196.027
197.856
199.551
201.103
202.502
203.735
204.787
205.639
206.265
206.632
206.7
206.39
205.627
204.165
202.06
)
;

boundaryField
{
    carasuperior
    {
        type            fixedGradient;
        gradient        uniform 100;
    }
    lateralizquierda
    {
        type            fixedValue;
        value           uniform 100;
    }
    lateralderecha
    {
        type            fixedValue;
        value           uniform 200;
    }
    carainferior
    {
        type            zeroGradient;
    }
    frontAndBack
    {
        type            empty;
    }
}


// ************************************************************************* //
