/*--------------------------------*- C++ -*----------------------------------*\
| =========                 |                                                 |
| \\      /  F ield         | OpenFOAM: The Open Source CFD Toolbox           |
|  \\    /   O peration     | Version:  2.4.0                                 |
|   \\  /    A nd           | Web:      www.OpenFOAM.org                      |
|    \\/     M anipulation  |                                                 |
\*---------------------------------------------------------------------------*/
FoamFile
{
    version     2.0;
    format      ascii;
    class       volScalarField;
    location    "0.255";
    object      T;
}
// * * * * * * * * * * * * * * * * * * * * * * * * * * * * * * * * * * * * * //

dimensions      [0 0 0 1 0 0 0];

internalField   nonuniform List<scalar> 
1600
(
100.761
102.286
103.82
105.37
106.942
108.542
110.176
111.849
113.567
115.333
117.154
119.033
120.973
122.979
125.052
127.196
129.412
131.701
134.065
136.503
139.017
141.605
144.266
147
149.805
152.679
155.619
158.623
161.688
164.811
167.988
171.215
174.488
177.802
181.154
184.536
187.945
191.374
194.819
198.272
100.762
102.288
103.824
105.376
106.95
108.551
110.187
111.862
113.581
115.349
117.171
119.051
120.993
123
125.074
127.219
129.436
131.726
134.09
136.529
139.043
141.631
144.293
147.026
149.83
152.703
155.643
158.646
161.709
164.831
168.006
171.231
174.503
177.815
181.165
184.545
187.952
191.38
194.822
198.273
100.763
102.293
103.832
105.387
106.964
108.569
110.208
111.886
113.608
115.379
117.204
119.087
121.031
123.041
125.117
127.264
129.483
131.774
134.14
136.58
139.095
141.683
144.345
147.078
149.881
152.753
155.69
158.691
161.752
164.871
168.043
171.265
174.533
177.841
181.187
184.564
187.966
191.39
194.828
198.275
100.766
102.3
103.845
105.405
106.986
108.596
110.24
111.922
113.648
115.424
117.253
119.14
121.088
123.101
125.181
127.331
129.552
131.846
134.214
136.656
139.171
141.76
144.422
147.154
149.956
152.826
155.761
158.759
161.817
164.931
168.098
171.315
174.578
177.881
181.22
184.591
187.988
191.405
194.837
198.278
100.769
102.31
103.861
105.427
107.016
108.632
110.281
111.97
113.702
115.483
117.318
119.21
121.163
123.181
125.265
127.419
129.644
131.941
134.311
136.755
139.272
141.861
144.523
147.255
150.055
152.923
155.855
158.849
161.902
165.011
168.172
171.382
174.638
177.933
181.265
184.628
188.017
191.426
194.849
198.282
100.773
102.322
103.881
105.456
107.052
108.676
110.333
112.029
113.769
115.557
117.399
119.297
121.256
123.279
125.369
127.528
129.757
132.057
134.431
136.877
139.395
141.986
144.648
147.379
150.178
153.043
155.971
158.96
162.008
165.11
168.264
171.466
174.713
177.999
181.321
184.674
188.053
191.452
194.865
198.287
100.778
102.337
103.906
105.49
107.096
108.729
110.396
112.1
113.849
115.645
117.495
119.401
121.367
123.397
125.493
127.657
129.891
132.196
134.573
137.021
139.542
142.134
144.796
147.526
150.323
153.185
156.109
159.093
162.134
165.229
168.374
171.567
174.803
178.078
181.389
184.73
188.096
191.483
194.884
198.294
100.784
102.354
103.934
105.53
107.147
108.791
110.468
112.183
113.942
115.748
117.606
119.521
121.495
123.533
125.635
127.806
130.045
132.355
134.736
137.188
139.711
142.304
144.966
147.695
150.49
153.349
156.268
159.246
162.28
165.366
168.502
171.683
174.907
178.17
181.467
184.794
188.147
191.519
194.905
198.301
100.79
102.374
103.967
105.576
107.206
108.862
110.551
112.278
114.048
115.865
117.734
119.658
121.641
123.687
125.798
127.975
130.221
132.536
134.921
137.376
139.902
142.496
145.158
147.887
150.679
153.534
156.448
159.42
162.445
165.522
168.647
171.816
175.027
178.275
181.557
184.868
188.204
191.56
194.93
198.309
100.798
102.396
104.004
105.628
107.272
108.943
110.645
112.385
114.168
115.997
117.877
119.812
121.805
123.86
125.979
128.164
130.416
132.737
135.127
137.586
140.113
142.709
145.371
148.098
150.889
153.739
156.648
159.613
162.629
165.696
168.809
171.965
175.16
178.393
181.658
184.951
188.269
191.607
194.958
198.318
100.806
102.421
104.046
105.686
107.346
109.032
110.75
112.505
114.301
116.143
118.036
119.983
121.987
124.052
126.18
128.372
130.631
132.958
135.353
137.815
140.345
142.942
145.604
148.33
151.117
153.964
156.867
159.824
162.831
165.887
168.987
172.128
175.308
178.523
181.77
185.044
188.342
191.658
194.989
198.329
100.816
102.449
104.093
105.75
107.428
109.132
110.867
112.637
114.449
116.306
118.212
120.171
122.187
124.262
126.4
128.601
130.867
133.199
135.599
138.065
140.597
143.195
145.856
148.58
151.364
154.206
157.103
160.052
163.05
166.094
169.18
172.307
175.47
178.666
181.892
185.145
188.421
191.715
195.024
198.34
100.826
102.48
104.144
105.822
107.519
109.242
110.995
112.784
114.612
116.484
118.405
120.378
122.406
124.493
126.64
128.849
131.123
133.461
135.865
138.334
140.868
143.467
146.127
148.849
151.629
154.466
157.356
160.297
163.284
166.316
169.389
172.499
175.644
178.821
182.026
185.256
188.508
191.778
195.061
198.353
100.837
102.514
104.201
105.901
107.62
109.364
111.137
112.944
114.79
116.68
118.616
120.604
122.645
124.743
126.901
129.119
131.4
133.744
136.152
138.624
141.16
143.758
146.417
149.136
151.912
154.743
157.625
160.557
163.534
166.554
169.612
172.706
175.832
178.988
182.17
185.375
188.601
191.845
195.102
198.366
100.85
102.552
104.263
105.987
107.73
109.497
111.292
113.12
114.986
116.894
118.847
120.85
122.905
125.016
127.184
129.411
131.699
134.049
136.462
138.936
141.473
144.07
146.727
149.442
152.213
155.037
157.912
160.834
163.8
166.806
169.849
172.925
176.032
179.166
182.324
185.504
188.703
191.918
195.146
198.381
100.864
102.593
104.331
106.082
107.851
109.643
111.462
113.313
115.2
117.127
119.099
121.118
123.188
125.311
127.491
129.727
132.023
134.379
136.795
139.271
141.808
144.405
147.059
149.77
152.535
155.351
158.217
161.128
164.081
167.073
170.1
173.159
176.245
179.356
182.49
185.642
188.812
191.996
195.193
198.396
100.879
102.639
104.407
106.187
107.984
109.803
111.648
113.523
115.434
117.382
119.373
121.41
123.496
125.633
127.824
130.07
132.373
134.734
137.154
139.633
142.17
144.764
147.415
150.121
152.879
155.687
158.542
161.441
164.38
167.357
170.367
173.406
176.471
179.559
182.666
185.79
188.929
192.081
195.244
198.413
100.896
102.689
104.489
106.302
108.13
109.979
111.852
113.754
115.689
117.661
119.673
121.729
123.831
125.982
128.185
130.442
132.753
135.12
137.543
140.024
142.56
145.153
147.799
150.499
153.249
156.047
158.89
161.776
164.701
167.66
170.651
173.669
176.712
179.774
182.854
185.948
189.054
192.171
195.299
198.431
100.914
102.744
104.58
106.428
108.29
110.171
112.076
114.007
115.969
117.966
120
122.076
124.196
126.363
128.579
130.846
133.165
135.538
137.966
140.448
142.984
145.573
148.215
150.907
153.648
156.435
159.266
162.137
165.045
167.986
170.956
173.951
176.969
180.004
183.055
186.117
189.189
192.269
195.358
198.451
100.934
102.804
104.681
106.567
108.466
110.383
112.321
114.284
116.276
118.299
120.359
122.456
124.595
126.779
129.008
131.287
133.615
135.994
138.425
140.909
143.444
146.03
148.666
151.351
154.082
156.857
159.673
162.528
165.417
168.337
171.284
174.255
177.245
180.251
183.27
186.298
189.333
192.374
195.422
198.472
100.956
102.871
104.791
106.719
108.66
110.616
112.591
114.589
116.613
118.665
120.751
122.872
125.032
127.233
129.477
131.768
134.105
136.491
138.926
141.411
143.945
146.528
149.158
151.834
154.554
157.316
160.116
162.952
165.821
168.718
171.64
174.583
177.543
180.517
183.501
186.493
189.489
192.487
195.491
198.495
100.981
102.945
104.913
106.888
108.874
110.873
112.889
114.924
116.983
119.067
121.181
123.328
125.51
127.73
129.99
132.294
134.641
137.034
139.473
141.959
144.492
147.071
149.694
152.361
155.069
157.816
160.599
163.416
166.262
169.134
172.028
174.941
177.868
180.806
183.753
186.704
189.657
192.61
195.566
198.52
101.008
103.026
105.047
107.075
109.11
111.156
113.217
115.293
117.39
119.509
121.654
123.828
126.034
128.275
130.552
132.869
135.227
137.628
140.072
142.559
145.09
147.665
150.281
152.937
155.633
158.364
161.128
163.923
166.744
169.589
172.453
175.332
178.223
181.122
184.027
186.934
189.84
192.744
195.648
198.547
101.039
103.116
105.197
107.281
109.371
111.47
113.579
115.701
117.839
119.996
122.174
124.378
126.61
128.872
131.168
133.5
135.869
138.278
140.726
143.215
145.745
148.314
150.923
153.568
156.249
158.963
161.708
164.479
167.274
170.088
172.919
175.762
178.613
181.469
184.328
187.186
190.041
192.891
195.738
198.576
101.072
103.217
105.362
107.51
109.661
111.817
113.979
116.151
118.334
120.532
122.747
124.983
127.242
129.528
131.843
134.191
136.572
138.989
141.442
143.933
146.461
149.025
151.625
154.259
156.925
159.621
162.343
165.089
167.855
170.637
173.432
176.235
179.043
181.852
184.659
187.463
190.261
193.052
195.837
198.609
101.11
103.329
105.547
107.765
109.983
112.202
114.423
116.648
118.881
121.123
123.377
125.647
127.936
130.248
132.584
134.948
137.342
139.767
142.226
144.718
147.244
149.803
152.394
155.015
157.666
160.342
163.041
165.76
168.495
171.242
173.998
176.757
179.518
182.275
185.027
187.771
190.505
193.23
195.947
198.646
101.151
103.453
105.753
108.049
110.341
112.629
114.915
117.199
119.485
121.775
124.071
126.378
128.699
131.037
133.395
135.777
138.184
140.619
143.082
145.576
148.1
150.653
153.235
155.843
158.477
161.132
163.807
166.497
169.199
171.908
174.622
177.335
180.043
182.744
185.434
188.112
190.777
193.428
196.068
198.686
101.198
103.593
105.983
108.366
110.74
113.105
115.461
117.81
120.154
122.495
124.837
127.183
129.537
131.903
134.284
136.684
139.105
141.549
144.018
146.514
149.035
151.582
154.154
156.749
159.364
161.998
164.647
167.307
169.974
172.643
175.312
177.974
180.626
183.265
185.888
188.493
191.079
193.648
196.204
198.731
101.251
103.75
106.241
108.721
111.187
113.636
116.069
118.488
120.894
123.29
125.679
128.067
130.456
132.852
135.257
137.676
140.111
142.565
145.04
147.536
150.055
152.596
155.157
157.738
160.335
162.947
165.568
168.196
170.826
173.454
176.074
178.682
181.274
183.846
186.395
188.919
191.419
193.896
196.356
198.782
101.31
103.927
106.533
109.121
111.687
114.23
116.747
119.241
121.713
124.167
126.608
129.039
131.465
133.891
136.321
138.759
141.208
143.672
146.153
148.65
151.167
153.701
156.251
158.818
161.396
163.984
166.578
169.173
171.765
174.348
176.917
179.468
181.995
184.494
186.961
189.397
191.801
194.176
196.527
198.839
101.378
104.128
106.863
109.572
112.251
114.895
117.504
120.078
122.621
125.137
127.63
130.106
132.569
135.026
137.482
139.939
142.404
144.877
147.363
149.862
152.375
154.902
157.443
159.994
162.553
165.118
167.683
170.244
172.796
175.333
177.85
180.34
182.797
185.218
187.598
189.936
192.232
194.493
196.72
198.904
101.456
104.358
107.239
110.085
112.887
115.643
118.35
121.01
123.627
126.207
128.754
131.276
133.778
136.266
138.746
141.224
143.702
146.186
148.677
151.177
153.687
156.208
158.737
161.273
163.813
166.354
168.891
171.418
173.93
176.42
178.882
181.308
183.693
186.03
188.315
190.545
192.723
194.853
196.941
198.979
101.545
104.624
107.671
110.67
113.61
116.486
119.298
122.049
124.743
127.388
129.99
132.558
135.098
137.617
140.122
142.618
145.111
147.604
150.1
152.601
155.108
157.622
160.14
162.662
165.183
167.7
170.209
172.702
175.174
177.617
180.023
182.385
184.693
186.942
189.125
191.239
193.284
195.268
197.195
199.066
101.65
104.934
108.173
111.344
114.435
117.441
120.363
123.207
125.98
128.69
131.347
133.96
136.536
139.086
141.614
144.129
146.635
149.136
151.637
154.139
156.643
159.15
161.658
164.165
166.669
169.163
171.644
174.105
176.538
178.935
181.286
183.582
185.814
187.971
190.046
192.034
193.932
195.749
197.491
199.169
101.776
105.302
108.763
112.128
115.383
118.526
121.562
124.5
127.351
130.125
132.834
135.49
138.101
140.679
143.23
145.761
148.279
150.789
153.294
155.796
158.297
160.798
163.296
165.79
168.276
170.75
173.206
175.636
178.032
180.384
182.683
184.915
187.07
189.135
191.098
192.951
194.688
196.317
197.843
199.293
101.931
105.751
109.47
113.05
116.48
119.765
122.915
125.944
128.869
131.703
134.461
137.156
139.8
142.402
144.973
147.519
150.048
152.565
155.073
157.576
160.075
162.569
165.059
167.541
170.012
172.467
174.9
177.302
179.665
181.977
184.227
186.4
188.482
190.457
192.307
194.019
195.582
197
198.271
199.446
102.13
106.316
110.335
114.149
117.759
121.183
124.442
127.556
130.548
133.435
136.236
138.966
141.637
144.261
146.849
149.409
151.947
154.47
156.981
159.484
161.98
164.47
166.952
169.425
171.883
174.322
176.735
179.114
181.448
183.726
185.933
188.055
190.072
191.963
193.706
195.279
196.657
197.838
198.803
199.637
102.404
107.063
111.421
115.475
119.259
122.81
126.164
129.352
132.4
135.332
138.168
140.926
143.619
146.261
148.863
151.433
153.979
156.507
159.021
161.524
164.019
166.505
168.982
171.447
173.895
176.322
178.72
181.08
183.392
185.643
187.817
189.897
191.861
193.685
195.336
196.782
197.98
198.905
199.496
199.893
102.866
108.109
112.806
117.083
121.018
124.674
128.103
131.347
134.438
137.403
140.266
143.044
145.754
148.409
151.021
153.599
156.151
158.682
161.199
163.703
166.197
168.682
171.155
173.615
176.057
178.476
180.864
183.212
185.509
187.742
189.893
191.945
193.872
195.647
197.232
198.585
199.636
200.324
200.497
200.329
103.716
109.701
114.676
119.104
123.131
126.846
130.315
133.587
136.7
139.682
142.558
145.347
148.066
150.728
153.345
155.927
158.482
161.016
163.533
166.038
168.532
171.015
173.486
175.943
178.382
180.796
183.179
185.521
187.81
190.033
192.172
194.207
196.114
197.861
199.409
200.71
201.679
202.232
202.117
201.374
)
;

boundaryField
{
    carasuperior
    {
        type            fixedGradient;
        gradient        uniform 100;
    }
    lateralizquierda
    {
        type            fixedValue;
        value           uniform 100;
    }
    lateralderecha
    {
        type            fixedValue;
        value           uniform 200;
    }
    carainferior
    {
        type            zeroGradient;
    }
    frontAndBack
    {
        type            empty;
    }
}


// ************************************************************************* //
