/*--------------------------------*- C++ -*----------------------------------*\
| =========                 |                                                 |
| \\      /  F ield         | OpenFOAM: The Open Source CFD Toolbox           |
|  \\    /   O peration     | Version:  2.4.0                                 |
|   \\  /    A nd           | Web:      www.OpenFOAM.org                      |
|    \\/     M anipulation  |                                                 |
\*---------------------------------------------------------------------------*/
FoamFile
{
    version     2.0;
    format      ascii;
    class       surfaceScalarField;
    location    "3.4";
    object      phi;
}
// * * * * * * * * * * * * * * * * * * * * * * * * * * * * * * * * * * * * * //

dimensions      [0 3 -1 0 0 0 0];

internalField   nonuniform List<scalar> 
12720
(
1.53865e-07
-1.53987e-07
1.06892e-10
-5.41807e-07
6.93909e-07
1.76333e-09
-2.06819e-06
1.52378e-06
2.60527e-09
-4.17843e-06
2.10691e-06
3.33359e-09
-6.63648e-06
2.45428e-06
3.76871e-09
-9.24784e-06
2.60742e-06
3.94792e-09
-1.18524e-05
2.6006e-06
3.95817e-09
-1.43114e-05
2.4552e-06
3.80164e-09
-1.65037e-05
2.18882e-06
3.45205e-09
1.83025e-06
2.88585e-09
-1.83368e-05
-7.25385e-07
5.72813e-07
-1.41494e-09
-3.29342e-06
3.26152e-06
4.27675e-10
-7.49253e-06
5.72437e-06
-1.48609e-09
-1.28987e-05
7.51548e-06
-2.37162e-09
-1.9064e-05
8.62231e-06
-2.81624e-09
-2.55696e-05
9.11613e-06
-3.09592e-09
-3.20362e-05
9.07029e-06
-3.10676e-09
-3.81215e-05
8.54346e-06
-2.88875e-09
-4.35307e-05
7.60055e-06
-2.53361e-09
6.34983e-06
-2.18594e-09
-4.80481e-05
-1.69155e-06
2.26685e-06
-2.48017e-09
-6.12556e-06
7.69324e-06
2.28588e-09
-1.27067e-05
1.23054e-05
1.25798e-10
-2.08398e-05
1.56487e-05
-7.59438e-11
-2.99389e-05
1.77213e-05
1.33503e-10
-3.94464e-05
1.86235e-05
1.23976e-10
-4.8835e-05
1.84588e-05
1.34182e-10
-5.76119e-05
1.73201e-05
1.91838e-10
-6.53426e-05
1.5331e-05
2.58811e-10
1.27146e-05
1.60835e-10
-7.17075e-05
-2.48515e-06
4.75562e-06
-3.61694e-09
-8.49893e-06
1.37038e-05
3.21078e-09
-1.7057e-05
2.08634e-05
5.86335e-12
-2.73757e-05
2.59677e-05
-2.6548e-10
-3.87553e-05
2.91008e-05
1.00737e-10
-5.05413e-05
3.04092e-05
1.4162e-10
-6.21006e-05
3.0018e-05
1.81054e-10
-7.28184e-05
2.80376e-05
2.85912e-10
-8.21281e-05
2.46402e-05
4.84587e-10
2.01794e-05
4.26383e-10
-8.95933e-05
-3.04634e-06
7.80637e-06
-4.42199e-09
-1.02149e-05
2.08686e-05
3.77457e-09
-2.02187e-05
3.08676e-05
-4.07171e-10
-3.21161e-05
3.7866e-05
-9.07557e-10
-4.51182e-05
4.21035e-05
-5.43955e-10
-5.85031e-05
4.37946e-05
-5.2053e-10
-7.15603e-05
4.30756e-05
-4.65149e-10
-8.35675e-05
4.00451e-05
-2.70149e-10
-9.38118e-05
3.48842e-05
3.08783e-10
2.80531e-05
5.95287e-10
-0.000101686
-3.35095e-06
1.11621e-05
-4.78931e-09
-1.11681e-05
2.86816e-05
4.18444e-09
-2.19911e-05
4.16911e-05
-5.3557e-10
-3.47807e-05
5.06567e-05
-1.15704e-09
-4.86946e-05
5.60183e-05
-7.99939e-10
-6.29745e-05
5.80753e-05
-7.97327e-10
-7.68622e-05
5.6964e-05
-7.81631e-10
-8.95452e-05
5.27288e-05
-6.28681e-10
-0.000100142
4.54803e-05
5.25679e-10
3.5676e-05
1.64359e-09
-0.000107766
-3.38986e-06
1.45574e-05
-5.46629e-09
-1.13083e-05
3.65957e-05
4.31001e-09
-2.2261e-05
5.26444e-05
-5.71684e-10
-3.51812e-05
6.35782e-05
-1.26653e-09
-4.92136e-05
7.00517e-05
-9.65217e-10
-6.35981e-05
7.24609e-05
-1.00554e-09
-7.75689e-05
7.09359e-05
-1.11828e-09
-9.02634e-05
6.54246e-05
-1.34552e-09
-0.000100634
5.58499e-05
6.86374e-10
4.23929e-05
4.16383e-09
-0.000107355
-3.1701e-06
1.7732e-05
-4.42263e-09
-1.0642e-05
4.40635e-05
4.11837e-09
-2.10138e-05
6.30166e-05
-5.24154e-10
-3.32514e-05
7.5817e-05
-1.23376e-09
-4.65158e-05
8.33171e-05
-1.00942e-09
-6.00698e-05
8.60159e-05
-1.03002e-09
-7.31829e-05
8.40502e-05
-1.17123e-09
-8.50147e-05
7.72585e-05
-2.08812e-09
-9.44383e-05
6.52715e-05
2.01023e-09
4.74512e-05
1.44836e-08
-9.95111e-05
-2.72221e-06
2.04579e-05
-3.71108e-09
-9.25406e-06
5.05917e-05
3.72403e-09
-1.8379e-05
7.21419e-05
-3.61752e-10
-2.91304e-05
8.65695e-05
-1.03445e-09
-4.06837e-05
9.48713e-05
-9.50378e-10
-5.23076e-05
9.76409e-05
-1.03308e-09
-6.33065e-05
9.50504e-05
-1.39441e-09
-7.29152e-05
8.68722e-05
-4.90089e-09
-8.01473e-05
7.2505e-05
-1.45567e-09
4.97559e-05
3.25074e-08
-8.24845e-05
-2.11047e-06
-2.69452e-09
2.25711e-05
-7.33341e-06
3.2127e-09
5.58114e-05
-1.46892e-05
-5.40715e-11
7.94978e-05
-2.32825e-05
-5.87243e-10
9.51634e-05
-3.22584e-05
-6.26027e-10
0.000103848
-4.07891e-05
-9.25094e-10
0.000106173
-4.80545e-05
-1.97677e-09
0.000102318
-5.31359e-05
-1.2214e-08
9.19658e-05
-5.49229e-05
-2.85674e-08
7.43206e-05
9.78406e-09
-5.22406e-05
4.70638e-05
1.55208e-07
-1.55099e-07
-1.27832e-12
-5.42452e-07
6.99425e-07
-9.08992e-13
-2.06895e-06
1.5291e-06
-3.30543e-13
-4.17857e-06
2.11295e-06
-6.20826e-15
-6.63634e-06
2.46155e-06
3.7951e-14
-9.2477e-06
2.61531e-06
-3.26567e-14
-1.18524e-05
2.60862e-06
-1.14614e-13
-1.43115e-05
2.46298e-06
-1.08254e-13
-1.65041e-05
2.19598e-06
-1.12015e-13
1.83624e-06
-1.7305e-13
-1.83374e-05
-7.30104e-07
5.73591e-07
-5.96428e-13
-3.29907e-06
3.26882e-06
-4.5442e-13
-7.49753e-06
5.72608e-06
-8.15371e-14
-1.29022e-05
7.51523e-06
8.57075e-14
-1.90656e-05
8.62216e-06
1.81916e-14
-2.55697e-05
9.11628e-06
-7.71129e-15
-3.2035e-05
9.07086e-06
-5.6559e-14
-3.81195e-05
8.5446e-06
-1.32648e-13
-4.35284e-05
7.6023e-06
-2.33168e-13
6.35144e-06
-1.25393e-13
-4.80458e-05
-1.69696e-06
2.26808e-06
-5.50989e-13
-6.12631e-06
7.70045e-06
-3.78866e-13
-1.27075e-05
1.23074e-05
-7.38549e-14
-2.08408e-05
1.56484e-05
9.51151e-14
-2.99394e-05
1.7721e-05
1.28145e-13
-3.94464e-05
1.86234e-05
4.04947e-14
-4.88346e-05
1.84592e-05
-8.97035e-14
-5.76112e-05
1.73214e-05
-1.91867e-13
-6.53421e-05
1.53335e-05
-2.90841e-13
1.27169e-05
-2.96514e-13
-7.17074e-05
-2.49199e-06
4.75644e-06
-4.38074e-13
-8.4978e-06
1.37095e-05
-2.58468e-13
-1.70557e-05
2.08653e-05
-2.02905e-14
-2.73754e-05
2.59679e-05
1.33341e-13
-3.87552e-05
2.91008e-05
1.49016e-13
-5.05411e-05
3.04094e-05
4.62895e-14
-6.21003e-05
3.00186e-05
-1.08499e-13
-7.28181e-05
2.80394e-05
-2.57547e-13
-8.21284e-05
2.46443e-05
-2.77087e-13
2.01834e-05
-1.90147e-13
-8.95945e-05
-3.05488e-06
7.8069e-06
-9.70407e-14
-1.02135e-05
2.08719e-05
-1.06601e-13
-2.02171e-05
3.08684e-05
7.94844e-14
-3.21157e-05
3.78656e-05
2.01169e-13
-4.51181e-05
4.21028e-05
1.04785e-13
-5.85031e-05
4.37938e-05
-8.1592e-14
-7.156e-05
4.30751e-05
-2.95047e-13
-8.35669e-05
4.0046e-05
-2.72162e-13
-9.3812e-05
3.48897e-05
-1.60962e-13
2.80603e-05
-9.78841e-14
-0.000101688
-3.36051e-06
1.11626e-05
1.79867e-15
-1.11666e-05
2.86822e-05
3.34808e-14
-2.19894e-05
4.16907e-05
1.06243e-13
-3.47805e-05
5.06555e-05
1.41371e-13
-4.8695e-05
5.60165e-05
-2.86666e-14
-6.29753e-05
5.80733e-05
-2.39659e-13
-7.68627e-05
5.69617e-05
-2.38713e-13
-8.95446e-05
5.27273e-05
-1.7562e-13
-0.000100142
4.54874e-05
-6.67737e-14
3.56907e-05
1.46191e-14
-0.000107771
-3.39981e-06
1.4557e-05
9.70916e-14
-1.13069e-05
3.65937e-05
9.009e-14
-2.22596e-05
5.26428e-05
3.06285e-14
-3.51816e-05
6.35763e-05
-1.06145e-14
-4.92151e-05
7.0049e-05
-1.42963e-13
-6.36003e-05
7.24575e-05
-1.84214e-13
-7.75711e-05
7.09313e-05
-1.32481e-13
-9.02633e-05
6.54182e-05
-1.15671e-13
-0.000100632
5.58573e-05
-2.3682e-14
4.24253e-05
6.74724e-14
-0.000107363
-3.17905e-06
1.77316e-05
1.45003e-13
-1.06407e-05
4.40594e-05
2.75217e-14
-2.10127e-05
6.30142e-05
7.19728e-16
-3.32525e-05
7.58148e-05
-3.93839e-14
-4.65185e-05
8.3314e-05
-7.90965e-14
-6.00738e-05
8.60118e-05
-5.82019e-14
-7.31873e-05
8.40437e-05
-5.18355e-14
-8.50148e-05
7.72435e-05
-1.91522e-14
-9.44255e-05
6.52701e-05
-5.39115e-14
4.7534e-05
-7.62347e-14
-9.95198e-05
-2.72964e-06
2.04575e-05
1.12761e-13
-9.25276e-06
5.05863e-05
-1.24507e-14
-1.83782e-05
7.21393e-05
-7.86404e-14
-2.91322e-05
8.65678e-05
-1.06032e-14
-4.06883e-05
9.48691e-05
7.04209e-14
-5.2316e-05
9.76384e-05
2.56701e-14
-6.33208e-05
9.50471e-05
5.06416e-14
-7.29349e-05
8.68527e-05
-1.33976e-14
-8.01233e-05
7.2457e-05
-1.94544e-13
4.98735e-05
-2.75688e-13
-8.24303e-05
-2.11587e-06
6.79025e-14
2.25707e-05
-7.3318e-06
3.15572e-14
5.58054e-05
-1.46878e-05
-1.27149e-14
7.94953e-05
-2.32834e-05
1.0932e-13
9.51628e-05
-3.22631e-05
1.14031e-13
0.000103848
-4.08009e-05
6.03389e-14
0.000106175
-4.80832e-05
5.694e-14
0.000102327
-5.32243e-05
-1.9572e-14
9.19816e-05
-5.5064e-05
-1.96527e-13
7.42681e-05
-1.34348e-13
-5.2012e-05
4.68313e-05
1.55208e-07
-1.55098e-07
-1.11099e-10
-5.42451e-07
6.99426e-07
-1.76551e-09
-2.06895e-06
1.5291e-06
-2.60657e-09
-4.17857e-06
2.11295e-06
-3.33459e-09
-6.63634e-06
2.46155e-06
-3.76962e-09
-9.2477e-06
2.61531e-06
-3.94873e-09
-1.18524e-05
2.60862e-06
-3.95884e-09
-1.43115e-05
2.46298e-06
-3.80239e-09
-1.65041e-05
2.19598e-06
-3.45269e-09
1.83624e-06
-2.88625e-09
-1.83374e-05
-7.30104e-07
5.73591e-07
1.41357e-09
-3.29907e-06
3.26882e-06
-4.2882e-10
-7.49752e-06
5.72608e-06
1.48516e-09
-1.29022e-05
7.51523e-06
2.37072e-09
-1.90656e-05
8.62216e-06
2.81541e-09
-2.55697e-05
9.11628e-06
3.0952e-09
-3.2035e-05
9.07086e-06
3.10608e-09
-3.81195e-05
8.5446e-06
2.88819e-09
-4.35284e-05
7.60229e-06
2.5332e-09
6.35144e-06
2.18557e-09
-4.80458e-05
-1.69696e-06
2.26808e-06
2.47973e-09
-6.12631e-06
7.70045e-06
-2.28641e-09
-1.27075e-05
1.23074e-05
-1.26516e-10
-2.08408e-05
1.56484e-05
7.51599e-11
-2.99394e-05
1.7721e-05
-1.34326e-10
-3.94464e-05
1.86233e-05
-1.24625e-10
-4.88346e-05
1.84592e-05
-1.3471e-10
-5.76112e-05
1.73214e-05
-1.92258e-10
-6.53421e-05
1.53335e-05
-2.59129e-10
1.27169e-05
-1.6101e-10
-7.17074e-05
-2.49198e-06
4.75644e-06
3.61666e-09
-8.49779e-06
1.37095e-05
-3.21117e-09
-1.70557e-05
2.08653e-05
-6.44779e-12
-2.73754e-05
2.59679e-05
2.64804e-10
-3.87552e-05
2.91008e-05
-1.0133e-10
-5.05411e-05
3.04094e-05
-1.42057e-10
-6.21003e-05
3.00186e-05
-1.81419e-10
-7.28181e-05
2.80394e-05
-2.86224e-10
-8.21284e-05
2.46443e-05
-4.84828e-10
2.01834e-05
-4.26536e-10
-8.95945e-05
-3.05488e-06
7.8069e-06
4.42168e-09
-1.02135e-05
2.08719e-05
-3.77496e-09
-2.0217e-05
3.08684e-05
4.06608e-10
-3.21157e-05
3.78656e-05
9.07063e-10
-4.51181e-05
4.21028e-05
5.43592e-10
-5.85031e-05
4.37938e-05
5.2023e-10
-7.156e-05
4.30751e-05
4.64935e-10
-8.35669e-05
4.0046e-05
2.69938e-10
-9.3812e-05
3.48897e-05
-3.08977e-10
2.80603e-05
-5.95401e-10
-0.000101688
-3.3605e-06
1.11626e-05
4.78896e-09
-1.11666e-05
2.86822e-05
-4.18488e-09
-2.19894e-05
4.16907e-05
5.35078e-10
-3.47805e-05
5.06555e-05
1.1567e-09
-4.8695e-05
5.60165e-05
7.99662e-10
-6.29753e-05
5.80733e-05
7.97163e-10
-7.68627e-05
5.69617e-05
7.8144e-10
-8.95446e-05
5.27273e-05
6.28513e-10
-0.000100142
4.54874e-05
-5.25802e-10
3.56907e-05
-1.64378e-09
-0.000107771
-3.39981e-06
1.4557e-05
5.46581e-09
-1.13069e-05
3.65936e-05
-4.31044e-09
-2.22596e-05
5.26428e-05
5.71375e-10
-3.51816e-05
6.35763e-05
1.26634e-09
-4.92151e-05
7.0049e-05
9.65076e-10
-6.36003e-05
7.24575e-05
1.0054e-09
-7.75711e-05
7.09313e-05
1.11813e-09
-9.02633e-05
6.54182e-05
1.34549e-09
-0.000100632
5.58573e-05
-6.8643e-10
4.24253e-05
-4.16406e-09
-0.000107363
-3.17905e-06
1.77316e-05
4.42229e-09
-1.06407e-05
4.40594e-05
-4.11867e-09
-2.10127e-05
6.30142e-05
5.23922e-10
-3.32525e-05
7.58148e-05
1.23365e-09
-4.65185e-05
8.3314e-05
1.00935e-09
-6.00738e-05
8.60118e-05
1.02992e-09
-7.31873e-05
8.40437e-05
1.17118e-09
-8.50148e-05
7.72435e-05
2.08807e-09
-9.44255e-05
6.52701e-05
-2.01019e-09
4.7534e-05
-1.44835e-08
-9.95198e-05
-2.72964e-06
2.04575e-05
3.71084e-09
-9.25275e-06
5.05863e-05
-3.72414e-09
-1.83782e-05
7.21393e-05
3.61714e-10
-2.91322e-05
8.65678e-05
1.03448e-09
-4.06883e-05
9.48691e-05
9.50399e-10
-5.2316e-05
9.76384e-05
1.03309e-09
-6.33208e-05
9.50471e-05
1.39436e-09
-7.29349e-05
8.68527e-05
4.90082e-09
-8.01233e-05
7.2457e-05
1.4558e-09
4.98735e-05
-3.25072e-08
-8.24303e-05
-2.11587e-06
2.69449e-09
2.25707e-05
-7.3318e-06
-3.21271e-09
5.58054e-05
-1.46878e-05
5.42056e-11
7.94953e-05
-2.32834e-05
5.87376e-10
9.51628e-05
-3.22631e-05
6.2616e-10
0.000103848
-4.08009e-05
9.25076e-10
0.000106175
-4.80832e-05
1.97652e-09
0.000102327
-5.32243e-05
1.22138e-08
9.19816e-05
-5.5064e-05
2.85674e-08
7.42681e-05
-9.78401e-09
-5.2012e-05
4.68313e-05
1.5387e-07
-1.53981e-07
-5.41803e-07
6.93911e-07
-2.06819e-06
1.52378e-06
-4.17843e-06
2.10691e-06
-6.63647e-06
2.45428e-06
-9.24784e-06
2.60742e-06
-1.18524e-05
2.6006e-06
-1.43114e-05
2.4552e-06
-1.65037e-05
2.18882e-06
1.83025e-06
-1.83368e-05
-7.25384e-07
5.72816e-07
-3.29342e-06
3.26152e-06
-7.49253e-06
5.72437e-06
-1.28987e-05
7.51548e-06
-1.9064e-05
8.62231e-06
-2.55696e-05
9.11613e-06
-3.20362e-05
9.07029e-06
-3.81215e-05
8.54346e-06
-4.35307e-05
7.60055e-06
6.34983e-06
-4.80481e-05
-1.69155e-06
2.26685e-06
-6.12555e-06
7.69324e-06
-1.27067e-05
1.23054e-05
-2.08398e-05
1.56487e-05
-2.99389e-05
1.77213e-05
-3.94464e-05
1.86235e-05
-4.8835e-05
1.84588e-05
-5.76119e-05
1.73201e-05
-6.53426e-05
1.5331e-05
1.27146e-05
-7.17075e-05
-2.48515e-06
4.75562e-06
-8.49893e-06
1.37038e-05
-1.70569e-05
2.08634e-05
-2.73757e-05
2.59677e-05
-3.87553e-05
2.91008e-05
-5.05413e-05
3.04092e-05
-6.21006e-05
3.0018e-05
-7.28184e-05
2.80376e-05
-8.21281e-05
2.46402e-05
2.01794e-05
-8.95933e-05
-3.04633e-06
7.80637e-06
-1.02149e-05
2.08686e-05
-2.02187e-05
3.08676e-05
-3.21161e-05
3.7866e-05
-4.51182e-05
4.21035e-05
-5.85031e-05
4.37946e-05
-7.15602e-05
4.30756e-05
-8.35675e-05
4.00451e-05
-9.38118e-05
3.48842e-05
2.80531e-05
-0.000101686
-3.35095e-06
1.11621e-05
-1.11681e-05
2.86816e-05
-2.19911e-05
4.16911e-05
-3.47807e-05
5.06567e-05
-4.86946e-05
5.60183e-05
-6.29745e-05
5.80753e-05
-7.68622e-05
5.6964e-05
-8.95452e-05
5.27288e-05
-0.000100142
4.54803e-05
3.5676e-05
-0.000107766
-3.38986e-06
1.45574e-05
-1.13083e-05
3.65957e-05
-2.2261e-05
5.26444e-05
-3.51812e-05
6.35782e-05
-4.92136e-05
7.00517e-05
-6.35981e-05
7.24609e-05
-7.75689e-05
7.09359e-05
-9.02634e-05
6.54246e-05
-0.000100634
5.58499e-05
4.23929e-05
-0.000107355
-3.1701e-06
1.7732e-05
-1.0642e-05
4.40635e-05
-2.10137e-05
6.30166e-05
-3.32514e-05
7.5817e-05
-4.65158e-05
8.33171e-05
-6.00698e-05
8.60159e-05
-7.31829e-05
8.40502e-05
-8.50147e-05
7.72585e-05
-9.44383e-05
6.52715e-05
4.74512e-05
-9.95111e-05
-2.72221e-06
2.04579e-05
-9.25406e-06
5.05917e-05
-1.8379e-05
7.21419e-05
-2.91304e-05
8.65695e-05
-4.06836e-05
9.48713e-05
-5.23076e-05
9.76409e-05
-6.33065e-05
9.50504e-05
-7.29152e-05
8.68721e-05
-8.01473e-05
7.2505e-05
4.97559e-05
-8.24845e-05
-2.11047e-06
2.2571e-05
-7.33341e-06
5.58114e-05
-1.46892e-05
7.94978e-05
-2.32825e-05
9.51634e-05
-3.22584e-05
0.000103848
-4.07891e-05
0.000106173
-4.80545e-05
0.000102318
-5.31359e-05
9.19658e-05
-5.49229e-05
7.43206e-05
-5.22406e-05
4.70638e-05
-1.97692e-05
1.43026e-06
2.1719e-09
-2.08222e-05
1.05148e-06
1.52099e-09
-2.15586e-05
7.35334e-07
1.00847e-09
-2.20554e-05
4.96206e-07
6.37917e-10
-2.23861e-05
3.30283e-07
3.92522e-10
-2.26118e-05
2.25456e-07
2.449e-10
-2.27803e-05
1.68343e-07
1.68021e-10
-2.29282e-05
1.47699e-07
1.4205e-10
-2.30834e-05
1.55127e-07
1.5319e-10
-2.32679e-05
1.84231e-07
1.92811e-10
-2.34971e-05
2.29023e-07
2.54597e-10
-2.37794e-05
2.81915e-07
3.32074e-10
-2.41113e-05
3.31534e-07
4.1556e-10
-2.44724e-05
3.60593e-07
4.88749e-10
-2.48173e-05
3.44406e-07
5.24973e-10
-2.50689e-05
2.51108e-07
4.80606e-10
-2.51155e-05
4.62741e-08
3.01159e-10
-2.48126e-05
-3.02863e-07
-4.65992e-11
-2.40078e-05
-8.04121e-07
-6.58478e-10
-1.43206e-06
-1.57964e-09
-2.25742e-05
-5.15852e-05
4.96928e-06
-1.93399e-09
-5.4202e-05
3.66986e-06
-1.61509e-09
-5.60524e-05
2.58708e-06
-1.2783e-09
-5.7321e-05
1.76572e-06
-9.77616e-10
-5.81811e-05
1.19118e-06
-7.32202e-10
-5.87775e-05
8.22329e-07
-5.51684e-10
-5.92225e-05
6.13829e-07
-4.35891e-10
-5.96013e-05
5.26857e-07
-3.77015e-10
-5.9977e-05
5.31222e-07
-3.64858e-10
-6.03952e-05
6.02749e-07
-3.87406e-10
-6.0884e-05
7.18293e-07
-4.29723e-10
-6.14512e-05
8.49632e-07
-4.72524e-10
-6.20762e-05
9.56995e-07
-4.89057e-10
-6.26983e-05
9.83159e-07
-4.43767e-10
-6.32036e-05
8.49918e-07
-2.93091e-10
-6.34126e-05
4.60133e-07
8.31409e-12
-6.30769e-05
-2.89888e-07
4.90382e-10
-6.18964e-05
-1.48453e-06
1.14162e-09
-5.95583e-05
-3.14418e-06
1.9219e-09
-5.1747e-06
2.65575e-09
-5.58183e-05
-7.65894e-05
9.85141e-06
-2.33912e-10
-8.01201e-05
7.20093e-06
-4.12615e-10
-8.2565e-05
5.03242e-06
-4.54193e-10
-8.42119e-05
3.4131e-06
-4.32896e-10
-8.53134e-05
2.29301e-06
-3.70705e-10
-8.60679e-05
1.57714e-06
-2.96438e-10
-8.6623e-05
1.16911e-06
-2.29133e-10
-8.70853e-05
9.89363e-07
-1.75861e-10
-8.7531e-05
9.77089e-07
-1.37074e-10
-8.80122e-05
1.08403e-06
-1.10748e-10
-8.85584e-05
1.26461e-06
-9.24255e-11
-8.91733e-05
1.46458e-06
-7.6438e-11
-8.98254e-05
1.60919e-06
-5.6084e-11
-9.04347e-05
1.59243e-06
-2.2739e-11
-9.0855e-05
1.27019e-06
3.45469e-11
-9.08579e-05
4.62975e-07
1.24958e-10
-9.01247e-05
-1.02336e-06
2.43234e-10
-8.82591e-05
-3.35054e-06
3.81533e-10
-8.48363e-05
-6.56751e-06
5.23726e-10
-1.05049e-05
4.43504e-10
-7.95065e-05
-9.50682e-05
1.53267e-05
-3.74738e-10
-9.88208e-05
1.09542e-05
-6.08937e-10
-0.000101282
7.49431e-06
-6.06446e-10
-0.000102858
4.98952e-06
-5.40134e-10
-0.000103865
3.30063e-06
-4.3071e-10
-0.000104528
2.24058e-06
-3.19083e-10
-0.000105
1.64058e-06
-2.26416e-10
-0.000105381
1.37072e-06
-1.5623e-10
-0.00010574
1.33652e-06
-1.0585e-10
-0.000106122
1.46603e-06
-7.17127e-11
-0.000106551
1.69364e-06
-4.99951e-11
-0.000107029
1.94294e-06
-3.65975e-11
-0.000107529
2.10912e-06
-2.7946e-11
-0.000107979
2.04222e-06
-1.83798e-11
-0.000108243
1.53418e-06
6.26096e-12
-0.000108097
3.1663e-07
6.14929e-11
-0.000107204
-1.91568e-06
1.2964e-10
-0.00010511
-5.44488e-06
2.58483e-10
-0.000101271
-1.0407e-05
5.05686e-10
-1.66043e-05
4.44383e-10
-9.51725e-05
-0.000106981
2.06222e-05
-1.02833e-09
-0.000110224
1.41987e-05
-1.15537e-09
-0.000112105
9.37625e-06
-9.37407e-10
-0.000113165
6.05079e-06
-7.33625e-10
-0.000113763
3.89836e-06
-5.17163e-10
-0.000114111
2.58919e-06
-3.40423e-10
-0.000114333
1.86302e-06
-2.17779e-10
-0.000114499
1.5371e-06
-1.38338e-10
-0.000114651
1.48802e-06
-9.04687e-11
-0.000114812
1.6278e-06
-6.49477e-11
-0.000114999
1.88049e-06
-5.53433e-11
-0.000115216
2.15973e-06
-5.75178e-11
-0.000115453
2.34613e-06
-6.82379e-11
-0.000115674
2.26387e-06
-8.12096e-11
-0.000115798
1.65818e-06
-7.18272e-11
-0.00011566
1.78539e-07
-5.54169e-12
-0.000114968
-2.60819e-06
6.27263e-11
-0.000113244
-7.16852e-06
2.55017e-10
-0.000109807
-1.3845e-05
8.93094e-10
-2.25572e-05
1.28063e-09
-0.000103856
-0.000112023
2.48813e-05
-2.20146e-09
-0.000113967
1.61439e-05
-1.88102e-09
-0.000114685
1.00957e-05
-1.17993e-09
-0.00011485
6.21629e-06
-7.9069e-10
-0.000114803
3.85189e-06
-4.65717e-10
-0.000114694
2.48019e-06
-2.45955e-10
-0.000114575
1.74511e-06
-1.22006e-10
-0.000114461
1.42285e-06
-5.62354e-11
-0.000114349
1.37581e-06
-2.4077e-11
-0.000114235
1.51422e-06
-1.18623e-11
-0.000114121
1.76633e-06
-1.2665e-11
-0.000114014
2.053e-06
-2.40496e-11
-0.000113931
2.26266e-06
-4.62177e-11
-0.00011389
2.22305e-06
-7.83181e-11
-0.000113899
1.66749e-06
-9.73204e-11
-0.000113915
1.94683e-07
-5.85454e-11
-0.00011377
-2.7533e-06
-3.20246e-11
-0.000113049
-7.8903e-06
1.40679e-10
-0.000110939
-1.59558e-05
1.54007e-09
-2.7322e-05
3.26125e-09
-0.000106178
-0.000109522
2.70546e-05
-5.86359e-09
-0.000109313
1.59386e-05
-3.87492e-09
-0.00010838
9.1647e-06
-1.79279e-09
-0.000107428
5.26481e-06
-9.34982e-10
-0.000106662
3.08646e-06
-3.97698e-10
-0.000106088
1.90651e-06
-1.23345e-10
-0.00010565
1.30669e-06
-1.54864e-11
-0.000105283
1.05645e-06
1.98471e-11
-0.000104937
1.02952e-06
2.41026e-11
-0.000104575
1.15236e-06
1.42032e-11
-0.000104181
1.37195e-06
-4.25489e-12
-0.00010376
1.63229e-06
-3.07886e-11
-0.000103349
1.85194e-06
-6.67162e-11
-0.000103022
1.89625e-06
-1.15291e-10
-0.000102892
1.53714e-06
-1.52316e-10
-0.000103087
3.89808e-07
-7.8859e-11
-0.00010367
-2.17038e-06
9.22718e-11
-0.000104455
-7.10601e-06
4.66047e-10
-0.000104642
-1.57719e-05
3.72832e-09
-2.96555e-05
8.97128e-09
-0.000102318
-9.8112e-05
2.56654e-05
-9.96296e-09
-9.49462e-05
1.27768e-05
-4.05221e-09
-9.21886e-05
6.40798e-06
-8.248e-10
-9.02303e-05
3.30675e-06
-3.13705e-10
-8.89308e-05
1.78695e-06
3.98463e-11
-8.8069e-05
1.04457e-06
1.64228e-10
-8.74596e-05
6.97133e-07
1.55296e-10
-8.69689e-05
5.65611e-07
1.27665e-10
-8.6505e-05
5.65517e-07
1.05769e-10
-8.60072e-05
6.54507e-07
9.0366e-11
-8.54417e-05
8.06348e-07
7.76127e-11
-8.48046e-05
9.95141e-07
6.1627e-11
-8.41339e-05
1.1812e-06
3.30798e-11
-8.35296e-05
1.29196e-06
-3.43387e-11
-8.31807e-05
1.18837e-06
-1.32974e-10
-8.33876e-05
5.96728e-07
-4.39936e-11
-8.45258e-05
-1.03232e-06
1.23704e-10
-8.69094e-05
-4.72186e-06
-4.62393e-10
-9.02059e-05
-1.24787e-05
3.29631e-09
-2.79166e-05
1.43354e-08
-9.19591e-05
-7.49335e-05
1.81269e-05
-1.24493e-08
-6.86278e-05
6.46561e-06
5.51403e-09
-6.47458e-05
2.5198e-06
6.17625e-09
-6.25091e-05
1.06739e-06
2.63907e-09
-6.12205e-05
4.9695e-07
1.36595e-09
-6.0443e-05
2.66279e-07
8.29274e-10
-5.99218e-05
1.75407e-07
5.21833e-10
-5.95065e-05
1.49883e-07
3.95844e-10
-5.91034e-05
1.621e-07
3.80668e-10
-5.8651e-05
2.01611e-07
4.2834e-10
-5.81091e-05
2.6393e-07
5.1395e-10
-5.746e-05
3.45447e-07
6.15881e-10
-5.6719e-05
4.39548e-07
6.95997e-10
-5.59583e-05
5.30568e-07
6.56387e-10
-5.53505e-05
5.80221e-07
3.71913e-10
-5.52533e-05
4.99631e-07
-9.17932e-11
-5.62489e-05
-3.50799e-08
-1.6632e-09
-5.93784e-05
-1.5847e-06
-7.67431e-09
-6.57326e-05
-6.11413e-06
-1.04185e-08
-1.93584e-05
1.5496e-08
-7.43062e-05
-3.40446e-05
-6.90781e-08
-2.75672e-05
-1.17621e-08
-2.50466e-05
-8.55593e-10
-2.39773e-05
-1.89056e-09
-2.34791e-05
-1.2291e-09
-2.32122e-05
-5.78306e-10
-2.30365e-05
-3.27861e-10
-2.28864e-05
-2.3289e-10
-2.27241e-05
-2.06853e-10
-2.25223e-05
-2.27815e-10
-2.2258e-05
-2.81876e-10
-2.19122e-05
-3.5561e-10
-2.14723e-05
-4.29938e-10
-2.09412e-05
-4.71142e-10
-2.03606e-05
-3.63215e-10
-1.98612e-05
2.08935e-10
-1.98971e-05
7.70435e-10
-2.14792e-05
-2.5551e-09
-2.75984e-05
5.07473e-09
8.73951e-08
-4.70442e-05
-1.97698e-05
1.43459e-06
-8.29252e-14
-2.08227e-05
1.05441e-06
-2.17238e-14
-2.15589e-05
7.37223e-07
-3.32866e-14
-2.20557e-05
4.97365e-07
-2.56408e-14
-2.23863e-05
3.30978e-07
-1.06143e-13
-2.26119e-05
2.25889e-07
-1.97012e-13
-2.27804e-05
1.68656e-07
-1.59572e-13
-2.29282e-05
1.4799e-07
-4.55017e-14
-2.30835e-05
1.55465e-07
8.04417e-14
-2.3268e-05
1.84666e-07
6.37454e-14
-2.34973e-05
2.29589e-07
-1.9449e-14
-2.37796e-05
2.82631e-07
-1.12788e-13
-2.41116e-05
3.32392e-07
-1.13994e-13
-2.44727e-05
3.61548e-07
6.09002e-14
-2.48175e-05
3.45368e-07
9.91735e-14
-2.5069e-05
2.51936e-07
6.02131e-14
-2.51152e-05
4.6521e-08
5.81896e-14
-2.48122e-05
-3.03081e-07
7.81626e-14
-2.40074e-05
-8.05438e-07
1.64172e-13
-1.43509e-06
3.76679e-13
-2.25739e-05
-5.15827e-05
4.96956e-06
-1.93988e-13
-5.41994e-05
3.66953e-06
-1.75708e-13
-5.60501e-05
2.58664e-06
5.24136e-15
-5.7319e-05
1.76532e-06
4.18805e-14
-5.81797e-05
1.19089e-06
-1.38194e-13
-5.87765e-05
8.22133e-07
-1.09321e-13
-5.92219e-05
6.13706e-07
1.16127e-14
-5.96011e-05
5.2677e-07
2.31227e-14
-5.99771e-05
5.31135e-07
-6.4513e-15
-6.03955e-05
6.02623e-07
1.81318e-15
-6.08844e-05
7.18089e-07
-1.88701e-13
-6.14516e-05
8.49315e-07
-1.8628e-13
-6.20762e-05
9.56539e-07
-2.46142e-14
-6.26977e-05
9.82574e-07
8.0878e-14
-6.32019e-05
8.49283e-07
8.16206e-14
-6.34096e-05
4.59622e-07
4.90042e-14
-6.30725e-05
-2.90035e-07
3.80286e-14
-6.18907e-05
-1.48376e-06
1.03587e-13
-5.9552e-05
-3.1422e-06
2.83914e-13
-5.17216e-06
5.00758e-13
-5.58123e-05
-7.65886e-05
9.85053e-06
-1.01277e-13
-8.01186e-05
7.19907e-06
1.7247e-14
-8.25632e-05
5.03078e-06
4.49814e-14
-8.42101e-05
3.41187e-06
6.73789e-14
-8.53118e-05
2.29222e-06
9.64053e-14
-8.60667e-05
1.57669e-06
-8.68263e-14
-8.66221e-05
1.16888e-06
-1.66541e-13
-8.70847e-05
9.89236e-07
-4.79647e-14
-8.75307e-05
9.76985e-07
5.65787e-14
-8.80121e-05
1.08387e-06
2.20554e-13
-8.85584e-05
1.26433e-06
1.07224e-13
-8.91733e-05
1.46411e-06
-3.07491e-14
-8.98253e-05
1.60847e-06
7.27205e-15
-9.04342e-05
1.59145e-06
5.14332e-14
-9.08539e-05
1.26906e-06
4.2399e-14
-9.08561e-05
4.61952e-07
3.45177e-14
-9.0122e-05
-1.02386e-06
3.5926e-14
-8.82557e-05
-3.34968e-06
1.15196e-13
-8.4833e-05
-6.56441e-06
2.86816e-13
-1.05009e-05
3.79795e-13
-7.95038e-05
-9.50678e-05
1.53234e-05
-6.27775e-14
-9.88191e-05
1.09498e-05
3.37725e-14
-0.00010128
7.49098e-06
-1.23542e-14
-0.000102856
4.98727e-06
-3.63267e-15
-0.000103863
3.29929e-06
1.33078e-13
-0.000104527
2.23988e-06
-1.89791e-13
-0.000104998
1.64026e-06
-1.89963e-13
-0.00010538
1.37059e-06
4.37756e-14
-0.00010574
1.33646e-06
2.29127e-13
-0.000106122
1.46593e-06
8.58864e-14
-0.000106551
1.6934e-06
-5.11463e-14
-0.000107029
1.94247e-06
-1.39009e-13
-0.000107529
2.10834e-06
-9.97411e-14
-0.000107979
2.04106e-06
-5.70719e-14
-0.000108242
1.53273e-06
-3.69409e-14
-0.000108096
3.15274e-07
-5.19432e-14
-0.000107203
-1.91667e-06
-5.60295e-14
-0.000105108
-5.44415e-06
5.83466e-14
-0.000101269
-1.04025e-05
2.45455e-13
-1.65981e-05
3.13325e-13
-9.51717e-05
-0.000106979
2.06135e-05
-8.18949e-14
-0.000110221
1.41898e-05
4.25618e-14
-0.000112101
9.37082e-06
2.40428e-14
-0.000113162
6.04758e-06
-1.42866e-13
-0.00011376
3.89667e-06
-1.24999e-13
-0.000114109
2.58843e-06
-2.05433e-13
-0.000114332
1.86274e-06
-6.34213e-14
-0.000114498
1.53703e-06
-2.76441e-14
-0.00011465
1.48802e-06
5.68918e-14
-0.000114812
1.62774e-06
2.06537e-14
-0.000114999
1.88027e-06
-6.24708e-14
-0.000115216
2.15926e-06
-9.75352e-14
-0.000115453
2.34529e-06
-8.05357e-14
-0.000115674
2.26254e-06
-6.16913e-14
-0.000115798
1.65636e-06
-4.56783e-14
-0.00011566
1.76903e-07
-7.72842e-14
-0.000114966
-2.60999e-06
-8.68197e-14
-0.000113242
-7.16832e-06
5.42547e-14
-0.000109805
-1.38383e-05
2.14793e-13
-2.25461e-05
1.74542e-13
-0.000103856
-0.00011202
2.4861e-05
-3.15865e-14
-0.000113961
1.61285e-05
-3.41853e-14
-0.00011468
1.00887e-05
-5.82371e-14
-0.000114846
6.21302e-06
-1.21821e-13
-0.0001148
3.85053e-06
-1.72431e-14
-0.000114692
2.47978e-06
-1.65133e-13
-0.000114574
1.74509e-06
-2.02134e-13
-0.00011446
1.42295e-06
-1.21088e-13
-0.000114348
1.3759e-06
-7.00662e-14
-0.000114235
1.51423e-06
-1.37483e-14
-0.000114121
1.76619e-06
-1.04059e-14
-0.000114014
2.0526e-06
-5.09917e-14
-0.000113931
2.26187e-06
-6.95252e-14
-0.00011389
2.22169e-06
-3.59669e-14
-0.000113899
1.66544e-06
-4.128e-15
-0.000113915
1.92677e-07
-2.02675e-14
-0.000113769
-2.7563e-06
-4.53848e-15
-0.000113045
-7.89162e-06
6.98343e-14
-0.000110936
-1.59456e-05
7.56396e-14
-2.7299e-05
8.54069e-14
-0.00010618
-0.000109515
2.70068e-05
-4.17524e-14
-0.000109303
1.59126e-05
-1.7147e-13
-0.000108373
9.15774e-06
-1.35964e-13
-0.000107424
5.26287e-06
-1.11001e-13
-0.00010666
3.08617e-06
-3.52236e-14
-0.000106087
1.90678e-06
-2.94364e-14
-0.000105649
1.307e-06
3.2756e-15
-0.000105283
1.05668e-06
9.98201e-14
-0.000104937
1.02966e-06
1.71896e-13
-0.000104575
1.15238e-06
1.48607e-13
-0.00010418
1.37181e-06
5.98686e-14
-0.00010376
1.63192e-06
1.83165e-14
-0.000103349
1.8512e-06
8.48205e-14
-0.000103023
1.89489e-06
1.71004e-13
-0.000102892
1.53494e-06
1.93188e-13
-0.000103087
3.87163e-07
1.4264e-13
-0.000103668
-2.17448e-06
9.57678e-14
-0.00010445
-7.10915e-06
1.2065e-13
-0.000104638
-1.57545e-05
1.06275e-13
-2.96006e-05
1.595e-13
-0.000102327
-9.80974e-05
2.55744e-05
-2.70555e-13
-9.49356e-05
1.27468e-05
-2.25012e-13
-9.21851e-05
6.40637e-06
-1.10619e-13
-9.02299e-05
3.30743e-06
-1.09144e-13
-8.89313e-05
1.78757e-06
-1.14101e-13
-8.80694e-05
1.04511e-06
-1.32461e-13
-8.74598e-05
6.97477e-07
3.94174e-14
-8.69688e-05
5.65798e-07
1.98046e-13
-8.65046e-05
5.65607e-07
2.2497e-13
-8.60066e-05
6.54522e-07
1.27619e-13
-8.5441e-05
8.06284e-07
7.87955e-14
-8.4804e-05
9.94962e-07
1.34927e-13
-8.41336e-05
1.18083e-06
1.98969e-13
-8.35299e-05
1.2912e-06
1.95499e-13
-8.3182e-05
1.18689e-06
1.13179e-13
-8.33894e-05
5.94524e-07
3.25992e-14
-8.45293e-05
-1.03448e-06
3.25956e-14
-8.6912e-05
-4.72689e-06
-2.15997e-14
-9.02035e-05
-1.24597e-05
-9.87998e-14
-2.7815e-05
3.42168e-14
-9.19748e-05
-7.49149e-05
1.80465e-05
-2.7911e-13
-6.86353e-05
6.47281e-06
-1.72942e-13
-6.47545e-05
2.53174e-06
1.16967e-14
-6.25155e-05
1.07102e-06
-2.04187e-14
-6.12242e-05
4.97658e-07
-7.23945e-14
-6.04448e-05
2.66516e-07
2.05065e-15
-5.99224e-05
1.75605e-07
1.17193e-13
-5.95063e-05
1.50131e-07
1.72714e-13
-5.91028e-05
1.62453e-07
1.13039e-13
-5.865e-05
2.02124e-07
6.59805e-14
-5.81078e-05
2.64668e-07
1.32466e-13
-5.74588e-05
3.46488e-07
2.39641e-13
-5.67182e-05
4.40984e-07
2.72828e-13
-5.59589e-05
5.32519e-07
1.95586e-13
-5.53543e-05
5.8264e-07
7.77959e-14
-5.52597e-05
4.99865e-07
1.29698e-13
-5.6264e-05
-3.18168e-08
1.7927e-13
-5.94049e-05
-1.59372e-06
-2.55967e-14
-6.57485e-05
-6.12644e-06
-2.74569e-13
-1.92944e-05
-1.71688e-13
-7.42537e-05
-3.40345e-05
-2.19795e-13
-2.75735e-05
-4.48367e-14
-2.50426e-05
1.46973e-13
-2.39735e-05
1.40917e-13
-2.3477e-05
1.38606e-13
-2.32111e-05
1.95661e-13
-2.30358e-05
2.09343e-13
-2.28859e-05
1.4632e-13
-2.27237e-05
7.31916e-14
-2.25218e-05
9.5381e-14
-2.22574e-05
2.26573e-13
-2.19113e-05
3.42813e-13
-2.14707e-05
3.11089e-13
-2.09387e-05
1.22337e-13
-2.03564e-05
9.32173e-14
-1.98563e-05
3.43071e-13
-1.98874e-05
3.2762e-13
-2.14836e-05
-2.78004e-13
-2.7605e-05
-5.67535e-13
-3.14184e-13
-4.6812e-05
-1.97698e-05
1.43459e-06
-2.17219e-09
-2.08227e-05
1.0544e-06
-1.52124e-09
-2.15589e-05
7.37223e-07
-1.00872e-09
-2.20557e-05
4.97365e-07
-6.38285e-10
-2.23863e-05
3.30978e-07
-3.92886e-10
-2.26119e-05
2.25889e-07
-2.45095e-10
-2.27804e-05
1.68656e-07
-1.68185e-10
-2.29282e-05
1.4799e-07
-1.42258e-10
-2.30835e-05
1.55465e-07
-1.53495e-10
-2.3268e-05
1.84666e-07
-1.93091e-10
-2.34973e-05
2.29588e-07
-2.54601e-10
-2.37796e-05
2.82631e-07
-3.32037e-10
-2.41116e-05
3.32392e-07
-4.15549e-10
-2.44727e-05
3.61548e-07
-4.88856e-10
-2.48175e-05
3.45368e-07
-5.24946e-10
-2.5069e-05
2.51936e-07
-4.8045e-10
-2.51152e-05
4.65209e-08
-3.00891e-10
-2.48122e-05
-3.03081e-07
4.70626e-11
-2.40074e-05
-8.05437e-07
6.59128e-10
-1.43509e-06
1.58038e-09
-2.25739e-05
-5.15827e-05
4.96956e-06
1.93375e-09
-5.41994e-05
3.66953e-06
1.61494e-09
-5.60501e-05
2.58664e-06
1.27795e-09
-5.7319e-05
1.76532e-06
9.77255e-10
-5.81797e-05
1.19089e-06
7.32053e-10
-5.87765e-05
8.22133e-07
5.51509e-10
-5.92219e-05
6.13706e-07
4.35533e-10
-5.96011e-05