/*--------------------------------*- C++ -*----------------------------------*\
| =========                 |                                                 |
| \\      /  F ield         | OpenFOAM: The Open Source CFD Toolbox           |
|  \\    /   O peration     | Version:  2.4.0                                 |
|   \\  /    A nd           | Web:      www.OpenFOAM.org                      |
|    \\/     M anipulation  |                                                 |
\*---------------------------------------------------------------------------*/
FoamFile
{
    version     2.0;
    format      ascii;
    class       volVectorField;
    location    "3.4";
    object      U;
}
// * * * * * * * * * * * * * * * * * * * * * * * * * * * * * * * * * * * * * //

dimensions      [0 1 -1 0 0 0 0];

internalField   nonuniform List<vector> 
4800
(
(0.000305959 -0.000309332 6.64477e-08)
(1.59618e-05 0.000157746 0.000217455)
(-0.00184612 0.00066516 0.000444932)
(-0.0048382 0.00100801 0.00061333)
(-0.0085641 0.00120252 0.000678727)
(-0.0126824 0.00128642 0.000620736)
(-0.0169099 0.00128728 0.000433078)
(-0.0210084 0.00121897 0.000116276)
(-0.0247681 0.00108887 -0.000323624)
(-0.0280118 0.000909083 -0.000873687)
(-0.000183094 -1.70177e-05 -0.000216563)
(-0.00248421 0.0023944 5.49132e-06)
(-0.00806625 0.00474536 0.000174197)
(-0.0159406 0.00644033 0.000274587)
(-0.0253628 0.00747376 0.000288552)
(-0.0356537 0.00793868 0.000200156)
(-0.046173 0.00792175 2.7018e-06)
(-0.0563403 0.00748319 -0.000306181)
(-0.065637 0.00667871 -0.000725166)
(-0.0736372 0.00559813 -0.0012477)
(-0.000779136 0.00197404 -0.000449466)
(-0.00521522 0.00809585 -0.000156172)
(-0.0142982 0.0135449 1.3445e-05)
(-0.026346 0.01753 9.22016e-05)
(-0.040356 0.0200104 8.87012e-05)
(-0.0554565 0.0211165 -5.92612e-06)
(-0.0707787 0.0209912 -0.000195982)
(-0.0854988 0.0197576 -0.000485306)
(-0.0988583 0.0175639 -0.000877043)
(-0.110222 0.0146612 -0.00137085)
(-0.00125714 0.00539123 -0.000607277)
(-0.00749398 0.0166058 -0.000227679)
(-0.0195353 0.0258773 -3.40547e-05)
(-0.0349902 0.0325665 4.68242e-05)
(-0.0526158 0.0367068 4.56344e-05)
(-0.0714063 0.0384855 -4.04851e-05)
(-0.0903371 0.0380882 -0.000214136)
(-0.108401 0.0356856 -0.000481768)
(-0.124632 0.0315212 -0.000852806)
(-0.138168 0.0260507 -0.00133562)
(-0.00158485 0.00990224 -0.000615116)
(-0.00912305 0.0273191 -0.00016058)
(-0.0233389 0.0409475 5.86301e-05)
(-0.0412753 0.0505862 0.000152065)
(-0.0614933 0.0564704 0.000166474)
(-0.0828917 0.0588809 0.00010252)
(-0.104339 0.0580309 -4.32642e-05)
(-0.124688 0.0541023 -0.000282843)
(-0.142769 0.0473983 -0.000635783)
(-0.157428 0.0385809 -0.00112606)
(-0.00175615 0.0151149 -0.000423411)
(-0.0100143 0.0394974 8.69767e-05)
(-0.0254622 0.05786 0.000327423)
(-0.0448067 0.0706126 0.000440731)
(-0.066487 0.0782876 0.000483255)
(-0.0893496 0.0812916 0.000456466)
(-0.112207 0.0798478 0.00035278)
(-0.133816 0.0740908 0.000150827)
(-0.152823 0.0642951 -0.000184733)
(-0.167658 0.0512432 -0.000708466)
(-0.00177122 0.0206049 -8.18794e-06)
(-0.0101321 0.0522845 0.000535959)
(-0.0257803 0.0755502 0.00079007)
(-0.0453458 0.0914847 0.000928424)
(-0.0672317 0.100965 0.001011)
(-0.090278 0.104547 0.00103802)
(-0.113297 0.102443 0.000994783)
(-0.135027 0.0946671 0.00084663)
(-0.154017 0.0813049 0.000536579)
(-0.168137 0.0629895 -5.13237e-05)
(-0.00163745 0.0259443 0.000630953)
(-0.00949288 0.0647875 0.00118684)
(-0.0242962 0.0928774 0.00144576)
(-0.0428411 0.111927 0.00161274)
(-0.0635645 0.123156 0.00174654)
(-0.085327 0.127281 0.00184556)
(-0.106983 0.124507 0.00188653)
(-0.127349 0.11466 0.00181953)
(-0.145109 0.0974306 0.00156523)
(-0.157535 0.0726901 0.000890266)
(-0.00137475 0.0307329 0.00147175)
(-0.00818551 0.076151 0.00202009)
(-0.0211887 0.108711 0.00227477)
(-0.0375257 0.130616 0.00247152)
(-0.0556941 0.143376 0.00266457)
(-0.0745476 0.147878 0.00285179)
(-0.0929478 0.144371 0.00300218)
(-0.109804 0.132537 0.00304986)
(-0.124321 0.111618 0.00290528)
(-0.13361 0.079884 0.00212902)
(-0.0010227 0.0346453 0.0024717)
(-0.0063959 0.0856564 0.00299872)
(-0.0168718 0.122057 0.00324026)
(-0.0300461 0.146307 0.00346376)
(-0.0444529 0.16009 0.00371766)
(-0.0588241 0.164425 0.00400426)
(-0.0718108 0.15965 0.00429443)
(-0.0820235 0.145441 0.00451836)
(-0.0891722 0.120908 0.00464421)
(-0.0922454 0.0833383 0.00404737)
(0.000310936 -0.000313848 6.93587e-08)
(2.30844e-05 0.00015187 1.37278e-06)
(-0.00184239 0.000651186 2.0291e-06)
(-0.00483559 0.000988292 2.59669e-06)
(-0.00856263 0.00117963 2.93566e-06)
(-0.0126819 0.00126199 3.0752e-06)
(-0.0169101 0.00126279 3.08311e-06)
(-0.0210095 0.00119579 2.96119e-06)
(-0.0247704 0.00106811 2.68887e-06)
(-0.0280153 0.00089138 2.24779e-06)
(-0.00017572 -2.43213e-05 -1.10264e-06)
(-0.00248118 0.00239244 3.32256e-07)
(-0.00807379 0.00473417 -1.15591e-06)
(-0.0159453 0.00642401 -1.84452e-06)
(-0.0253652 0.00745561 -2.19039e-06)
(-0.0356544 0.00791969 -2.40794e-06)
(-0.046172 0.00790289 -2.41641e-06)
(-0.0563382 0.00746551 -2.24694e-06)
(-0.0656349 0.00666307 -1.97075e-06)
(-0.073636 0.0055846 -1.70029e-06)
(-0.000763123 0.00196849 -1.93233e-06)
(-0.00520395 0.00810247 1.77761e-06)
(-0.0143051 0.0135481 9.77838e-08)
(-0.0263482 0.0175333 -5.89913e-08)
(-0.040356 0.0200157 1.03938e-07)
(-0.0554562 0.0211228 9.64585e-08)
(-0.0707778 0.0209979 1.04292e-07)
(-0.0854975 0.0197645 1.49061e-07)
(-0.098858 0.0175709 2.01115e-07)
(-0.110223 0.0146669 1.2491e-07)
(-0.00123416 0.00538642 -2.81771e-06)
(-0.00747762 0.0166099 2.49708e-06)
(-0.0195444 0.0258765 4.54415e-09)
(-0.034992 0.0325639 -2.06378e-07)
(-0.0526147 0.0367046 7.84702e-08)
(-0.0714054 0.0384838 1.10186e-07)
(-0.0903355 0.0380869 1.40721e-07)
(-0.108399 0.0356853 2.22212e-07)
(-0.124631 0.0315231 3.76727e-07)
(-0.138172 0.0260528 3.31509e-07)
(-0.00155732 0.00989932 -3.44458e-06)
(-0.0091045 0.0273215 2.93568e-06)
(-0.0233515 0.0409455 -3.16625e-07)
(-0.0412784 0.0505821 -7.05724e-07)
(-0.0614922 0.0564659 -4.23002e-07)
(-0.0828904 0.0588762 -4.04922e-07)
(-0.104337 0.0580264 -3.61975e-07)
(-0.124684 0.0540991 -2.1029e-07)
(-0.142766 0.0473997 2.40054e-07)
(-0.157436 0.0385844 4.62934e-07)
(-0.0017262 0.0151144 -3.73063e-06)
(-0.00999484 0.039499 3.25459e-06)
(-0.0254772 0.0578591 -4.16469e-07)
(-0.0448108 0.0706102 -8.99817e-07)
(-0.0664863 0.0782845 -6.22197e-07)
(-0.0893485 0.081288 -6.20305e-07)
(-0.112203 0.0798437 -6.08096e-07)
(-0.133808 0.0740872 -4.89093e-07)
(-0.152816 0.0642996 4.08805e-07)
(-0.167673 0.0512551 1.27836e-06)
(-0.00174122 0.0206061 -3.64093e-06)
(-0.0101132 0.0522848 3.3523e-06)
(-0.0257965 0.07555 -4.44619e-07)
(-0.0453508 0.0914839 -9.85084e-07)
(-0.0672317 0.100964 -7.50817e-07)
(-0.0902777 0.104544 -7.82208e-07)
(-0.113294 0.10244 -8.69865e-07)
(-0.135014 0.0946623 -1.0466e-06)
(-0.153999 0.0813156 5.3382e-07)
(-0.168166 0.0630279 3.23858e-06)
(-0.00160905 0.0259471 -3.44488e-06)
(-0.00947526 0.0647866 3.2032e-06)
(-0.0243121 0.0928782 -4.07675e-07)
(-0.0428466 0.111928 -9.59617e-07)
(-0.0635651 0.123156 -7.8515e-07)
(-0.0853277 0.12728 -8.0117e-07)
(-0.106982 0.124502 -9.11006e-07)
(-0.127326 0.114645 -1.62412e-06)
(-0.145057 0.0974265 1.56347e-06)
(-0.157582 0.0727513 1.12649e-05)
(-0.00134994 0.0307377 -2.89065e-06)
(-0.00817027 0.0761498 2.89647e-06)
(-0.0212032 0.108714 -2.81401e-07)
(-0.0375313 0.13062 -8.04574e-07)
(-0.055696 0.14338 -7.39144e-07)
(-0.0745519 0.147882 -8.03495e-07)
(-0.0929587 0.144368 -1.08452e-06)
(-0.109786 0.132504 -3.81182e-06)
(-0.124215 0.111543 -1.13234e-06)
(-0.133658 0.0798537 2.52833e-05)
(-0.00100282 0.0346513 -2.09884e-06)
(-0.00638358 0.0856549 2.49879e-06)
(-0.0168831 0.12206 -4.20658e-08)
(-0.0300502 0.146315 -4.5667e-07)
(-0.0444541 0.160103 -4.86839e-07)
(-0.0588308 0.164448 -7.19489e-07)
(-0.071844 0.159694 -1.53745e-06)
(-0.0820649 0.145507 -9.49978e-06)
(-0.0890824 0.120971 -2.22192e-05)
(-0.0923243 0.0834575 7.60973e-06)
(0.000310936 -0.000313848 -7.46416e-08)
(2.30852e-05 0.000151871 -1.376e-06)
(-0.00184239 0.000651186 -2.03065e-06)
(-0.00483559 0.000988292 -2.59748e-06)
(-0.00856263 0.00117963 -2.9363e-06)
(-0.0126819 0.00126199 -3.07588e-06)
(-0.0169101 0.00126279 -3.08383e-06)
(-0.0210095 0.00119579 -2.96194e-06)
(-0.0247704 0.00106811 -2.68956e-06)
(-0.0280152 0.00089138 -2.24836e-06)
(-0.00017572 -2.43206e-05 1.10062e-06)
(-0.00248117 0.00239244 -3.33907e-07)
(-0.00807379 0.00473417 1.15506e-06)
(-0.0159453 0.00642401 1.84396e-06)
(-0.0253652 0.00745561 2.18977e-06)
(-0.0356544 0.00791969 2.40737e-06)
(-0.046172 0.00790289 2.41579e-06)
(-0.0563382 0.00746551 2.24624e-06)
(-0.0656349 0.00666307 1.9701e-06)
(-0.073636 0.0055846 1.69977e-06)
(-0.000763123 0.00196849 1.93117e-06)
(-0.00520394 0.00810247 -1.77862e-06)
(-0.0143051 0.0135481 -9.84606e-08)
(-0.0263482 0.0175333 5.85338e-08)
(-0.040356 0.0200157 -1.04373e-07)
(-0.0554562 0.0211228 -9.68981e-08)
(-0.0707778 0.0209979 -1.04846e-07)
(-0.0854975 0.0197645 -1.49679e-07)
(-0.098858 0.0175709 -2.01727e-07)
(-0.110223 0.0146669 -1.25414e-07)
(-0.00123416 0.00538642 2.81688e-06)
(-0.00747762 0.0166099 -2.49777e-06)
(-0.0195444 0.0258765 -5.03118e-09)
(-0.034992 0.0325639 2.06065e-07)
(-0.0526147 0.0367046 -7.86931e-08)
(-0.0714054 0.0384838 -1.10452e-07)
(-0.0903355 0.0380869 -1.41203e-07)
(-0.108399 0.0356853 -2.22784e-07)
(-0.124631 0.0315231 -3.77263e-07)
(-0.138172 0.0260528 -3.31873e-07)
(-0.00155732 0.00989932 3.44417e-06)
(-0.0091045 0.0273215 -2.93618e-06)
(-0.0233515 0.0409455 3.16315e-07)
(-0.0412784 0.0505821 7.05647e-07)
(-0.0614922 0.0564659 4.22867e-07)
(-0.0828904 0.0588762 4.04558e-07)
(-0.104337 0.0580264 3.61423e-07)
(-0.124684 0.0540991 2.09777e-07)
(-0.142766 0.0473997 -2.40426e-07)
(-0.157436 0.0385844 -4.63157e-07)
(-0.0017262 0.0151144 3.73034e-06)
(-0.00999484 0.039499 -3.25488e-06)
(-0.0254772 0.0578591 4.16257e-07)
(-0.0448108 0.0706102 8.99759e-07)
(-0.0664863 0.0782845 6.21937e-07)
(-0.0893485 0.081288 6.19855e-07)
(-0.112203 0.0798437 6.07626e-07)
(-0.133808 0.0740872 4.88724e-07)
(-0.152816 0.0642996 -4.09013e-07)
(-0.167673 0.0512551 -1.27848e-06)
(-0.00174122 0.0206061 3.64083e-06)
(-0.0101132 0.0522848 -3.35249e-06)
(-0.0257965 0.07555 4.44427e-07)
(-0.0453508 0.0914839 9.84924e-07)
(-0.0672317 0.100964 7.50522e-07)
(-0.0902777 0.104544 7.8185e-07)
(-0.113294 0.10244 8.69563e-07)
(-0.135014 0.0946623 1.04641e-06)
(-0.153999 0.0813156 -5.33916e-07)
(-0.168166 0.0630279 -3.23866e-06)
(-0.00160905 0.0259471 3.44485e-06)
(-0.00947526 0.0647866 -3.20339e-06)
(-0.0243121 0.0928782 4.07495e-07)
(-0.0428466 0.111928 9.59483e-07)
(-0.0635651 0.123156 7.85e-07)
(-0.0853277 0.12728 8.00999e-07)
(-0.106982 0.124502 9.10875e-07)
(-0.127326 0.114645 1.62403e-06)
(-0.145057 0.0974265 -1.56353e-06)
(-0.157582 0.0727513 -1.1265e-05)
(-0.00134994 0.0307377 2.89064e-06)
(-0.00817027 0.0761498 -2.89656e-06)
(-0.0212032 0.108714 2.81295e-07)
(-0.0375313 0.13062 8.04594e-07)
(-0.055696 0.14338 7.39238e-07)
(-0.0745519 0.147882 8.03526e-07)
(-0.0929587 0.144368 1.08452e-06)
(-0.109786 0.132504 3.81173e-06)
(-0.124215 0.111543 1.13214e-06)
(-0.133658 0.0798537 -2.52836e-05)
(-0.00100282 0.0346513 2.09892e-06)
(-0.00638358 0.0856549 -2.49875e-06)
(-0.0168831 0.12206 4.21497e-08)
(-0.0300502 0.146315 4.56922e-07)
(-0.0444541 0.160103 4.87084e-07)
(-0.0588308 0.164448 7.19532e-07)
(-0.071844 0.159694 1.53734e-06)
(-0.0820649 0.145507 9.49962e-06)
(-0.0890824 0.120971 2.2219e-05)
(-0.0923243 0.0834575 -7.60988e-06)
(0.000305963 -0.000309328 -6.08939e-08)
(1.59685e-05 0.000157748 -0.000217451)
(-0.00184611 0.00066516 -0.00044493)
(-0.00483819 0.00100801 -0.000613329)
(-0.0085641 0.00120252 -0.000678726)
(-0.0126824 0.00128642 -0.000620736)
(-0.0169099 0.00128728 -0.000433077)
(-0.0210084 0.00121897 -0.000116275)
(-0.0247681 0.00108887 0.000323625)
(-0.0280118 0.000909083 0.000873687)
(-0.000183094 -1.70101e-05 0.000216565)
(-0.0024842 0.00239441 -5.48958e-06)
(-0.00806625 0.00474536 -0.000174197)
(-0.0159406 0.00644033 -0.000274587)
(-0.0253628 0.00747376 -0.000288551)
(-0.0356537 0.00793868 -0.000200155)
(-0.046173 0.00792175 -2.70115e-06)
(-0.0563403 0.00748319 0.000306181)
(-0.065637 0.00667871 0.000725167)
(-0.0736372 0.00559813 0.0012477)
(-0.000779135 0.00197404 0.000449467)
(-0.00521522 0.00809585 0.000156173)
(-0.0142982 0.0135449 -1.34443e-05)
(-0.026346 0.01753 -9.22011e-05)
(-0.040356 0.0200104 -8.87008e-05)
(-0.0554565 0.0211165 5.92659e-06)
(-0.0707787 0.0209912 0.000195983)
(-0.0854988 0.0197576 0.000485307)
(-0.0988583 0.0175639 0.000877044)
(-0.110222 0.0146612 0.00137085)
(-0.00125714 0.00539123 0.000607278)
(-0.00749398 0.0166058 0.00022768)
(-0.0195353 0.0258773 3.40552e-05)
(-0.0349901 0.0325665 -4.68239e-05)
(-0.0526158 0.0367068 -4.56341e-05)
(-0.0714063 0.0384855 4.04853e-05)
(-0.0903371 0.0380882 0.000214136)
(-0.108401 0.0356856 0.000481769)
(-0.124632 0.0315212 0.000852807)
(-0.138168 0.0260507 0.00133562)
(-0.00158485 0.00990224 0.000615117)
(-0.00912304 0.027319 0.000160581)
(-0.0233389 0.0409475 -5.86298e-05)
(-0.0412753 0.0505862 -0.000152065)
(-0.0614933 0.0564704 -0.000166474)
(-0.0828917 0.0588809 -0.00010252)
(-0.104339 0.0580309 4.32648e-05)
(-0.124688 0.0541023 0.000282843)
(-0.142769 0.0473983 0.000635784)
(-0.157428 0.0385809 0.00112606)
(-0.00175615 0.0151149 0.000423411)
(-0.0100143 0.0394974 -8.69764e-05)
(-0.0254622 0.05786 -0.000327423)
(-0.0448067 0.0706126 -0.000440731)
(-0.066487 0.0782876 -0.000483254)
(-0.0893496 0.0812915 -0.000456465)
(-0.112206 0.0798478 -0.00035278)
(-0.133816 0.0740908 -0.000150826)
(-0.152823 0.0642951 0.000184733)
(-0.167658 0.0512431 0.000708466)
(-0.00177122 0.0206049 8.18804e-06)
(-0.010132 0.0522845 -0.000535959)
(-0.0257803 0.0755501 -0.00079007)
(-0.0453458 0.0914847 -0.000928424)
(-0.0672317 0.100965 -0.001011)
(-0.090278 0.104547 -0.00103802)
(-0.113297 0.102443 -0.000994783)
(-0.135027 0.0946671 -0.00084663)
(-0.154017 0.0813049 -0.000536579)
(-0.168137 0.0629895 5.13238e-05)
(-0.00163745 0.0259442 -0.000630953)
(-0.00949287 0.0647875 -0.00118684)
(-0.0242962 0.0928774 -0.00144576)
(-0.0428411 0.111927 -0.00161274)
(-0.0635645 0.123156 -0.00174654)
(-0.0853269 0.127281 -0.00184556)
(-0.106983 0.124507 -0.00188653)
(-0.127349 0.11466 -0.00181953)
(-0.145109 0.0974306 -0.00156523)
(-0.157535 0.0726901 -0.000890266)
(-0.00137475 0.0307329 -0.00147175)
(-0.00818551 0.076151 -0.00202009)
(-0.0211887 0.108711 -0.00227477)
(-0.0375257 0.130616 -0.00247152)
(-0.0556941 0.143376 -0.00266457)
(-0.0745476 0.147878 -0.00285179)
(-0.0929478 0.144371 -0.00300218)
(-0.109804 0.132537 -0.00304986)
(-0.124321 0.111618 -0.00290528)
(-0.13361 0.079884 -0.00212902)
(-0.00102269 0.0346453 -0.0024717)
(-0.0063959 0.0856564 -0.00299872)
(-0.0168718 0.122057 -0.00324026)
(-0.0300461 0.146307 -0.00346376)
(-0.0444529 0.16009 -0.00371766)
(-0.0588241 0.164425 -0.00400426)
(-0.0718108 0.15965 -0.00429443)
(-0.0820235 0.145441 -0.00451836)
(-0.0891722 0.120908 -0.00464421)
(-0.0922454 0.0833383 -0.00404737)
(-0.030627 0.000705075 -0.00151319)
(-0.0325994 0.000511036 -0.00221666)
(-0.0340052 0.00034989 -0.00296117)
(-0.0349646 0.000229496 -0.00372946)
(-0.0356025 0.000147633 -0.00451009)
(-0.0360281 9.76048e-05 -0.00529641)
(-0.0363285 7.22357e-05 -0.00608524)
(-0.0365702 6.57951e-05 -0.00687583)
(-0.0368041 7.43665e-05 -0.0076693)
(-0.0370696 9.53506e-05 -0.00846836)
(-0.037397 0.000126526 -0.00927739)
(-0.0378062 0.000164853 -0.0101026)
(-0.0383026 0.0002051 -0.0109519)
(-0.0388695 0.000238421 -0.011835)
(-0.0394565 0.000251146 -0.0127622)
(-0.0399671 0.00022443 -0.0137427)
(-0.0402498 0.000136117 -0.0147819)
(-0.0400951 -3.34519e-05 -0.0158774)
(-0.0392557 -0.000296158 -0.0170132)
(-0.0374929 -0.000640119 -0.0181572)
(-0.0800824 0.00439357 -0.00186003)
(-0.0849579 0.00324994 -0.00254233)
(-0.0884616 0.00229036 -0.0032761)
(-0.0908856 0.00155929 -0.004046)
(-0.0925271 0.00104744 -0.00484026)
(-0.0936435 0.00072017 -0.00565062)
(-0.0944397 0.000538073 -0.00647191)
(-0.0950714 0.000467211 -0.0073015)
(-0.0956551 0.000481493 -0.00813885)
(-0.0962767 0.000560449 -0.00898529)
(-0.0969959 0.000684639 -0.00984384)
(-0.0978435 0.000829851 -0.0107191)
(-0.0988128 0.00096081 -0.0116172)
(-0.0998436 0.00102525 -0.012545)
(-0.100801 0.000950093 -0.0135097)
(-0.101454 0.000642816 -0.014517)
(-0.101458 2.87335e-06 -0.0155694)
(-0.100364 -0.00105227 -0.0166622)
(-0.0976567 -0.00254899 -0.0177814)
(-0.0928557 -0.0044042 -0.0188996)
(-0.119208 0.0114623 -0.00195752)
(-0.125847 0.00846071 -0.00261684)
(-0.130511 0.00596601 -0.00333131)
(-0.133676 0.00407635 -0.00408626)
(-0.135787 0.00275453 -0.0048697)
(-0.137206 0.00190385 -0.0056728)
(-0.138206 0.0014191 -0.00648962)
(-0.138985 0.00121034 -0.00731668)
(-0.139688 0.00120733 -0.00815256)
(-0.140414 0.00135347 -0.00899759)
(-0.14123 0.00159456 -0.00985371)
(-0.142164 0.00186522 -0.0107242)
(-0.143199 0.00207463 -0.0116136)
(-0.144252 0.00209375 -0.0125271)
(-0.145148 0.00174783 -0.0134705)
(-0.145593 0.000821329 -0.0144489)
(-0.145149 -0.000914746 -0.0154649)
(-0.143233 -0.00364435 -0.0165169)
(-0.139159 -0.00741074 -0.0175956)
(-0.132251 -0.0120019 -0.0186803)
(-0.14848 0.0200729 -0.00192484)
(-0.155702 0.0145829 -0.00259057)
(-0.160497 0.0101333 -0.00331226)
(-0.163583 0.00683931 -0.00407411)
(-0.165546 0.00457682 -0.00486337)
(-0.166812 0.00313731 -0.005671)
(-0.167672 0.00231675 -0.00649103)
(-0.168323 0.00195008 -0.0073199)
(-0.168895 0.0019128 -0.00815589)
(-0.169475 0.00210702 -0.00899876)
(-0.170119 0.00244125 -0.00984952)
(-0.17085 0.00280757 -0.0107102)
(-0.171651 0.00305821 -0.0115841)
(-0.172451 0.00298405 -0.012475)
(-0.173092 0.00230034 -0.0133881)
(-0.173296 0.000650257 -0.0143289)
(-0.172621 -0.00235651 -0.0153033)
(-0.170432 -0.00705248 -0.0163152)
(-0.165903 -0.0135526 -0.0173642)
(-0.158105 -0.0215367 -0.0184403)
(-0.167867 0.0289848 -0.00175477)
(-0.17442 0.020457 -0.00246231)
(-0.178265 0.0138257 -0.00322079)
(-0.180447 0.00910374 -0.00401267)
(-0.181668 0.00596537 -0.00482455)
(-0.182364 0.0040174 -0.00564824)
(-0.182786 0.0029221 -0.006479)
(-0.183077 0.00242809 -0.00731417)
(-0.18332 0.00235742 -0.00815246)
(-0.183563 0.00257765 -0.00899344)
(-0.183838 0.00297044 -0.00983735)
(-0.184162 0.00339929 -0.010685)
(-0.184534 0.0036769 -0.011538)
(-0.184923 0.00353313 -0.0123988)
(-0.185247 0.00258827 -0.0132716)
(-0.185325 0.0003432 -0.0141629)
(-0.184811 -0.00378904 -0.0150826)
(-0.18311 -0.0103734 -0.0160431)
(-0.17929 -0.0197318 -0.0170575)
(-0.172049 -0.0315687 -0.0181362)
(-0.176962 0.0369733 -0.00144021)
(-0.181443 0.0249122 -0.00223961)
(-0.183223 0.016111 -0.00306974)
(-0.183749 0.010203 -0.00391518)
(-0.183762 0.00646831 -0.00476449)
(-0.183605 0.0042398 -0.00561314)
(-0.183414 0.00302078 -0.00645979)
(-0.183228 0.00247795 -0.00730412)
(-0.183048 0.00239481 -0.00814604)
(-0.182868 0.00262265 -0.00898538)
(-0.182684 0.00303707 -0.00982171)
(-0.182503 0.00349841 -0.0106545)
(-0.182344 0.00381211 -0.0114833)
(-0.182239 0.00368617 -0.0123086)
(-0.182221 0.00268636 -0.0131328)
(-0.182281 0.000196195 -0.0139627)
(-0.182287 -0.00459205 -0.0148117)
(-0.181835 -0.0125905 -0.0157021)
(-0.180007 -0.0245745 -0.0166654)
(-0.175004 -0.0406076 -0.0177518)
(-0.174821 0.0425435 -0.00100151)
(-0.175575 0.0266175 -0.0019615)
(-0.174229 0.0160883 -0.00289815)
(-0.172586 0.00961268 -0.00381389)
(-0.171191 0.00580794 -0.00470695)
(-0.170136 0.00366619 -0.00558204)
(-0.169352 0.00254514 -0.00644429)
(-0.16873 0.00206369 -0.00729708)
(-0.168177 0.00199959 -0.00814212)
(-0.16762 0.00221529 -0.0089796)
(-0.167017 0.00260599 -0.00980842)
(-0.166357 0.00305821 -0.0106264)
(-0.165671 0.00340946 -0.0114308)
(-0.165046 0.00340047 -0.012219)
(-0.164634 0.0026127 -0.0129903)
(-0.164648 0.000385008 -0.0137489)
(-0.165284 -0.00427646 -0.0145107)
(-0.166559 -0.0127172 -0.0153058)
(-0.167909 -0.0265164 -0.0161884)
(-0.167087 -0.0468188 -0.0172809)
(-0.15945 0.0435272 -0.000496241)
(-0.154536 0.0239743 -0.00170068)
(-0.149397 0.0130085 -0.00276596)
(-0.145647 0.00711681 -0.0037522)
(-0.143128 0.00401041 -0.00468038)
(-0.141476 0.00240614 -0.00557247)
(-0.140358 0.0016215 -0.00644306)
(-0.139519 0.00130753 -0.00729963)
(-0.138782 0.00128637 -0.00814534)
(-0.13803 0.00146191 -0.00898039)
(-0.137186 0.00176999 -0.00980268)
(-0.136218 0.00214505 -0.0106082)
(-0.135146 0.00248904 -0.0113913)
(-0.134072 0.00263085 -0.0121456)
(-0.133221 0.00226093 -0.0128653)
(-0.132983 0.000815711 -0.0135496)
(-0.133913 -0.00271288 -0.0142133)
(-0.136699 -0.0100053 -0.0148895)
(-0.141825 -0.0237579 -0.0156483)
(-0.147355 -0.047622 -0.0167246)
(-0.126427 0.037407 -0.000214913)
(-0.114124 0.016073 -0.00169063)
(-0.105928 0.00710548 -0.00280367)
(-0.101349 0.00330347 -0.00379737)
(-0.0987382 0.00164439 -0.00471819)
(-0.0972006 0.000911129 -0.00560075)
(-0.0962302 0.000597052 -0.00646453)
(-0.0955231 0.000492543 -0.00731708)
(-0.0948955 0.000510896 -0.00816047)
(-0.0942289 0.00061487 -0.00899352)
(-0.0934432 0.000785367 -0.00981245)
(-0.0924903 0.00100535 -0.010611)
(-0.0913617 0.00124653 -0.0113803)
(-0.0901156 0.00144963 -0.0121092)
(-0.0889317 0.00148401 -0.012784)
(-0.0882026 0.00105581 -0.0133939)
(-0.0886126 -0.000514559 -0.0139467)
(-0.091472 -0.00484477 -0.0144477)
(-0.0992599 -0.0154968 -0.0149411)
(-0.113062 -0.0404816 -0.015822)
(-0.0643514 0.0229239 -0.000864926)
(-0.0480097 0.00660905 -0.0023325)
(-0.0413131 0.00201504 -0.00308592)
(-0.0388864 0.000647254 -0.00383417)
(-0.0378333 0.00022279 -0.00459885)
(-0.0372958 9.27994e-05 -0.00537645)
(-0.0369757 5.79471e-05 -0.00616471)
(-0.0367335 5.73007e-05 -0.00695843)
(-0.0364952 7.39345e-05 -0.0077526)
(-0.0362123 0.000104509 -0.0085422)
(-0.0358457 0.000149806 -0.00932104)
(-0.0353612 0.000211731 -0.0100805)
(-0.0347309 0.000291719 -0.0108084)
(-0.0339416 0.000387441 -0.0114871)
(-0.0330159 0.000482454 -0.0120912)
(-0.0320646 0.000514491 -0.0125851)
(-0.0314303 0.000259284 -0.0129215)
(-0.0320741 -0.00113857 -0.0130638)
(-0.0376816 -0.00640276 -0.0128915)
(-0.0563536 -0.0256524 -0.0130359)
(-0.0306307 0.000690568 1.69172e-06)
(-0.0326025 0.000499785 1.18475e-06)
(-0.0340075 0.000341576 7.85517e-07)
(-0.0349661 0.000223559 4.96875e-07)
(-0.0356033 0.000143467 3.05659e-07)
(-0.0360285 9.46461e-05 1.90631e-07)
(-0.0363286 7.0006e-05 1.30774e-07)
(-0.0365701 6.39089e-05 1.10604e-07)
(-0.0368039 7.25228e-05 1.19392e-07)
(-0.0370693 9.3323e-05 1.50241e-07)
(-0.0373965 0.000124165 1.98309e-07)
(-0.0378056 0.000162099 2.58596e-07)
(-0.038302 0.000202023 3.23624e-07)
(-0.0388689 0.000235272 3.80759e-07)
(-0.039456 0.00024842 4.08995e-07)
(-0.0399671 0.00022292 3.7442e-07)
(-0.0402506 0.00013689 2.34641e-07)
(-0.0400971 -2.92083e-05 -3.62245e-08)
(-0.0392595 -0.000287184 -5.12769e-07)
(-0.0374984 -0.000625672 -1.23016e-06)
(-0.0800814 0.00438157 -1.50434e-06)
(-0.0849562 0.00324011 -1.2563e-06)
(-0.0884596 0.00228284 -9.94227e-07)
(-0.0908836 0.00155379 -7.60335e-07)
(-0.0925253 0.00104354 -5.69578e-07)
(-0.0936421 0.000717427 -4.29167e-07)
(-0.0944387 0.000536085 -3.39017e-07)
(-0.0950707 0.000465645 -2.93215e-07)
(-0.0956547 0.000480084 -2.83786e-07)
(-0.0962765 0.000558987 -3.01315e-07)
(-0.0969957 0.000682971 -3.34363e-07)
(-0.0978431 0.000827886 -3.67642e-07)
(-0.098812 0.00095854 -3.80397e-07)
(-0.0998421 0.0010228 -3.45087e-07)
(-0.100799 0.000947776 -2.279e-07)
(-0.101451 0.000641204 6.50321e-09)
(-0.101453 2.77939e-06 3.81439e-07)
(-0.100358 -0.00104985 8.88009e-07)
(-0.0976521 -0.002543 1.49504e-06)
(-0.092853 -0.00439456 2.06593e-06)
(-0.11921 0.0114644 -1.82021e-07)
(-0.125848 0.00846111 -3.20909e-07)
(-0.13051 0.00596597 -3.53225e-07)
(-0.133674 0.00407624 -3.36643e-07)
(-0.135785 0.00275452 -2.88249e-07)
(-0.137204 0.00190401 -2.30615e-07)
(-0.138204 0.00141944 -1.78321e-07)
(-0.138984 0.00121086 -1.36828e-07)
(-0.139687 0.00120804 -1.06581e-07)
(-0.140414 0.00135437 -8.6001e-08)
(-0.14123 0.00159561 -7.18199e-08)
(-0.142164 0.00186634 -5.94793e-08)
(-0.143198 0.00207569 -4.3615e-08)
(-0.144251 0.00209453 -1.76511e-08)
(-0.145146 0.00174808 2.69048e-08)
(-0.145591 0.000820792 9.72172e-08)
(-0.145146 -0.000916339 1.89211e-07)
(-0.143231 -0.00364696 2.9684e-07)
(-0.139158 -0.00741422 4.07573e-07)
(-0.132253 -0.0120077 3.45257e-07)
(-0.148485 0.0200694 -2.91515e-07)
(-0.155703 0.0145789 -4.73592e-07)
(-0.160496 0.0101308 -4.7169e-07)
(-0.163581 0.00683789 -4.20107e-07)
(-0.165544 0.00457626 -3.3489e-07)
(-0.16681 0.0031373 -2.48292e-07)
(-0.167671 0.00231703 -1.76225e-07)
(-0.168322 0.0019505 -1.21477e-07)
(-0.168894 0.00191327 -8.21868e-08)
(-0.169474 0.0021075 -5.57179e-08)
(-0.170118 0.00244169 -3.8926e-08)
(-0.170849 0.00280792 -2.85654e-08)
(-0.17165 0.00305837 -2.18073e-08)
(-0.17245 0.00298391 -1.43388e-08)
(-0.17309 0.00229987 4.84129e-09)
(-0.173294 0.000649548 4.77911e-08)
(-0.172618 -0.0023573 1.00786e-07)
(-0.170429 -0.00705246 2.01089e-07)
(-0.165902 -0.0135502 3.93528e-07)
(-0.158111 -0.0215339 3.45902e-07)
(-0.167876 0.0289759 -7.99882e-07)
(-0.174419 0.0204495 -8.98589e-07)
(-0.178262 0.013822 -7.29078e-07)
(-0.180443 0.00910238 -5.70696e-07)
(-0.181665 0.00596531 -4.02321e-07)
(-0.182361 0.00401794 -2.64905e-07)
(-0.182784 0.00292281 -1.69431e-07)
(-0.183076 0.00242878 -1.07618e-07)
(-0.183319 0.002358 -7.03247e-08)
(-0.183562 0.00257812 -5.04948e-08)
(-0.183838 0.00297077 -4.30947e-08)
(-0.184161 0.00339946 -4.48053e-08)
(-0.184533 0.00367687 -5.31329e-08)
(-0.184922 0.00353284 -6.32123e-08)
(-0.185246 0.00258774 -5.59009e-08)
(-0.185322 0.000342674 -4.36598e-09)
(-0.184807 -0.00378908 4.87176e-08)
(-0.183104 -0.0103712 1.9839e-07)
(-0.179286 -0.0197232 6.94803e-07)
(-0.172058 -0.0315558 9.96209e-07)
(-0.176978 0.0369554 -1.71227e-06)
(-0.181438 0.0249 -1.46304e-06)
(-0.183215 0.0161073 -9.17766e-07)
(-0.183744 0.0102028 -6.15065e-07)
(-0.183757 0.00646943 -3.62238e-07)
(-0.183602 0.00424125 -1.91406e-07)
(-0.183412 0.00302208 -9.50236e-08)
(-0.183226 0.00247898 -4.38337e-08)
(-0.183047 0.0023956 -1.87826e-08)
(-0.182867 0.00262325 -9.23201e-09)
(-0.182684 0.00303753 -9.85889e-09)
(-0.182502 0.00349874 -1.87377e-08)
(-0.182344 0.00381226 -3.59984e-08)
(-0.182239 0.00368608 -6.09428e-08)
(-0.182219 0.00268601 -7.5697e-08)
(-0.182278 0.000195918 -4.55515e-08)
(-0.182282 -0.00459147 -2.49117e-08)
(-0.181823 -0.0125867 1.09483e-07)
(-0.179996 -0.0245582 1.1979e-06)
(-0.17502 -0.04058 2.5366e-06)
(-0.174852 0.0425187 -4.56061e-06)
(-0.17556 0.0266094 -3.01394e-06)
(-0.174213 0.0160919 -1.39448e-06)
(-0.172578 0.009617 -7.27294e-07)
(-0.171186 0.00581147 -3.09349e-07)
(-0.170134 0.0036688 -9.59555e-08)
(-0.16935 0.00254693 -1.20423e-08)
(-0.16873 0.00206495 1.54956e-08)
(-0.168176 0.00200057 1.88477e-08)
(-0.16762 0.00221617 1.11372e-08)
(-0.167017 0.00260686 -3.27202e-09)
(-0.166357 0.00305909 -2.39311e-08)
(-0.165671 0.00341029 -5.18385e-08)
(-0.165045 0.00340104 -8.95609e-08)
(-0.164633 0.00261271 -1.18339e-07)
(-0.164645 0.000384466 -6.12358e-08)
(-0.165276 -0.00427796 7.18526e-08)
(-0.166538 -0.0127196 3.6257e-07)
(-0.167883 -0.0265049 2.89988e-06)
(-0.167119 -0.0467831 6.9778e-06)
(-0.15951 0.043486 -7.74916e-06)
(-0.154504 0.0239845 -3.15188e-06)
(-0.149378 0.0130302 -6.41592e-07)
(-0.145642 0.0071291 -2.4408e-07)
(-0.143126 0.00401668 3.09043e-08)
(-0.141475 0.00240954 1.27646e-07)
(-0.140358 0.00162345 1.20811e-07)
(-0.139518 0.00130888 9.94206e-08)
(-0.138782 0.0012876 8.24053e-08)
(-0.13803 0.00146331 7.03645e-08)
(-0.137186 0.0017717 6.04156e-08)
(-0.136217 0.00214713 4.80197e-08)
(-0.135146 0.00249139 2.58561e-08)
(-0.134073 0.00263306 -2.65849e-08)
(-0.133221 0.0022621 -1.03348e-07)
(-0.132983 0.000814309 -3.41911e-08)
(-0.133912 -0.00272135 9.62458e-08)
(-0.136678 -0.0100277 -3.59643e-07)
(-0.141779 -0.0237711 2.56374e-06)
(-0.147414 -0.047566 1.11498e-05)
(-0.1265 0.0372102 -9.68293e-06)
(-0.114055 0.0160134 4.28858e-06)
(-0.105916 0.00709441 4.80376e-06)
(-0.101358 0.00329626 2.0526e-06)
(-0.0987434 0.00163903 1.06236e-06)
(-0.0972031 0.000907782 6.45e-07)
(-0.0962313 0.000594852 4.05955e-07)
(-0.0955234 0.000490898 3.07991e-07)
(-0.0948952 0.000509465 2.96153e-07)
(-0.0942283 0.000613421 3.33205e-07)
(-0.0934425 0.000783752 3.99835e-07)
(-0.0924897 0.00100352 4.7918e-07)
(-0.0913619 0.00124457 5.41508e-07)
(-0.090117 0.0014479 5.1065e-07)
(-0.0889351 0.00148327 2.89326e-07)
(-0.0882112 0.00105704 -7.1291e-08)
(-0.0886316 -0.000511245 -1.29346e-06)
(-0.0914683 -0.00483748 -5.96894e-06)
(-0.0991697 -0.0154324 -8.10343e-06)
(-0.113113 -0.0402256 1.20523e-05)
(-0.0643941 0.0227788 -5.38083e-05)
(-0.0478508 0.00654013 -9.16206e-06)
(-0.041268 0.00198725 -6.66344e-07)
(-0.038882 0.000631559 -1.47254e-06)
(-0.0378303 0.000213644 -9.57295e-07)
(-0.0372937 8.76468e-05 -4.50329e-07)
(-0.0369748 5.4804e-05 -2.55252e-07)
(-0.0367332 5.50066e-05 -1.8132e-07)
(-0.0364952 7.18475e-05 -1.61081e-07)
(-0.0362124 0.000102242 -1.77384e-07)
(-0.0358459 0.000147121 -2.19406e-07)
(-0.0353615 0.000208531 -2.76768e-07)
(-0.0347312 0.000288136 -3.34691e-07)
(-0.0339415 0.000384061 -3.6692e-07)
(-0.0330148 0.000480626 -2.82872e-07)
(-0.0320636 0.000516446 1.63016e-07)
(-0.0314327 0.000268625 6.0039e-07)
(-0.0320322 -0.00111498 -1.99047e-06)
(-0.0374658 -0.00632869 3.95257e-06)
(-0.0563403 -0.0254577 6.80759e-05)
(-0.0306307 0.000690568 -1.6921e-06)
(-0.0326025 0.000499784 -1.18498e-06)
(-0.0340075 0.000341576 -7.85767e-07)
(-0.0349661 0.00022356 -4.97219e-07)
(-0.0356033 0.000143467 -3.06133e-07)
(-0.0360285 9.46463e-05 -1.9105e-07)
(-0.0363286 7.00063e-05 -1.31113e-07)
(-0.0365701 6.39091e-05 -1.10857e-07)
(-0.0368039 7.25227e-05 -1.19501e-07)
(-0.0370693 9.33229e-05 -1.50357e-07)
(-0.0373965 0.000124165 -1.98329e-07)
(-0.0378056 0.000162099 -2.58711e-07)
(-0.038302 0.000202023 -3.23766e-07)
(-0.0388689 0.000235272 -3.80744e-07)
(-0.039456 0.00024842 -4.08837e-07)
(-0.0399671 0.00022292 -3.74192e-07)
(-0.0402506 0.00013689 -2.34324e-07)
(-0.0400971 -2.92082e-05 3.67332e-08)
(-0.0392595 -0.000287184 5.13577e-07)
(-0.0374984 -0.000625672 1.23133e-06)
(-0.0800814 0.00438157 1.5039e-06)
(-0.0849562 0.00324011 1.25595e-06)
(-0.0884596 0.00228284 9.93962e-07)
(-0.0908836 0.00155379 7.60121e-07)
(-0.0925253 0.00104354 5.69287e-07)