/*--------------------------------*- C++ -*----------------------------------*\
| =========                 |                                                 |
| \\      /  F ield         | OpenFOAM: The Open Source CFD Toolbox           |
|  \\    /   O peration     | Version:  2.4.0                                 |
|   \\  /    A nd           | Web:      www.OpenFOAM.org                      |
|    \\/     M anipulation  |                                                 |
\*---------------------------------------------------------------------------*/
FoamFile
{
    version     2.0;
    format      ascii;
    class       volScalarField;
    location    "2.6";
    object      p;
}
// * * * * * * * * * * * * * * * * * * * * * * * * * * * * * * * * * * * * * //

dimensions      [0 2 -2 0 0 0 0];

internalField   nonuniform List<scalar> 
4800
(
-1.77056e-06
-0.00159042
-0.0032464
-0.00446157
-0.00491491
-0.004457
-0.00304189
-0.000673955
0.00260098
0.00668664
0.00157934
-3.88393e-05
-0.00121315
-0.00189962
-0.00197625
-0.0013341
7.31496e-05
0.00226251
0.00522163
0.0089032
0.00327158
0.00108617
-9.53397e-05
-0.000627857
-0.000579675
0.000107457
0.00146448
0.00351765
0.00628709
0.00976795
0.00440508
0.00157326
0.000220191
-0.000326981
-0.000293208
0.000336462
0.00158177
0.00348699
0.00611611
0.00952328
0.00443514
0.00109195
-0.000442812
-0.00107732
-0.00115011
-0.000671813
0.000383568
0.00209852
0.00460817
0.00807246
0.00300198
-0.000644605
-0.00232812
-0.0030995
-0.00336473
-0.00314066
-0.00237291
-0.000914005
0.00148351
0.00518888
-6.7329e-05
-0.0037804
-0.00555797
-0.00650138
-0.00704149
-0.00718641
-0.00683318
-0.00574358
-0.00351199
0.000656871
-0.004774
-0.00831733
-0.0101258
-0.0112656
-0.0121581
-0.0127977
-0.0130233
-0.0124946
-0.0106317
-0.00580193
-0.0109546
-0.0141194
-0.0158946
-0.0172391
-0.0185407
-0.019789
-0.020771
-0.0210484
-0.0199448
-0.0142812
-0.0182989
-0.0209304
-0.0226101
-0.0241389
-0.0258624
-0.0278009
-0.0297569
-0.0312972
-0.0321837
-0.0277291
-4.609e-06
-0.00161218
-0.00327798
-0.00450179
-0.00496027
-0.0045044
-0.00308919
-0.000719543
0.00255953
0.00665198
0.001596
-4.38535e-05
-0.00119607
-0.00187236
-0.00194386
-0.0012983
0.000110202
0.00229593
0.00525075
0.00892829
0.0033015
0.00106006
-9.66779e-05
-0.000626856
-0.000581039
0.000106262
0.00146334
0.00351568
0.00628429
0.00976623
0.00444881
0.00153677
0.000220263
-0.000323824
-0.000294234
0.000334971
0.00157985
0.00348384
0.00611067
0.00951848
0.00448864
0.00104918
-0.000437979
-0.00106683
-0.00114379
-0.000665785
0.000388949
0.00210165
0.00460469
0.00806571
0.00306026
-0.000691863
-0.00232177
-0.00308614
-0.00335549
-0.0031315
-0.00236396
-0.000906824
0.00147753
0.00517016
-8.93614e-06
-0.00382884
-0.00555117
-0.00648678
-0.00703038
-0.00717488
-0.00682042
-0.00572826
-0.00351985
0.000609401
-0.0047202
-0.00836379
-0.0101196
-0.0112514
-0.0121465
-0.0127859
-0.01301
-0.0124709
-0.0106548
-0.00596732
-0.0109097
-0.0141615
-0.0158903
-0.0172272
-0.0185297
-0.0197771
-0.020755
-0.0209924
-0.0199283
-0.0146525
-0.0182663
-0.0209668
-0.0226094
-0.0241321
-0.0258552
-0.0277901
-0.0297339
-0.0311573
-0.0318571
-0.0278397
-5.34327e-06
-0.00161257
-0.00327818
-0.00450189
-0.00496031
-0.00450442
-0.0030892
-0.000719548
0.00255953
0.00665198
0.00159562
-4.41096e-05
-0.00119621
-0.00187243
-0.0019439
-0.00129832
0.000110195
0.00229593
0.00525075
0.00892829
0.00330129
0.00105992
-9.67678e-05
-0.000626904
-0.000581067
0.000106248
0.00146334
0.00351568
0.00628429
0.00976622
0.00444871
0.00153669
0.00022021
-0.000323854
-0.000294254
0.00033496
0.00157984
0.00348384
0.00611067
0.00951848
0.00448859
0.00104914
-0.000438008
-0.00106685
-0.0011438
-0.000665793
0.000388946
0.00210165
0.00460468
0.0080657
0.00306023
-0.000691887
-0.00232178
-0.00308615
-0.0033555
-0.00313151
-0.00236396
-0.000906829
0.00147752
0.00517016
-8.95479e-06
-0.00382885
-0.00555119
-0.00648679
-0.00703039
-0.00717489
-0.00682043
-0.00572827
-0.00351986
0.000609393
-0.00472021
-0.0083638
-0.0101196
-0.0112514
-0.0121465
-0.0127859
-0.01301
-0.0124709
-0.0106548
-0.00596733
-0.0109097
-0.0141615
-0.0158903
-0.0172272
-0.0185297
-0.0197771
-0.020755
-0.0209924
-0.0199283
-0.0146525
-0.0182663
-0.0209668
-0.0226094
-0.0241321
-0.0258552
-0.0277902
-0.029734
-0.0311573
-0.0318571
-0.0278397
-4.41311e-06
-0.00159151
-0.0032469
-0.0044618
-0.004915
-0.00445704
-0.0030419
-0.000673956
0.00260098
0.00668663
0.00157825
-3.95063e-05
-0.00121351
-0.0018998
-0.00197634
-0.00133415
7.31308e-05
0.00226251
0.00522162
0.0089032
0.00327107
0.0010858
-9.55564e-05
-0.000627971
-0.000579733
0.000107424
0.00146447
0.00351765
0.00628709
0.00976794
0.00440482
0.00157308
0.000220065
-0.000327055
-0.00029325
0.000336433
0.00158176
0.00348699
0.0061161
0.00952326
0.00443501
0.00109185
-0.000442888
-0.00107737
-0.00115014
-0.000671836
0.000383556
0.00209851
0.00460816
0.00807245
0.0030019
-0.00064466
-0.00232816
-0.00309952
-0.00336475
-0.00314068
-0.00237292
-0.000914014
0.0014835
0.00518887
-6.73862e-05
-0.00378044
-0.005558
-0.00650141
-0.00704151
-0.00718643
-0.0068332
-0.00574359
-0.003512
0.000656858
-0.00477405
-0.00831735
-0.0101258
-0.0112656
-0.0121581
-0.0127977
-0.0130234
-0.0124946
-0.0106317
-0.00580195
-0.0109546
-0.0141195
-0.0158946
-0.0172391
-0.0185407
-0.019789
-0.020771
-0.0210484
-0.0199448
-0.0142812
-0.0182989
-0.0209305
-0.0226102
-0.0241389
-0.0258625
-0.0278009
-0.0297569
-0.0312972
-0.0321838
-0.0277291
0.0114301
0.0166445
0.0221612
0.027853
0.0336356
0.03946
0.0453027
0.0511582
0.0570344
0.0629509
0.0689396
0.0750452
0.0813257
0.0878505
0.0946944
0.101924
0.109578
0.117639
0.125988
0.134392
0.01321
0.0180042
0.023156
0.0285582
0.0341286
0.0398098
0.0455659
0.0513785
0.057244
0.0631715
0.0691816
0.0753063
0.0815869
0.0880715
0.0948093
0.10184
0.10918
0.116796
0.124592
0.132376
0.013894
0.0185265
0.0235426
0.0288395
0.0343336
0.0399636
0.045688
0.0514827
0.0573377
0.0632554
0.0692489
0.0753406
0.0815616
0.0879483
0.0945396
0.10137
0.108458
0.115792
0.123306
0.130856
0.0136666
0.0183442
0.0234109
0.0287556
0.0342899
0.0399508
0.045697
0.0515037
0.0573591
0.0632616
0.069218
0.0752427
0.0813569
0.0875886
0.0939719
0.100546
0.107349
0.114409
0.121721
0.129214
0.0124874
0.0174564
0.0227791
0.028332
0.0340225
0.039794
0.0456136
0.0514632
0.0573339
0.063223
0.069132
0.0750669
0.081038
0.0870631
0.0931705
0.0994063
0.105836
0.112546
0.119627
0.127146
0.0103084
0.0159172
0.0217381
0.0276614
0.0336101
0.0395531
0.0454814
0.0513933
0.0572884
0.0631657
0.0690224
0.0748548
0.0806603
0.0864421
0.0922171
0.0980316
0.103978
0.11021
0.116951
0.124537
0.00725949
0.0139902
0.0205546
0.0269651
0.0332157
0.0393402
0.045375
0.0513441
0.0572599
0.0631239
0.0689286
0.0746593
0.080297
0.0858244
0.0912362
0.0965626
0.101913
0.107495
0.113698
0.121359
0.00374938
0.0121947
0.0196531
0.0265468
0.0330372
0.0392767
0.0453673
0.0513613
0.0572809
0.0631277
0.0688871
0.0745317
0.080023
0.0853173
0.0903747
0.0951904
0.0998679
0.10463
0.10999
0.117588
0.001805
0.0121927
0.0199611
0.0268799
0.0333078
0.0394761
0.0455168
0.0514817
0.0573848
0.0632176
0.0689541
0.0745513
0.0799483
0.0850668
0.0898139
0.094114
0.0980179
0.101543
0.105039
0.11139
0.00634301
0.0174795
0.0231038
0.0286269
0.0342847
0.0400396
0.0458718
0.0517441
0.0576202
0.0634636
0.0692291
0.0748546
0.0802511
0.0852905
0.0897892
0.0934891
0.0960407
0.0971562
0.0960428
0.0977252
0.011404
0.0166263
0.0221491
0.0278454
0.0336309
0.0394571
0.0453007
0.0511565
0.0570326
0.0629487
0.0689366
0.0750413
0.0813208
0.0878448
0.0946882
0.101919
0.109575
0.117639
0.125996
0.134411
0.0132322
0.0180227
0.0231706
0.0285694
0.0341369
0.0398161
0.0455708
0.0513828
0.0572481
0.0631758
0.0691864
0.0753116
0.0815923
0.0880765
0.0948125
0.10184
0.109174
0.116783
0.12457
0.132346
0.0138967
0.0185313
0.0235478
0.0288444
0.0343379
0.039967
0.0456907
0.0514847
0.0573393
0.0632567
0.0692499
0.0753415
0.0815622
0.0879485
0.0945392
0.101368
0.108456
0.115788
0.1233
0.130851
0.0136709
0.0183512
0.0234178
0.0287618
0.0342948
0.0399544
0.0456995
0.0515055
0.0573603
0.0632625
0.0692186
0.0752431
0.0813572
0.0875888
0.0939717
0.100545
0.107347
0.114406
0.121715
0.129209
0.0124992
0.0174696
0.0227898
0.0283403
0.0340284
0.0397978
0.045616
0.0514647
0.0573349
0.0632237
0.0691327
0.0750675
0.0810388
0.087064
0.0931713
0.0994063
0.105835
0.112543
0.119617
0.127131
0.0103337
0.0159387
0.0217515
0.0276704
0.0336154
0.0395559
0.0454828
0.0513939
0.0572887
0.0631658
0.0690225
0.074855
0.0806608
0.086443
0.0922182
0.0980322
0.103979
0.110208
0.116933
0.1245
0.00732664
0.0140345
0.0205751
0.0269757
0.0332202
0.0393416
0.0453751
0.0513439
0.0572597
0.0631237
0.0689286
0.0746596
0.0802978
0.0858257
0.0912379
0.0965636
0.101912
0.10749
0.113655
0.121256
0.00386351
0.0122409
0.0196624
0.0265503
0.0330368
0.0392749
0.0453655
0.0513598
0.0572797
0.0631266
0.0688862
0.0745309
0.0800227
0.0853177
0.0903762
0.0951909
0.0998665
0.104635
0.109953
0.117425
0.00194768
0.0121296
0.0198905
0.0268498
0.0332923
0.0394667
0.0455109
0.0514773
0.0573805
0.0632128
0.0689483
0.0745444
0.0799405
0.0850594
0.0898098
0.0941152
0.0980369
0.10163
0.105157
0.111213
0.00717725
0.0176207
0.0231138
0.0286496
0.0342995
0.0400465
0.0458756
0.0517469
0.0576227
0.0634662
0.0692324
0.0748588
0.0802561
0.085296
0.0897934
0.0934865
0.0960313
0.0971868
0.0959813
0.0966725
0.011404
0.0166263
0.0221491
0.0278454
0.0336309
0.0394571
0.0453007
0.0511565
0.0570326
0.0629487
0.0689366
0.0750413
0.0813208
0.0878448
0.0946882
0.101919
0.109575
0.117639
0.125996
0.134411
0.0132322
0.0180227
0.0231706
0.0285694
0.0341369
0.0398161
0.0455708
0.0513828
0.0572481
0.0631758
0.0691864
0.0753116
0.0815923
0.0880765
0.0948125
0.10184
0.109174
0.116783
0.12457
0.132346
0.0138967
0.0185313
0.0235478
0.0288444
0.0343379
0.039967
0.0456907
0.0514847
0.0573393
0.0632567
0.0692499
0.0753415
0.0815622
0.0879485
0.0945392
0.101368
0.108456
0.115788
0.1233
0.130851
0.0136709
0.0183512
0.0234178
0.0287618
0.0342948
0.0399544
0.0456995
0.0515055
0.0573603
0.0632625
0.0692186
0.0752431
0.0813572
0.0875888
0.0939717
0.100545
0.107347
0.114406
0.121715
0.129209
0.0124992
0.0174696
0.0227898
0.0283403
0.0340284
0.0397978
0.045616
0.0514647
0.0573349
0.0632237
0.0691327
0.0750675
0.0810388
0.087064
0.0931713
0.0994063
0.105835
0.112543
0.119617
0.127131
0.0103336
0.0159387
0.0217515
0.0276704
0.0336154
0.0395559
0.0454828
0.0513939
0.0572887
0.0631658
0.0690225
0.074855
0.0806609
0.086443
0.0922182
0.0980322
0.103979
0.110208
0.116933
0.1245
0.00732664
0.0140345
0.0205751
0.0269757
0.0332202
0.0393416
0.0453751
0.0513439
0.0572597
0.0631237
0.0689286
0.0746596
0.0802978
0.0858257
0.0912379
0.0965636
0.101912
0.10749
0.113655
0.121256
0.0038635
0.0122409
0.0196624
0.0265503
0.0330368
0.0392749
0.0453655
0.0513598
0.0572797
0.0631266
0.0688862
0.0745309
0.0800227
0.0853177
0.0903762
0.0951909
0.0998665
0.104635
0.109953
0.117425
0.00194768
0.0121296
0.0198905
0.0268498
0.0332923
0.0394667
0.0455109
0.0514773
0.0573805
0.0632128
0.0689483
0.0745444
0.0799405
0.0850594
0.0898098
0.0941152
0.0980369
0.10163
0.105157
0.111213
0.00717725
0.0176207
0.0231138
0.0286496
0.0342995
0.0400465
0.0458756
0.0517469
0.0576227
0.0634662
0.0692324
0.0748588
0.0802561
0.085296
0.0897934
0.0934865
0.0960314
0.0971868
0.0959813
0.0966725
0.0114301
0.0166445
0.0221612
0.027853
0.0336356
0.03946
0.0453027
0.0511582
0.0570344
0.0629509
0.0689396
0.0750452
0.0813257
0.0878505
0.0946944
0.101924
0.109578
0.117639
0.125988
0.134392
0.01321
0.0180042
0.023156
0.0285582
0.0341286
0.0398098
0.0455659
0.0513785
0.057244
0.0631715
0.0691816
0.0753063
0.0815869
0.0880715
0.0948093
0.10184
0.10918
0.116796
0.124592
0.132376
0.013894
0.0185265
0.0235426
0.0288395
0.0343336
0.0399636
0.045688
0.0514827
0.0573377
0.0632554
0.0692489
0.0753406
0.0815616
0.0879483
0.0945396
0.10137
0.108458
0.115792
0.123306
0.130856
0.0136665
0.0183442
0.0234108
0.0287556
0.0342899
0.0399508
0.045697
0.0515037
0.0573591
0.0632616
0.069218
0.0752427
0.0813569
0.0875886
0.0939719
0.100546
0.107349
0.114409
0.121721
0.129214
0.0124873
0.0174564
0.0227791
0.028332
0.0340225
0.039794
0.0456136
0.0514632
0.0573339
0.063223
0.069132
0.0750669
0.081038
0.0870631
0.0931705
0.0994063
0.105836
0.112546
0.119627
0.127146
0.0103084
0.0159172
0.0217381
0.0276614
0.0336101
0.0395531
0.0454814
0.0513933
0.0572884
0.0631657
0.0690224
0.0748548
0.0806603
0.0864421
0.0922171
0.0980316
0.103978
0.11021
0.116951
0.124537
0.00725948
0.0139902
0.0205546
0.0269651
0.0332157
0.0393402
0.0453749
0.0513441
0.0572599
0.0631239
0.0689286
0.0746593
0.080297
0.0858244
0.0912362
0.0965626
0.101913
0.107495
0.113698
0.121359
0.00374937
0.0121947
0.0196531
0.0265468
0.0330372
0.0392767
0.0453673
0.0513613
0.0572809
0.0631277
0.0688871
0.0745317
0.080023
0.0853173
0.0903747
0.0951904
0.0998679
0.10463
0.10999
0.117588
0.00180499
0.0121927
0.0199611
0.0268799
0.0333078
0.0394761
0.0455168
0.0514817
0.0573848
0.0632176
0.0689541
0.0745513
0.0799483
0.0850668
0.0898139
0.094114
0.0980179
0.101543
0.105039
0.11139
0.00634302
0.0174795
0.0231038
0.0286269
0.0342847
0.0400396
0.0458718
0.0517441
0.0576202
0.0634636
0.0692291
0.0748546
0.0802511
0.0852905
0.0897892
0.0934892
0.0960407
0.0971562
0.0960429
0.0977252
0.142487
0.149833
0.156016
0.160726
0.163799
0.165235
0.165207
0.164074
0.162381
0.160797
0.139857
0.146669
0.152473
0.157013
0.160152
0.161891
0.162374
0.161888
0.160762
0.159208
0.138178
0.144894
0.150665
0.155235
0.158468
0.160356
0.161021
0.160706
0.159588
0.157552
0.136649
0.143549
0.149524
0.154291
0.157697
0.159722
0.160474
0.160175
0.158902
0.156337
0.134925
0.142246
0.148631
0.15375
0.157431
0.15965
0.16051
0.160225
0.158828
0.155885
0.132985
0.140996
0.147989
0.153604
0.157654
0.160129
0.161141
0.160915
0.159473
0.156346
0.131028
0.140012
0.14776
0.153955
0.158421
0.161185
0.16239
0.162277
0.160887
0.157767
0.129486
0.13973
0.148285
0.155041
0.159879
0.162902
0.1643
0.164337
0.163084
0.160144
0.128598
0.140828
0.150141
0.157268
0.162276
0.165414
0.166935
0.167117
0.166056
0.163433
0.133047
0.146478
0.154959
0.161429
0.165979
0.168882
0.170352
0.170611
0.169756
0.16754
0.142519
0.149877
0.156069
0.160784
0.163857
0.165289
0.165251
0.164105
0.162398
0.160796
0.139821
0.146627
0.152427
0.156965
0.160105
0.161848
0.162338
0.161862
0.160757
0.159187
0.138178
0.144898
0.150671
0.155242
0.158474
0.160361
0.161021
0.160705
0.159605
0.157521
0.136656
0.143561
0.149539
0.154306
0.15771
0.159732
0.160478
0.160176
0.158929
0.156297
0.134932
0.142257
0.148642
0.153761
0.15744
0.159656
0.160509
0.160223
0.15886
0.15584
0.132996
0.141008
0.148001
0.153615
0.157664
0.160135
0.16114
0.160914
0.159509
0.156299
0.131051
0.140028
0.147774
0.153967
0.15843
0.161191
0.162388
0.162275
0.160923
0.157719
0.129626
0.139786
0.148308
0.155056
0.159887
0.162905
0.164297
0.164335
0.163118
0.160098
0.128924
0.140844
0.150117
0.15726
0.16227
0.165411
0.16693
0.167114
0.166085
0.163392
0.132937
0.146107
0.154793
0.161382
0.16596
0.168876
0.170347
0.17061
0.169781
0.167506
0.142519
0.149877
0.156069
0.160784
0.163857
0.165289
0.165251
0.164105
0.162398
0.160796
0.139821
0.146627
0.152427
0.156965
0.160105
0.161848
0.162338
0.161862
0.160757
0.159187
0.138178
0.144898
0.150671
0.155242
0.158474
0.160361
0.161021
0.160705
0.159605
0.157521
0.136656
0.143561
0.149538
0.154306
0.15771
0.159732
0.160478
0.160176
0.158929
0.156297
0.134932
0.142257
0.148642
0.153761
0.15744
0.159656
0.160509
0.160223
0.15886
0.15584
0.132996
0.141008
0.148001
0.153615
0.157664
0.160135
0.16114
0.160914
0.159509
0.156299
0.131051
0.140028
0.147774
0.153967
0.15843
0.161191
0.162388
0.162275
0.160923
0.157719
0.129626
0.139786
0.148308
0.155056
0.159887
0.162905
0.164297
0.164335
0.163118
0.160098
0.128924
0.140844
0.150117
0.15726
0.16227
0.165411
0.16693
0.167114
0.166085
0.163391
0.132937
0.146107
0.154793
0.161382
0.16596
0.168876
0.170347
0.17061
0.169781
0.167506
0.142487
0.149833
0.156016
0.160726
0.163799
0.165235
0.165207
0.164074
0.162381
0.160797
0.139857
0.146669
0.152473
0.157013
0.160152
0.161891
0.162374
0.161888
0.160762
0.159208
0.138178
0.144894
0.150665
0.155235
0.158468
0.160356
0.161021
0.160706
0.159588
0.157552
0.136649
0.143549
0.149524
0.154291
0.157697
0.159722
0.160474
0.160175
0.158902
0.156337
0.134925
0.142246
0.148631
0.15375
0.157431
0.15965
0.16051
0.160225
0.158828
0.155885
0.132985
0.140996
0.147989
0.153604
0.157654
0.160129
0.161141
0.160915
0.159473
0.156346
0.131028
0.140012
0.14776
0.153955
0.158421
0.161185
0.16239
0.162277
0.160887
0.157767
0.129486
0.13973
0.148285
0.155041
0.159879
0.162902
0.1643
0.164337
0.163084
0.160144
0.128598
0.140828
0.150141
0.157268
0.162276
0.165414
0.166935
0.167117
0.166056
0.163433
0.133047
0.146478
0.154959
0.161429
0.165979
0.168882
0.170352
0.170611
0.169756
0.16754
0.167072
0.162534
0.164489
0.168019
0.171095
0.173302
0.174507
0.174756
0.174087
0.172315
0.17815
0.172881
0.172907
0.174734
0.176699
0.178276
0.179199
0.179411
0.178912
0.177571
0.183711
0.180606
0.180335
0.181281
0.182514
0.183605
0.184282
0.184453
0.184101
0.183143
0.189163
0.18748
0.187201
0.187676
0.188433
0.189163
0.189642
0.189776
0.189543
0.1889
0.194746
0.19387
0.193671
0.193916
0.194378
0.194857
0.195187
0.195289
0.19515
0.194754
0.200433
0.200017
0.199908
0.200043
0.200323
0.200627
0.200845
0.200921
0.20085
0.200644
0.206224
0.206074
0.206033
0.206105
0.206262
0.206437
0.206565
0.206613
0.20659
0.206528
0.212106
0.212131
0.212123
0.212143
0.212198
0.212262
0.212306
0.212316
0.212318
0.212369
0.218108
0.218239
0.218237
0.218192
0.21814
0.218086
0.218032
0.217987
0.21799
0.218123
0.224264
0.224457
0.224425
0.224283
0.224095
0.223894
0.223712
0.223581
0.223557
0.22374
0.230643
0.230846
0.230734
0.230447
0.230071
0.229672
0.229316
0.229056
0.228965
0.229156
0.237335
0.237474
0.237213
0.236709
0.236075
0.235409
0.234814
0.23437
0.234158
0.234295
0.24446
0.244409
0.243902
0.24309
0.242107
0.241091
0.240182
0.239484
0.239083
0.239072
0.252162
0.251712
0.250824
0.249593
0.248161
0.246707
0.245404
0.244378
0.243698
0.243402
0.260623
0.259393
0.257955
0.256188
0.254213
0.252247
0.250484
0.249056
0.247993
0.247214
0.269953
0.267427
0.265182
0.262765
0.260193
0.257693
0.255447
0.253565
0.251999
0.250491
0.28022
0.275481
0.272161
0.26906
0.265944
0.263001
0.260345
0.258019
0.255837
0.253278
0.291094
0.282791
0.278188
0.274553
0.271147
0.268059
0.265244
0.262601
0.259733
0.255746
0.302542
0.288372
0.282094
0.2783
0.275193
0.272606
0.270187
0.267578
0.264062
0.258239
0.313658
0.288693
0.280689
0.278132
0.276823
0.27607
0.275127
0.273289
0.269391
0.261358
0.167906
0.162676
0.164603
0.168086
0.17112
0.173314
0.174511
0.174758
0.174109
0.172289
0.178291
0.172818
0.172953
0.174779
0.17672
0.17829
0.179206
0.179416
0.17893
0.177553
0.183721
0.180536
0.180345
0.181302
0.182528
0.183616
0.184289
0.184458
0.184115
0.183131
0.189186
0.187451
0.187204
0.187686
0.188442
0.189172
0.189648
0.18978
0.189553
0.188892
0.19476
0.193856
0.19367
0.19392
0.194384
0.194863
0.195191
0.195293
0.195156
0.19475
0.200439
0.200011
0.199907
0.200044
0.200326
0.200631
0.200849
0.200923
0.200854
0.200643
0.206226
0.206072
0.206032
0.206105
0.206263
0.206439
0.206568
0.206615
0.206591
0.206528
0.212106
0.212132
0.212123
0.212143
0.212199
0.212264
0.212307
0.212317
0.212317
0.21237
0.218106
0.218242
0.218236
0.218191
0.21814
0.218087
0.218033
0.217987
0.217988
0.218126
0.224261
0.224461
0.224424
0.224282
0.224095
0.223894
0.223712
0.223581
0.223553
0.223744
0.230638
0.230851
0.230734
0.230446
0.230071
0.229672
0.229316
0.229056
0.22896
0.229161
0.23733
0.237478
0.237212
0.236708
0.236074
0.235408
0.234814
0.23437
0.234154
0.234301
0.244455
0.244411
0.2439
0.243088
0.242105
0.24109
0.240182
0.239485
0.239081
0.239078
0.252158
0.251707
0.25082
0.24959
0.248159
0.246706
0.245404
0.24438
0.2437
0.243406
0.260622
0.259375
0.257949
0.256184
0.254209
0.252245
0.250483
0.249059
0.248002
0.247215
0.269966
0.267389
0.265174
0.262762
0.260189
0.257691
0.255447
0.253571
0.25202
0.250486
0.280271
0.275412
0.272155
0.269059
0.265938
0.262999
0.260345
0.258027
0.255876
0.253264
0.291162
0.282618
0.278164
0.274551
0.271139
0.268059
0.265246
0.262615
0.259797
0.255717
0.30266
0.288047
0.282098
0.278342
0.275207
0.272618
0.270195
0.267599
0.26416
0.25819
0.314992
0.288797
0.280983
0.278316
0.276892
0.276104
0.275143
0.273319
0.269533
0.261282
0.167906
0.162676
0.164603
0.168086
0.17112
0.173314
0.174511
0.174758
0.174109
0.172289
0.178291
0.172818
0.172953
0.174779
0.17672
0.17829
0.179206
0.179416
0.17893
0.177553
0.183721
0.180536
0.180345
0.181302
0.182528
0.183616
0.184289
0.184458
0.184115
0.183131
0.189186
0.187451
0.187204
0.187686
0.188442
0.189172
0.189648
0.18978
0.189553
0.188892
0.19476
0.193856
0.19367
0.19392
0.194384
0.194863
0.195191
0.195293
0.195156
0.19475
0.200439
0.200011
0.199907
0.200044
0.200326
0.200631
0.200849
0.200924
0.200854
0.200643
0.206226
0.206072
0.206032
0.206105
0.206263
0.206439
0.206568
0.206615
0.206591
0.206528
0.212106
0.212132
0.212123
0.212143
0.212199
0.212264
0.212307
0.212317
0.212317
0.21237
0.218106
0.218242
0.218236
0.218191
0.21814
0.218087
0.218033
0.217987
0.217988
0.218126
0.224261
0.224461
0.224424
0.224282
0.224095
0.223894
0.223712
0.223581
0.223553
0.223744
0.230638
0.230851
0.230734
0.230446
0.230071
0.229672
0.229316
0.229056
0.22896
0.229161
0.23733
0.237478
0.237212
0.236708
0.236074
0.235408
0.234814
0.23437
0.234154
0.234301
0.244455
0.244411
0.2439
0.243088
0.242105
0.24109
0.240182
0.239485
0.239081
0.239078
0.252158
0.251707
0.25082
0.24959
0.248159
0.246706
0.245404
0.24438
0.2437
0.243406
0.260622
0.259375
0.257949
0.256184
0.254209
0.252245
0.250483
0.249059
0.248002
0.247215
0.269966
0.267389
0.265174
0.262762
0.260189
0.257691
0.255447
0.253571
0.25202
0.250486
0.280271
0.275412
0.272155
0.269059
0.265938
0.262999
0.260345
0.258027
0.255876
0.253264
0.291162
0.282618
0.278164
0.274551
0.271139
0.268059
0.265246
0.262615
0.259797
0.255717
0.30266
0.288047
0.282098
0.278342
0.275207
0.272618
0.270195
0.267599
0.26416
0.25819
0.314992
0.288797
0.280983
0.278316
0.276892
0.276104
0.275143
0.273319
0.269533
0.261282
0.167072
0.162534
0.164489
0.168019
0.171095
0.173302
0.174507
0.174756
0.174087
0.172315
0.17815
0.172881
0.172907
0.174734
0.176699
0.178276
0.179199
0.179411
0.178912
0.177571
0.183711
0.180606
0.180335
0.181281
0.182514
0.183605
0.184282
0.184453
0.184101
0.183143
0.189163
0.18748
0.187201
0.187676
0.188433
0.189163
0.189642
0.189776
0.189543
0.1889
0.194746
0.19387
0.193671
0.193916
0.194378
0.194857
0.195187
0.195289
0.19515
0.194754
0.200433
0.200017
0.199908
0.200043
0.200323
0.200627
0.200845
0.200921
0.20085
0.200644
0.206224
0.206074
0.206033
0.206105
0.206262
0.206437
0.206565
0.206613
0.20659
0.206528
0.212106
0.212131
0.212123
0.212143
0.212198
0.212262
0.212306
0.212316
0.212318
0.212369
0.218108
0.218239
0.218237
0.218192
0.21814
0.218086
0.218032
0.217987
0.21799
0.218123
0.224264
0.224457
0.224425
0.224283
0.224095
0.223894
0.223712
0.223581
0.223557
0.22374
0.230643
0.230846
0.230734
0.230447
0.230071
0.229672
0.229316
0.229056
0.228965
0.229156
0.237335
0.237474
0.237213
0.236709
0.236075
0.235409
0.234814
0.23437
0.234158
0.234295
0.24446
0.244409
0.243902
0.24309
0.242107
0.241091
0.240182
0.239484
0.239083
0.239072
0.252162
0.251712
0.250824
0.249593
0.248161
0.246707
0.245404
0.244378
0.243698
0.243402
0.260623
0.259393
0.257955
0.256188
0.254213
0.252247
0.250484
0.249056
0.247993
0.247214
0.269953
0.267427
0.265182
0.262765
0.260193
0.257693
0.255447
0.253565
0.251999
0.250491
0.28022
0.275481
0.272161
0.26906
0.265944
0.263001
0.260345
0.258019
0.255837
0.253278
0.291094
0.282791
0.278188
0.274553
0.271147
0.268059
0.265244
0.262601
0.259733
0.255746
0.302542
0.288372
0.282094
0.2783
0.275193
0.272606
0.270187
0.267578
0.264062
0.258239
0.313658
0.288693
0.280689
0.278132
0.276823
0.27607
0.275127
0.273289
0.269391
0.261358
0.252987
0.26162
0.266917
0.271037
0.274602
0.277847
0.280054
0.280222
0.276568
0.26609
0.223866
0.239734
0.250991
0.260552
0.269634
0.278279
0.285344
0.289161
0.286859
0.274001
0.206413
0.221772
0.235148
0.24865
0.263105
0.278065
0.291698
0.301256
0.302095
0.287547
0.192907
0.206751
0.220942
0.237355
0.256776
0.278584
0.300417
0.318265
0.324969
0.310671
0.183063
0.1957
0.210348
0.229076
0.253044
0.281977
0.313552
0.342761
0.359457
0.349839
0.177142
0.189444
0.204901
0.225932
0.25433
0.290683
0.333596
0.378042
0.41115
0.415167
0.174966
0.187997
0.205028
0.228854
0.262028
0.306429
0.362636
0.427337
0.486566
0.520991
0.17566
0.190162
0.209344
0.236393
0.274771
0.32813
0.400142
0.490887
0.590688
0.694496
0.177584
0.193217
0.21384
0.242935
0.28493
0.34573
0.433652
0.556931
0.725749
1.00559
0.178969
0.194102
0.21354
0.240658
0.280154
0.33939
0.432365
0.586608
0.872942
1.49004
0.253323
0.26115
0.266789
0.271026
0.2746
0.277856
0.280058
0.280256
0.276764
0.265977
0.224288
0.239666
0.250928
0.260518
0.269612
0.278274
0.285336
0.289198
0.287122
0.273848
0.20667
0.221791
0.235117
0.248609
0.263065
0.278038
0.291667
0.30129
0.302436
0.287352
0.192997
0.206736
0.220891
0.237287
0.256703
0.278517
0.300343
0.318281
0.32538
0.310432
0.18309
0.195667
0.210278
0.228979
0.25293
0.281855
0.313414
0.342737
0.359891
0.349584
0.177149
0.189407
0.204821
0.225812
0.254172
0.290483
0.333353
0.377924
0.411506
0.415119
0.174981
0.187975
0.204961
0.228731
0.261831
0.306116
0.362205
0.427003
0.486543
0.521479
0.175704
0.190196
0.209366
0.236393
0.274719
0.327929
0.399765
0.490547
0.589381
0.694176
0.177652
0.19333
0.214024
0.243225
0.28536
0.34629
0.434394
0.557534
0.722514
1.00329
0.179019
0.194141
0.213559
0.240661
0.280168
0.339465
0.432722
0.587042
0.869253
1.4993
0.253323
0.26115
0.266789
0.271026
0.2746
0.277856
0.280058
0.280256
0.276764
0.265977
0.224288
0.239666
0.250928
0.260518
0.269612
0.278274
0.285336
0.289198
0.287122
0.273848
0.20667
0.221791
0.235117
0.248609
0.263065
0.278038
0.291667
0.30129
0.302436
0.287352
0.192997
0.206736
0.220891
0.237287
0.256703
0.278517
0.300343
0.318281
0.32538
0.310432
0.18309
0.195667
0.210278
0.228979
0.25293
0.281855
0.313414
0.342737
0.359891
0.349584
0.177149
0.189407
0.204821
0.225812
0.254172
0.290483
0.333353
0.377924
0.411506
0.415119
0.174981
0.187975
0.204961
0.228731
0.261831
0.306116
0.362205
0.427003
0.486543
0.521479
0.175704
0.190196
0.209366
0.236393
0.274719
0.327929
0.399765
0.490547
0.589381
0.694176
0.177652
0.19333
0.214024
0.243225
0.28536
0.34629
0.434394
0.557534
0.722514
1.00329
0.179019
0.194141
0.213559
0.240661
0.280168
0.339465
0.432722
0.587042
0.869253
1.4993
0.252987
0.26162
0.266917
0.271037
0.274602
0.277847
0.280054
0.280222
0.276568
0.26609
0.223866
0.239734
0.250991
0.260552
0.269634
0.278279
0.285344
0.289161
0.286859
0.274001
0.206413
0.221772
0.235148
0.24865
0.263105
0.278065
0.291698
0.301256
0.302095
0.287547
0.192907
0.206751
0.220942
0.237355
0.256776
0.278584
0.300417
0.318265
0.324969
0.310671
0.183063
0.1957
0.210348
0.229076
0.253044
0.281977
0.313552
0.342761
0.359457
0.349839
0.177142
0.189444
0.204901
0.225932
0.25433
0.290683
0.333596
0.378042
0.41115
0.415167
0.174966
0.187997
0.205028
0.228854
0.262028
0.306429
0.362636
0.427337
0.486566
0.520991
0.17566
0.190162
0.209344
0.236393
0.274771
0.32813
0.400142
0.490887
0.590688
0.694496
0.177584
0.193218
0.21384
0.242935
0.28493
0.34573
0.433652
0.556931
0.725749
1.00559
0.178969
0.194102
0.21354
0.240658
0.280154
0.33939
0.432365
0.586608
0.872942
1.49004
-0.153315
-0.13268
-0.114681
-0.0980696
-0.0814726
-0.0646864
-0.0477048
-0.0305645
-0.0133269
0.00393598
0.0211467
0.0382335
0.0551272
0.071779
0.0882136
0.104617
0.121471
0.139812
0.162938
0.20067
-0.139448
-0.125969
-0.111461
-0.0962215
-0.0803011
-0.06391
-0.0471831
-0.0302177
-0.0130984
0.00409954
0.0213106
0.0384748
0.055553
0.0725468
0.0895275
0.106701
0.124466
0.143445
0.165152
0.193065
-0.136282
-0.124282
-0.110583
-0.0957286
-0.0800387
-0.0637762
-0.0471134
-0.0301723
-0.0130466
0.00418856
0.0214723
0.0387549
0.0560028
0.0732087
0.0904111
0.107727
0.12537
0.143637
0.163088
0.184641
-0.137502
-0.125186
-0.111304
-0.0963115
-0.0805151
-0.0641536
-0.0473955
-0.0303603
-0.0131358
0.0042114
0.0216283
0.0390694
0.0564941
0.0738668
0.0911599
0.108361
0.125473
0.142498
0.159496
0.176575
-0.140235
-0.127234
-0.112854
-0.0974762
-0.0813835
-0.0647897
-0.0478453
-0.030654
-0.0132884
0.0041985
0.021763
0.0393615
0.0569415
0.0744323
0.0917356
0.108717
0.12521
0.141004
0.155933
0.169955
-0.142711
-0.129081
-0.114224
-0.0984772
-0.0821038
-0.0652966
-0.0481874
-0.0308636
-0.0133835
0.0042108
0.0218818
0.0395839
0.0572502
0.0747781
0.092012
0.108732
0.124686
0.13955
0.153133
0.165489
-0.143264
-0.129383
-0.114382
-0.0985484
-0.0821231
-0.0652831
-0.0481508
-0.030807
-0.013306
0.00431187
0.0220069
0.0397265
0.0573899
0.0748714
0.0919855
0.10848
0.12406
0.138436
0.151469
0.16337
-0.141009
-0.127478
-0.112851
-0.0973599
-0.0812218
-0.0646096
-0.047651
-0.0304364
-0.0130305
0.00451518
0.02215
0.039809
0.0573992
0.0747835
0.0917694
0.108111
0.123535
0.13782
0.150928
0.163213
-0.135957
-0.123552
-0.109894
-0.0951866
-0.0796551
-0.0634967
-0.0468697
-0.0298944
-0.0126619
0.00475535
0.0222916
0.0398666
0.0573781
0.0746878
0.0916102
0.107919
0.123381
0.137827
0.151289
0.164194
-0.127745
-0.117628
-0.105718
-0.0923042
-0.0777013
-0.0621936
-0.0460141
-0.0293427
-0.0123146
0.00496611
0.0224101
0.0399362
0.0574419
0.0747912
0.0918091
0.108281
0.123979
0.138724
0.152499
0.165627
-0.15369
-0.132561
-0.114666
-0.0980918
-0.0814853
-0.064694
-0.0477101
-0.0305678
-0.0133286
0.00393564
0.0211473
0.0382344
0.0551272
0.0717761
0.088204
0.104597
0.121448
0.139763
0.162607
0.200061
-0.13939
-0.1258
-0.111385
-0.0961848
-0.0802748
-0.0638915
-0.0471705
-0.0302091
-0.0130929
0.00410291
0.0213129
0.0384775
0.0555582
0.0725576
0.0895468
0.106734
0.124526
0.143517
0.165052
0.192806
-0.136342
-0.124256
-0.110558
-0.0957103
-0.0800239
-0.0637655
-0.047106
-0.0301671
-0.0130431
0.00419094
0.0214737
0.0387558
0.0560034
0.0732091
0.0904098
0.107722
0.125364