/*--------------------------------*- C++ -*----------------------------------*\
| =========                 |                                                 |
| \\      /  F ield         | OpenFOAM: The Open Source CFD Toolbox           |
|  \\    /   O peration     | Version:  2.4.0                                 |
|   \\  /    A nd           | Web:      www.OpenFOAM.org                      |
|    \\/     M anipulation  |                                                 |
\*---------------------------------------------------------------------------*/
FoamFile
{
    version     2.0;
    format      ascii;
    class       surfaceScalarField;
    location    "2.6";
    object      phi;
}
// * * * * * * * * * * * * * * * * * * * * * * * * * * * * * * * * * * * * * //

dimensions      [0 3 -1 0 0 0 0];

internalField   nonuniform List<scalar> 
12720
(
1.48993e-07
-1.48812e-07
2.5039e-10
-5.4691e-07
6.94112e-07
1.79071e-09
-2.06697e-06
1.51746e-06
2.59855e-09
-4.16521e-06
2.09493e-06
3.30961e-09
-6.60726e-06
2.43832e-06
3.73302e-09
-9.20028e-06
2.58912e-06
3.90091e-09
-1.17855e-05
2.58137e-06
3.89262e-09
-1.42254e-05
2.43611e-06
3.75162e-09
-1.63998e-05
2.17094e-06
3.411e-09
1.81443e-06
2.85158e-09
-1.8217e-05
-7.25097e-07
5.77656e-07
-1.37082e-09
-3.2811e-06
3.24968e-06
4.356e-10
-7.45357e-06
5.69141e-06
-1.48383e-09
-1.28209e-05
7.46464e-06
-2.36846e-09
-1.89386e-05
8.55882e-06
-2.81393e-09
-2.53917e-05
9.04534e-06
-3.10999e-09
-3.18046e-05
8.99702e-06
-2.77465e-09
-3.78377e-05
8.47213e-06
-2.90318e-09
-4.31991e-05
7.53482e-06
-2.52985e-09
6.29248e-06
-2.17914e-09
-4.76749e-05
-1.6821e-06
2.26222e-06
-2.46185e-09
-6.08447e-06
7.64979e-06
2.26745e-09
-1.26136e-05
1.22204e-05
1.16256e-10
-2.06787e-05
1.55298e-05
-8.69492e-11
-2.9699e-05
1.7579e-05
1.18505e-10
-3.91223e-05
1.84686e-05
1.0382e-10
-4.84267e-05
1.83013e-05
9.88417e-11
-5.71238e-05
1.71691e-05
1.70972e-10
-6.47833e-05
1.5194e-05
2.43763e-10
1.25973e-05
1.49632e-10
-7.10882e-05
-2.46526e-06
4.73107e-06
-3.59877e-09
-8.42638e-06
1.36077e-05
3.17019e-09
-1.69062e-05
2.07002e-05
-6.21009e-12
-2.71284e-05
2.57522e-05
-2.7431e-10
-3.84004e-05
2.88509e-05
8.91702e-11
-5.00747e-05
3.01427e-05
1.29538e-10
-6.1525e-05
2.97515e-05
1.6743e-10
-7.21424e-05
2.77862e-05
2.73897e-10
-8.13651e-05
2.44163e-05
4.72885e-10
1.99917e-05
4.16511e-10
-8.876e-05
-3.01709e-06
7.75256e-06
-4.40228e-09
-1.01142e-05
2.07012e-05
3.71546e-09
-2.00167e-05
3.06031e-05
-4.19907e-10
-3.17933e-05
3.75297e-05
-9.11658e-10
-4.46644e-05
4.17226e-05
-5.49071e-10
-5.79167e-05
4.33955e-05
-5.23615e-10
-7.08474e-05
4.26827e-05
-4.67389e-10
-8.27414e-05
3.96805e-05
-2.72214e-10
-9.28915e-05
3.4566e-05
3.02448e-10
2.77937e-05
5.86605e-10
-0.000100694
-3.31509e-06
1.10724e-05
-4.79619e-09
-1.10472e-05
2.84292e-05
4.1054e-09
-2.17524e-05
4.13089e-05
-5.51508e-10
-3.44044e-05
5.01829e-05
-1.15995e-09
-4.81721e-05
5.54911e-05
-8.02174e-10
-6.2307e-05
5.75311e-05
-7.95967e-10
-7.60597e-05
5.64362e-05
-7.77599e-10
-8.86256e-05
5.2247e-05
-6.23813e-10
-9.91292e-05
4.50692e-05
5.19862e-10
3.53526e-05
1.6262e-09
-0.00010669
-3.3512e-06
1.44285e-05
-4.80537e-09
-1.11783e-05
3.6252e-05
4.20737e-09
-2.20058e-05
5.2137e-05
-5.90339e-10
-3.47815e-05
6.29599e-05
-1.26888e-09
-4.86627e-05
6.93733e-05
-9.65312e-10
-6.29001e-05
7.17695e-05
-1.00108e-09
-7.67375e-05
7.02746e-05
-1.10902e-09
-8.93204e-05
6.48313e-05
-1.33035e-09
-9.96078e-05
5.5356e-05
6.82516e-10
4.20213e-05
4.12382e-09
-0.000106281
-3.13249e-06
1.75654e-05
-4.42771e-09
-1.05153e-05
4.36308e-05
4.03616e-09
-2.07648e-05
6.2387e-05
-5.38977e-10
-3.28622e-05
7.50586e-05
-1.2341e-09
-4.5982e-05
8.2494e-05
-1.00837e-09
-5.93986e-05
8.51871e-05
-1.0258e-09
-7.23913e-05
8.32686e-05
-1.16152e-09
-8.41279e-05
7.657e-05
-2.06133e-09
-9.34875e-05
6.47135e-05
2.00687e-09
4.7055e-05
1.43674e-08
-9.85356e-05
-2.68961e-06
2.02587e-05
-3.69154e-09
-9.14246e-06
5.008e-05
3.6563e-09
-1.81581e-05
7.1403e-05
-3.73775e-10
-2.87848e-05
8.56863e-05
-1.03524e-09
-4.02117e-05
9.39219e-05
-9.51578e-10
-5.17201e-05
9.66966e-05
-1.03508e-09
-6.26246e-05
9.41744e-05
-1.3951e-09
-7.21677e-05
8.6118e-05
-4.86392e-09
-7.93668e-05
7.19141e-05
-1.43181e-09
4.93668e-05
3.22525e-08
-8.17108e-05
-2.0858e-06
-2.68061e-09
2.23472e-05
-7.246e-06
3.15746e-09
5.52371e-05
-1.45135e-05
-6.56813e-11
7.86705e-05
-2.30066e-05
-5.91209e-10
9.418e-05
-3.18843e-05
-6.31721e-10
0.0001028
-4.03325e-05
-9.35089e-10
0.000105146
-4.75422e-05
-1.99324e-09
0.000101386
-5.26044e-05
-1.21577e-08
9.11924e-05
-5.44138e-05
-2.83775e-08
7.37518e-05
9.61136e-09
-5.17883e-05
4.67317e-05
1.50276e-07
-1.50083e-07
5.67153e-11
-5.47567e-07
6.99601e-07
3.29744e-11
-2.06773e-06
1.52275e-06
1.66238e-11
-4.16535e-06
2.10092e-06
7.81611e-12
-6.60715e-06
2.44553e-06
3.58684e-12
-9.20017e-06
2.59692e-06
1.6423e-12
-1.17855e-05
2.5892e-06
7.26326e-13
-1.42255e-05
2.44379e-06
3.3973e-13
-1.64001e-05
2.17803e-06
2.37922e-13
1.82036e-06
2.3236e-13
-1.82176e-05
-7.29866e-07
5.78378e-07
3.28751e-11
-3.28671e-06
3.25686e-06
2.28323e-11
-7.45853e-06
5.69307e-06
1.26702e-11
-1.28243e-05
7.46436e-06
6.24901e-12
-1.89403e-05
8.55865e-06
3.07796e-12
-2.5392e-05
9.0455e-06
1.52275e-12
-3.18033e-05
8.99773e-06
6.73058e-13
-3.78357e-05
8.47328e-06
2.82701e-13
-4.31967e-05
7.53654e-06
2.56865e-13
6.29406e-06
2.60284e-13
-4.76726e-05
-1.68749e-06
2.26339e-06
1.67968e-11
-6.08524e-06
7.65686e-06
1.292e-11
-1.26144e-05
1.22224e-05
7.65613e-12
-2.06797e-05
1.55295e-05
4.03139e-12
-2.96995e-05
1.75786e-05
2.22358e-12
-3.91224e-05
1.84684e-05
1.12349e-12
-4.84263e-05
1.83017e-05
3.60355e-13
-5.71232e-05
1.71704e-05
8.36379e-14
-6.47829e-05
1.51965e-05
1.44947e-13
1.25995e-05
2.18033e-13
-7.10882e-05
-2.47204e-06
4.73182e-06
8.30175e-12
-8.42527e-06
1.36133e-05
6.73597e-12
-1.6905e-05
2.07021e-05
4.38975e-12
-2.71281e-05
2.57524e-05
2.52454e-12
-3.84003e-05
2.88509e-05
1.56796e-12
-5.00746e-05
3.01429e-05
8.93546e-13
-6.15249e-05
2.97521e-05
3.08323e-13
-7.21422e-05
2.7788e-05
1.60288e-13
-8.13656e-05
2.44204e-05
2.73921e-13
1.99957e-05
3.81334e-13
-8.87613e-05
-3.02553e-06
7.75295e-06
4.02027e-12
-1.01128e-05
2.07043e-05
3.47453e-12
-2.00151e-05
3.06039e-05
2.40743e-12
-3.17929e-05
3.75293e-05
1.48996e-12
-4.46644e-05
4.17219e-05
1.03605e-12
-5.79168e-05
4.33947e-05
6.4331e-13
-7.08474e-05
4.26822e-05
2.85057e-13
-8.2741e-05
3.96813e-05
2.56617e-13
-9.28918e-05
3.45715e-05
4.19453e-13
2.78009e-05
4.99063e-13
-0.000100696
-3.32442e-06
1.10726e-05
2.20167e-12
-1.10457e-05
2.84297e-05
2.02678e-12
-2.17508e-05
4.13084e-05
1.54288e-12
-3.44043e-05
5.01817e-05
9.4738e-13
-4.81727e-05
5.54894e-05
7.88271e-13
-6.23079e-05
5.75291e-05
6.51103e-13
-7.60603e-05
5.64339e-05
4.46993e-13
-8.86251e-05
5.22456e-05
4.69595e-13
-9.91295e-05
4.50763e-05
5.62554e-13
3.53672e-05
5.52551e-13
-0.000106694
-3.36061e-06
1.44284e-05
1.57464e-12
-1.11768e-05
3.62501e-05
1.38844e-12
-2.20044e-05
5.21354e-05
1.19582e-12
-3.4782e-05
6.2958e-05
9.16863e-13
-4.86642e-05
6.93706e-05
8.61979e-13
-6.29024e-05
7.17663e-05
8.44548e-13
-7.67397e-05
7.02701e-05
7.28759e-13
-8.93205e-05
6.4825e-05
7.32606e-13
-9.96068e-05
5.53634e-05
7.8244e-13
4.20535e-05
6.11353e-13
-0.000106289
-3.14122e-06
1.75652e-05
1.19049e-12
-1.0514e-05
4.36269e-05
1.00343e-12
-2.07638e-05
6.23847e-05
9.97984e-13
-3.28634e-05
7.50564e-05
8.89041e-13
-4.59848e-05
8.2491e-05
9.21696e-13
-5.94026e-05
8.51831e-05
9.73872e-13
-7.23958e-05
8.32622e-05
8.86414e-13
-8.41281e-05
7.65552e-05
8.2431e-13
-9.34751e-05
6.47123e-05
8.04587e-13
4.71373e-05
6.099e-13
-9.85445e-05
-2.69695e-06
2.02584e-05
8.76814e-13
-9.14119e-06
5.00748e-05
7.35393e-13
-1.81573e-05
7.14004e-05
8.62204e-13
-2.87866e-05
8.56847e-05
8.78363e-13
-4.02164e-05
9.39198e-05
9.46714e-13
-5.17286e-05
9.66942e-05
1.02949e-12
-6.26389e-05
9.41711e-05
9.0453e-13
-7.21873e-05
8.60987e-05
7.02015e-13
-7.9343e-05
7.18666e-05
5.5183e-13
4.94838e-05
5.57052e-13
-8.16573e-05
-2.09115e-06
7.21089e-13
2.23469e-05
-7.24445e-06
6.39892e-13
5.52313e-05
-1.45122e-05
8.31079e-13
7.86681e-05
-2.30075e-05
9.19568e-13
9.41794e-05
-3.18891e-05
9.90578e-13
0.000102801
-4.03443e-05
1.04325e-12
0.000105148
-4.75709e-05
8.78909e-13
0.000101396
-5.26923e-05
5.51476e-13
9.1208e-05
-5.45538e-05
2.85822e-13
7.36997e-05
3.09419e-13
-5.15613e-05
4.6501e-05
1.50244e-07
-1.50115e-07
-7.27141e-11
-5.47582e-07
6.99591e-07
-1.73331e-09
-2.06774e-06
1.52274e-06
-2.57394e-09
-4.16535e-06
2.10092e-06
-3.29894e-09
-6.60715e-06
2.44553e-06
-3.72893e-09
-9.20017e-06
2.59692e-06
-3.89925e-09
-1.17855e-05
2.5892e-06
-3.89246e-09
-1.42255e-05
2.44379e-06
-3.75195e-09
-1.64001e-05
2.17803e-06
-3.4112e-09
1.82036e-06
-2.85166e-09
-1.82176e-05
-7.29876e-07
5.78363e-07
1.42938e-09
-3.28671e-06
3.25685e-06
-3.99899e-10
-7.45853e-06
5.69307e-06
1.50257e-09
-1.28243e-05
7.46436e-06
2.37764e-09
-1.89403e-05
8.55865e-06
2.81803e-09
-2.5392e-05
9.0455e-06
3.11213e-09
-3.18033e-05
8.99773e-06
2.77576e-09
-3.78357e-05
8.47328e-06
2.90354e-09
-4.31967e-05
7.53654e-06
2.53014e-09
6.29406e-06
2.17948e-09
-4.76726e-05
-1.6875e-06
2.26339e-06
2.48765e-09
-6.08524e-06
7.65686e-06
-2.24882e-09
-1.26144e-05
1.22224e-05
-1.05235e-10
-2.06797e-05
1.55295e-05
9.2671e-11
-2.96995e-05
1.75786e-05
-1.15875e-10
-3.91224e-05
1.84684e-05
-1.02178e-10
-4.84263e-05
1.83017e-05
-9.80639e-11
-5.71232e-05
1.71704e-05
-1.70688e-10
-6.47829e-05
1.51965e-05
-2.43469e-10
1.25995e-05
-1.4923e-10
-7.10882e-05
-2.47204e-06
4.73182e-06
3.61151e-09
-8.42527e-06
1.36133e-05
-3.16098e-09
-1.6905e-05
2.07021e-05
1.25891e-11
-2.71281e-05
2.57524e-05
2.78006e-10
-3.84003e-05
2.88509e-05
-8.72265e-11
-5.00746e-05
3.01429e-05
-1.27982e-10
-6.15248e-05
2.97521e-05
-1.66527e-10
-7.21421e-05
2.7788e-05
-2.73416e-10
-8.13655e-05
2.44204e-05
-4.7237e-10
1.99957e-05
-4.15842e-10
-8.87613e-05
-3.02553e-06
7.75295e-06
4.40906e-09
-1.01128e-05
2.07043e-05
-3.7106e-09
-2.00151e-05
3.06039e-05
4.23914e-10
-3.17929e-05
3.75293e-05
9.14199e-10
-4.46644e-05
4.17219e-05
5.50581e-10
-5.79168e-05
4.33947e-05
5.25037e-10
-7.08473e-05
4.26822e-05
4.6828e-10
-8.2741e-05
3.96813e-05
2.72748e-10
-9.28918e-05
3.45715e-05
-3.0185e-10
2.78009e-05
-5.85801e-10
-0.000100696
-3.32441e-06
1.10726e-05
4.80013e-09
-1.10457e-05
2.84296e-05
-4.10275e-09
-2.17508e-05
4.13084e-05
5.53929e-10
-3.44043e-05
5.01817e-05
1.1614e-09
-4.81726e-05
5.54894e-05
8.03035e-10
-6.23078e-05
5.75291e-05
7.96977e-10
-7.60603e-05
5.64339e-05
7.78277e-10
-8.86251e-05
5.22455e-05
6.24163e-10
-9.91294e-05
4.50763e-05
-5.19486e-10
3.53672e-05
-1.62559e-09
-0.000106694
-3.36061e-06
1.44284e-05
4.80854e-09
-1.11768e-05
3.62501e-05
-4.20544e-09
-2.20044e-05
5.21354e-05
5.92179e-10
-3.4782e-05
6.2958e-05
1.27003e-09
-4.86642e-05
6.93706e-05
9.66201e-10
-6.29024e-05
7.17662e-05
1.0022e-09
-7.67397e-05
7.02701e-05
1.10986e-09
-8.93205e-05
6.4825e-05
1.33076e-09
-9.96068e-05
5.53633e-05
-6.82225e-10
4.20535e-05
-4.12335e-09
-0.000106289
-3.14121e-06
1.75652e-05
4.43044e-09
-1.0514e-05
4.36269e-05
-4.03458e-09
-2.07638e-05
6.23847e-05
5.40512e-10
-3.28634e-05
7.50564e-05
1.23518e-09
-4.59847e-05
8.2491e-05
1.00938e-09
-5.94026e-05
8.51831e-05
1.02703e-09
-7.23958e-05
8.32621e-05
1.16248e-09
-8.41281e-05
7.65552e-05
2.06181e-09
-9.34751e-05
6.47123e-05
-2.00663e-09
4.71373e-05
-1.43671e-08
-9.85444e-05
-2.69694e-06
2.02584e-05
3.69374e-09
-9.14119e-06
5.00748e-05
-3.65499e-09
-1.81573e-05
7.14004e-05
3.75048e-10
-2.87866e-05
8.56847e-05
1.03625e-09
-4.02164e-05
9.39198e-05
9.526e-10
-5.17286e-05
9.66942e-05
1.03617e-09
-6.26389e-05
9.41711e-05
1.39587e-09
-7.21873e-05
8.60987e-05
4.86433e-09
-7.9343e-05
7.18666e-05
1.43213e-09
4.94838e-05
-3.2252e-08
-8.16573e-05
-2.09115e-06
2.68234e-09
2.23469e-05
-7.24445e-06
-3.15628e-09
5.52312e-05
-1.45122e-05
6.68562e-11
7.86681e-05
-2.30075e-05
5.92253e-10
9.41794e-05
-3.18891e-05
6.32777e-10
0.000102801
-4.03443e-05
9.35962e-10
0.000105148
-4.75709e-05
1.99376e-09
0.000101396
-5.26923e-05
1.21581e-08
9.1208e-05
-5.45538e-05
2.83782e-08
7.36997e-05
-9.61066e-09
-5.15613e-05
4.6501e-05
1.48865e-07
-1.48938e-07
-5.4695e-07
6.94083e-07
-2.06698e-06
1.51746e-06
-4.16521e-06
2.09492e-06
-6.60726e-06
2.43832e-06
-9.20027e-06
2.58912e-06
-1.17855e-05
2.58137e-06
-1.42254e-05
2.43611e-06
-1.63997e-05
2.17094e-06
1.81443e-06
-1.8217e-05
-7.25126e-07
5.77615e-07
-3.28111e-06
3.24967e-06
-7.45356e-06
5.69141e-06
-1.28209e-05
7.46463e-06
-1.89386e-05
8.55882e-06
-2.53917e-05
9.04534e-06
-3.18046e-05
8.99701e-06
-3.78377e-05
8.47213e-06
-4.3199e-05
7.53482e-06
6.29248e-06
-4.76749e-05
-1.6821e-06
2.2622e-06
-6.08447e-06
7.64978e-06
-1.26136e-05
1.22204e-05
-2.06786e-05
1.55298e-05
-2.96989e-05
1.7579e-05
-3.91222e-05
1.84686e-05
-4.84266e-05
1.83013e-05
-5.71238e-05
1.71691e-05
-6.47833e-05
1.5194e-05
1.25973e-05
-7.10882e-05
-2.46525e-06
4.73107e-06
-8.42637e-06
1.36077e-05
-1.69061e-05
2.07002e-05
-2.71283e-05
2.57522e-05
-3.84003e-05
2.88509e-05
-5.00746e-05
3.01427e-05
-6.1525e-05
2.97515e-05
-7.21423e-05
2.77862e-05
-8.13651e-05
2.44163e-05
1.99917e-05
-8.87599e-05
-3.01708e-06
7.75256e-06
-1.01142e-05
2.07012e-05
-2.00167e-05
3.06031e-05
-3.17932e-05
3.75297e-05
-4.46644e-05
4.17226e-05
-5.79166e-05
4.33955e-05
-7.08474e-05
4.26827e-05
-8.27414e-05
3.96805e-05
-9.28914e-05
3.4566e-05
2.77937e-05
-0.000100694
-3.31508e-06
1.10724e-05
-1.10472e-05
2.84291e-05
-2.17524e-05
4.13089e-05
-3.44044e-05
5.01829e-05
-4.81721e-05
5.54911e-05
-6.23069e-05
5.75311e-05
-7.60596e-05
5.64361e-05
-8.86255e-05
5.2247e-05
-9.91292e-05
4.50692e-05
3.53526e-05
-0.00010669
-3.35119e-06
1.44284e-05
-1.11783e-05
3.6252e-05
-2.20058e-05
5.2137e-05
-3.47815e-05
6.29599e-05
-4.86627e-05
6.93732e-05
-6.29e-05
7.17695e-05
-7.67374e-05
7.02746e-05
-8.93203e-05
6.48313e-05
-9.96078e-05
5.53559e-05
4.20213e-05
-0.000106281
-3.13248e-06
1.75654e-05
-1.05153e-05
4.36308e-05
-2.07648e-05
6.2387e-05
-3.28622e-05
7.50585e-05
-4.5982e-05
8.2494e-05
-5.93985e-05
8.51871e-05
-7.23913e-05
8.32685e-05
-8.41279e-05
7.657e-05
-9.34875e-05
6.47135e-05
4.7055e-05
-9.85355e-05
-2.68961e-06
2.02587e-05
-9.14244e-06
5.008e-05
-1.81581e-05
7.14029e-05
-2.87848e-05
8.56863e-05
-4.02117e-05
9.39219e-05
-5.17201e-05
9.66966e-05
-6.26245e-05
9.41743e-05
-7.21677e-05
8.61179e-05
-7.93668e-05
7.19141e-05
4.93668e-05
-8.17108e-05
-2.0858e-06
2.23471e-05
-7.246e-06
5.5237e-05
-1.45135e-05
7.86705e-05
-2.30066e-05
9.41799e-05
-3.18843e-05
0.0001028
-4.03324e-05
0.000105146
-4.75422e-05
0.000101386
-5.26044e-05
9.11923e-05
-5.44138e-05
7.37518e-05
-5.17883e-05
4.67317e-05
-1.96362e-05
1.41698e-06
2.14441e-09
-2.06784e-05
1.04078e-06
1.49971e-09
-2.14064e-05
7.26933e-07
9.9243e-10
-2.18967e-05
4.89666e-07
6.26266e-10
-2.22222e-05
3.25104e-07
3.84201e-10
-2.24435e-05
2.21134e-07
2.38516e-10
-2.26081e-05
1.64387e-07
1.62803e-10
-2.27519e-05
1.4364e-07
1.37028e-10
-2.29025e-05
1.5053e-07
1.47648e-10
-2.30814e-05
1.78719e-07
1.8604e-10
-2.3304e-05
2.22309e-07
2.46189e-10
-2.35782e-05
2.73863e-07
3.21851e-10
-2.39008e-05
3.22228e-07
4.03536e-10
-2.42517e-05
3.5043e-07
4.75371e-10
-2.45864e-05
3.34192e-07
5.10927e-10
-2.4829e-05
2.42144e-07
4.67487e-10
-2.48696e-05
4.02491e-08
2.90857e-10
-2.45658e-05
-3.03693e-07
-5.13239e-11
-2.37675e-05
-7.97674e-07
-6.54323e-10
-1.4167e-06
-1.56222e-09
-2.23492e-05
-5.11777e-05
4.92169e-06
-1.92575e-09
-5.37672e-05
3.63185e-06
-1.60659e-09
-5.55964e-05
2.5574e-06
-1.26989e-09
-5.68484e-05
1.74264e-06
-9.69525e-10
-5.76954e-05
1.17288e-06
-7.24447e-10
-5.82808e-05
8.07017e-07
-5.44221e-10
-5.87158e-05
5.99851e-07
-4.28267e-10
-5.90845e-05
5.12692e-07
-3.69088e-10
-5.94491e-05
5.15526e-07
-3.56204e-10
-5.98544e-05
5.8442e-07
-3.77498e-10
-6.03283e-05
6.96587e-07
-4.18326e-10
-6.08783e-05
8.24339e-07
-4.59417e-10
-6.14843e-05
9.28664e-07
-4.74493e-10
-6.20868e-05
9.53355e-07
-4.28749e-10
-6.25738e-05
8.21476e-07
-2.79405e-10
-6.2769e-05
4.3731e-07
1.82034e-11
-6.24277e-05
-3.01502e-07
4.9406e-10
-6.12541e-05
-1.47845e-06
1.1357e-09
-5.89395e-05
-3.11416e-06
1.90498e-09
-5.11631e-06
2.62838e-09
-5.52425e-05
-7.59222e-05
9.75584e-06
-2.39848e-10
-7.94158e-05
7.12594e-06
-4.14766e-10
-8.18327e-05
4.97475e-06
-4.5388e-10
-8.34584e-05
3.36879e-06
-4.31147e-10
-8.45433e-05
2.25816e-06
-3.68203e-10
-8.52842e-05
1.54817e-06
-2.93975e-10
-8.5827e-05
1.14284e-06
-2.26805e-10
-8.62771e-05
9.62986e-07
-1.73767e-10
-8.67096e-05
9.48209e-07
-1.35584e-10
-8.71759e-05
1.05076e-06
-1.09576e-10
-8.7705e-05
1.22578e-06
-9.12963e-11
-8.83006e-05
1.42003e-06
-7.50966e-11
-8.8932e-05
1.56017e-06
-5.42678e-11
-8.95207e-05
1.54205e-06
-2.0534e-11
-8.99231e-05
1.22384e-06
3.71623e-11
-8.99145e-05
4.28563e-07
1.27677e-10
-8.91807e-05
-1.03551e-06
2.45529e-10
-8.73309e-05
-3.32863e-06
3.833e-10
-8.39455e-05
-6.5001e-06
5.24705e-10
-1.0384e-05
4.4592e-10
-7.86783e-05
-9.41817e-05
1.51779e-05
-3.77356e-10
-9.78958e-05
1.08406e-05
-6.07333e-10
-0.000100329
7.40906e-06
-6.02715e-10
-0.000101885
4.92533e-06
-5.3589e-10
-0.000102878
3.25095e-06
-4.26617e-10
-0.000103529
2.19981e-06
-3.15843e-10
-0.00010399
1.60401e-06
-2.23944e-10
-0.000104361
1.33433e-06
-1.54452e-10
-0.00010471
1.29702e-06
-1.05081e-10
-0.00010508
1.42087e-06
-7.16375e-11
-0.000105496
1.64131e-06
-4.99212e-11
-0.000105959
1.88335e-06
-3.62044e-11
-0.000106443
2.04415e-06
-2.69477e-11
-0.000106877
1.97632e-06
-1.64779e-11
-0.000107128
1.475e-06
9.74444e-12
-0.000106975
2.75452e-07
6.70106e-11
-0.000106087
-1.92385e-06
1.35192e-10
-0.000104013
-5.40262e-06
2.63789e-10
-0.000100217
-1.02967e-05
5.09132e-10
-1.64127e-05
4.48596e-10
-9.41888e-05
-0.000105939
2.04243e-05
-1.02471e-09
-0.000109151
1.40535e-05
-1.1473e-09
-0.000111012
9.27104e-06
-9.28457e-10
-0.00011206
5.97389e-06
-7.26014e-10
-0.000112649
3.84027e-06
-5.11269e-10
-0.000112991
2.54244e-06
-3.36194e-10
-0.000113209
1.82168e-06
-2.14778e-10
-0.000113371
1.49638e-06
-1.3641e-10
-0.000113517
1.44407e-06
-8.93101e-11
-0.000113674
1.57769e-06
-6.41394e-11
-0.000113855
1.8225e-06
-5.44926e-11
-0.000114066
2.09374e-06
-5.61764e-11
-0.000114296
2.27422e-06
-6.61487e-11
-0.00011451
2.19111e-06
-7.80516e-11
-0.000114629
1.59346e-06
-6.62763e-11
-0.000114489
1.35153e-07
4.30523e-12
-0.000113801
-2.61135e-06
7.03401e-11
-0.000112095
-7.10884e-06
2.61316e-10
-0.000108695
-1.36976e-05
8.93123e-10
-2.23007e-05
1.27494e-09
-0.000102808
-0.000110911
2.46481e-05
-2.19137e-09
-0.000112838
1.59825e-05
-1.8664e-09
-0.000113551
9.9845e-06
-1.16725e-09
-0.000113714
6.13835e-06
-7.81621e-10
-0.000113669
3.79494e-06
-4.59912e-10
-0.000113562
2.43554e-06
-2.42773e-10
-0.000113446
1.70637e-06
-1.20343e-10
-0.000113335
1.38509e-06
-5.54155e-11
-0.000113226
1.33518e-06
-2.38123e-11
-0.000113116
1.46784e-06
-1.17178e-11
-0.000113006
1.7124e-06
-1.23345e-11
-0.000112903
1.99121e-06
-2.33275e-11
-0.000112824
2.19477e-06
-4.49074e-11
-0.000112786
2.15367e-06
-7.60566e-11
-0.000112798
1.60516e-06
-9.3642e-11
-0.000112815
1.52761e-07
-5.30985e-11
-0.000112672
-2.75435e-06
-2.5623e-11
-0.000111958
-7.82387e-06
1.47897e-10
-0.000109868
-1.57889e-05
1.53355e-09
-2.70205e-05
3.23236e-09
-0.000105151
-0.000108436
2.68096e-05
-5.83418e-09
-0.000108234
1.57838e-05
-3.84438e-09
-0.000107313
9.06592e-06
-1.77312e-09
-0.000106374
5.19949e-06
-9.24357e-10
-0.000105619
3.04082e-06
-3.92693e-10
-0.000105055
1.8719e-06
-1.21373e-10
-0.000104626
1.27731e-06
-1.4815e-11
-0.000104269
1.02812e-06
2.02199e-11
-0.000103933
9.9906e-07
2.45542e-11
-0.000103583
1.11734e-06
1.48748e-11
-0.000103201
1.33078e-06
-3.21031e-12
-0.000102794
1.58445e-06
-2.9236e-11
-0.000102398
1.79841e-06
-6.45165e-11
-0.000102084
1.84024e-06
-1.12382e-10
-0.000101964
1.48512e-06
-1.49932e-10
-0.000102164
3.52901e-07
-7.99445e-11
-0.000102745
-2.17387e-06
9.46238e-11
-0.000103521
-7.04843e-06
4.68779e-10
-0.0001037
-1.56131e-05
3.69888e-09
-2.93428e-05
8.87932e-09
-0.000101387
-9.7159e-05
2.54429e-05
-9.91455e-09
-9.40279e-05
1.26568e-05
-4.01766e-09
-9.13013e-05
6.34012e-06
-8.11709e-10
-8.93671e-05
3.26561e-06
-3.10032e-10
-8.80862e-05
1.75989e-06
3.9323e-11
-8.72394e-05
1.02486e-06
1.62536e-10
-8.6643e-05
6.80799e-07
1.53724e-10
-8.6165e-05
5.49986e-07
1.2644e-10
-8.57147e-05
5.4862e-07
1.04768e-10
-8.52322e-05
6.34809e-07
8.95902e-11
-8.46843e-05
7.82744e-07
7.71654e-11
-8.40669e-05
9.67063e-07
6.14801e-11
-8.34174e-05
1.14887e-06
3.32359e-11
-8.2834e-05
1.2568e-06
-3.3654e-11
-8.25024e-05
1.15373e-06
-1.32186e-10
-8.27187e-05
5.69226e-07
-4.508e-11
-8.38525e-05
-1.04024e-06
1.24123e-10
-8.62131e-05
-4.68739e-06
-4.53171e-10
-8.9469e-05
-1.23604e-05
3.27448e-09
-2.76397e-05
1.41957e-08
-9.11863e-05
-7.42324e-05
1.79769e-05
-1.23952e-08
-6.79878e-05
6.40666e-06
5.4869e-09
-6.41469e-05
2.49311e-06
6.13157e-09
-6.19373e-05
1.05341e-06
2.61156e-09
-6.06674e-05
4.88566e-07
1.34837e-09
-5.99038e-05
2.60479e-07
8.16843e-10
-5.93942e-05
1.70697e-07
5.12002e-10
-5.899e-05
1.45357e-07
3.86716e-10
-5.85988e-05
1.57098e-07
3.71022e-10
-5.816e-05
1.956e-07
4.17461e-10
-5.76342e-05
2.56473e-07
5.01271e-10
-5.7004e-05
3.36229e-07
6.01031e-10
-5.62843e-05
4.28431e-07
6.79248e-10
-5.55458e-05
5.17714e-07
6.39149e-10
-5.49588e-05
5.6633e-07
3.5683e-10
-5.48759e-05
4.86506e-07
-1.01652e-10
-5.58715e-05
-4.29919e-08
-1.65442e-09
-5.89751e-05
-1.57621e-06
-7.59985e-09
-6.52642e-05
-6.06107e-06
-1.02896e-08
-1.91813e-05
1.53891e-08
-7.3738e-05
-3.37427e-05
-6.8653e-08
-2.73245e-05
-1.16212e-08
-2.48305e-05
-8.26194e-10
-2.37752e-05
-1.86823e-09
-2.32855e-05
-1.21282e-09
-2.30244e-05
-5.67923e-10
-2.28534e-05
-3.2043e-10
-2.27078e-05
-2.26573e-10
-2.25505e-05
-2.00371e-10
-2.23547e-05
-2.20207e-10
-2.2098e-05
-2.72538e-10
-2.17614e-05
-3.44166e-10
-2.13325e-05
-4.16248e-10
-2.08144e-05
-4.5545e-10
-2.02477e-05
-3.46806e-10
-1.97614e-05
2.20115e-10
-1.98052e-05
7.70907e-10
-2.13788e-05
-2.5226e-09
-2.7445e-05
5.0649e-09
8.66289e-08
-4.67129e-05
-1.96368e-05
1.42126e-06
1.96441e-13
-2.06789e-05
1.04367e-06
1.86089e-13
-2.14067e-05
7.28797e-07
2.07836e-13
-2.18969e-05
4.90807e-07
2.19628e-13
-2.22223e-05
3.25786e-07
2.08047e-13
-2.24436e-05
2.21557e-07
1.55969e-13
-2.26082e-05
1.6469e-07
1.00035e-13
-2.27519e-05
1.43922e-07
3.6364e-14
-2.29027e-05
1.50857e-07
-3.77979e-14
-2.30816e-05
1.7914e-07
-9.70654e-14
-2.33042e-05
2.22858e-07
-1.33605e-13
-2.35785e-05
2.74558e-07
-1.15671e-13
-2.39011e-05
3.23061e-07
-5.47822e-14
-2.4252e-05
3.51359e-07
1.63675e-14
-2.45866e-05
3.35128e-07
8.41603e-14
-2.48291e-05
2.42946e-07
1.52642e-13
-2.48693e-05
4.04841e-08
2.3394e-13
-2.45654e-05
-3.03919e-07
3.40307e-13
-2.37671e-05
-7.98982e-07
4.57959e-13
-1.4197e-06
5.70743e-13
-2.2349e-05
-5.11752e-05
4.92196e-06
2.4382e-13
-5.37647e-05
3.63151e-06
2.30511e-13
-5.55941e-05
2.55696e-06
2.31284e-13
-5.68465e-05
1.74225e-06
2.51926e-13
-5.7694e-05
1.17259e-06
2.43545e-13
-5.82799e-05
8.06827e-07
1.92449e-13
-5.87153e-05
5.99733e-07
1.19039e-13
-5.90844e-05
5.1261e-07
3.94789e-14
-5.94493e-05
5.15444e-07
-3.61444e-14
-5.98549e-05
5.84299e-07
-8.74072e-14
-6.03288e-05
6.9639e-07
-9.82272e-14
-6.08787e-05
8.24031e-07
-5.48012e-14
-6.14844e-05
9.28219e-07
2.61837e-14
-6.20862e-05
9.52785e-07
1.13113e-13
-6.25722e-05
8.20859e-07
2.01245e-13
-6.27661e-05
4.36816e-07
2.80627e-13
-6.24235e-05
-3.01635e-07
3.65102e-13
-6.12486e-05
-1.47768e-06
4.56318e-13
-5.89335e-05
-3.1122e-06
5.37198e-13
-5.11381e-06
5.9292e-13
-5.52367e-05
-7.59214e-05
9.75495e-06
2.32188e-13
-7.94144e-05
7.12409e-06
1.93946e-13
-8.18311e-05
4.97313e-06
1.54779e-13
-8.34568e-05
3.36758e-06
1.69252e-13
-8.4542e-05
2.25738e-06
1.94356e-13
-8.52832e-05
1.54773e-06
1.77239e-13
-8.58263e-05
1.14262e-06
1.11235e-13
-8.62767e-05
9.62868e-07
3.02332e-14
-8.67095e-05
9.48113e-07
-1.1591e-14
-8.7176e-05
1.05061e-06
-1.45777e-14
-8.77052e-05
1.22551e-06
-4.37174e-15
-8.83008e-05
1.41957e-06
7.68985e-15
-8.89321e-05
1.55947e-06
1.77835e-14
-8.95204e-05
1.54109e-06
2.01284e-14
-8.99223e-05
1.22273e-06
2.45885e-14
-8.99129e-05
4.27573e-07
3.94228e-14
-8.91783e-05
-1.03598e-06
7.94004e-14
-8.73278e-05
-3.32776e-06
1.54172e-13
-8.39425e-05
-6.49703e-06
2.58935e-13
-1.038e-05
3.8575e-13
-7.86759e-05
-9.41815e-05
1.51747e-05
3.9006e-13
-9.78942e-05
1.08362e-05
3.09121e-13
-0.000100327
7.40577e-06
1.90984e-13
-0.000101884
4.92312e-06
1.17342e-13
-0.000102876
3.24964e-06
1.11444e-13
-0.000103528
2.19914e-06
1.1045e-13
-0.000103989
1.60371e-06
5.04999e-14
-0.000104361
1.33422e-06
-1.99813e-14
-0.00010471
1.29696e-06
-1.87585e-14
-0.00010508
1.42077e-06
4.08065e-14
-0.000105496
1.64108e-06
7.89314e-14
-0.000105959
1.8829e-06
6.16408e-14
-0.000106443
2.04338e-06
6.22744e-15
-0.000106877
1.97518e-06
-6.5969e-14
-0.000107128
1.47359e-06
-1.38439e-13
-0.000106974
2.74153e-07
-1.8145e-13
-0.000106085
-1.92481e-06
-1.65603e-13
-0.000104011
-5.40187e-06
-6.95425e-14
-0.000100215
-1.02923e-05
8.42634e-14
-1.64066e-05
2.69648e-13
-9.41882e-05
-0.000105939
2.04158e-05
4.97735e-13
-0.000109148
1.40448e-05
4.27783e-13
-0.000111009
9.2657e-06
3.07912e-13
-0.000112057
5.97074e-06
1.63632e-13
-0.000112647
3.83862e-06
9.91601e-14
-0.00011299
2.54171e-06
8.41451e-14
-0.000113208
1.82142e-06
8.59254e-15
-0.00011337
1.49633e-06
-1.05294e-13
-0.000113517
1.44407e-06
-1.2744e-13
-0.000113674
1.57764e-06
-5.0104e-14
-0.000113855
1.8223e-06
5.91528e-15
-0.000114066
2.09328e-06
-5.96087e-16
-0.000114296
2.27339e-06
-7.08526e-14
-0.000114511
2.1898e-06
-1.58217e-13
-0.000114629
1.59167e-06
-2.12903e-13
-0.000114488
1.33625e-07
-1.90923e-13
-0.0001138
-2.61311e-06
-6.53312e-14
-0.000112093
-7.10861e-06
1.48021e-13
-0.000108693
-1.36909e-05
3.57413e-13
-2.22897e-05
4.85189e-13
-0.000102809
-0.000110909
2.4628e-05
4.66287e-13
-0.000112833
1.59673e-05
3.96554e-13
-0.000113546
9.97766e-06
3.38017e-13
-0.000113711
6.13514e-06
2.03231e-13
-0.000113667
3.79362e-06
1.64214e-13
-0.00011356
2.43516e-06
1.99602e-13
-0.000113445
1.70636e-06
1.91858e-13
-0.000113334
1.3852e-06
5.29974e-14
-0.000113226
1.33528e-06
-6.14023e-14
-0.000113116
1.46786e-06
-5.94987e-14
-0.000113006
1.71227e-06
-4.61625e-14
-0.000112903
1.99083e-06
-8.62636e-14
-0.000112824
2.19399e-06
-1.9602e-13
-0.000112787
2.15233e-06
-2.98072e-13
-0.000112798
1.60313e-06
-3.19644e-13
-0.000112815
1.50874e-07
-2.16755e-13
-0.000112671
-2.75731e-06
-7.72265e-15
-0.000111955
-7.82514e-06
2.25793e-13
-0.000109865
-1.57788e-05
3.35707e-13
-2.69977e-05
2.70391e-13
-0.000105154
-0.000108429
2.67621e-05
3.51855e-13
-0.000108224
1.57582e-05
2.23516e-13
-0.000107307
9.05908e-06
2.28709e-13
-0.00010637
5.19762e-06
9.63445e-14
-0.000105618
3.04055e-06
9.31829e-14
-0.000105055
1.87217e-06
1.89416e-13
-0.000104626
1.27763e-06
2.85649e-13
-0.000104269
1.02836e-06
2.37062e-13
-0.000103933
9.99202e-07
1.13196e-13
-0.000103583
1.11737e-06
4.53344e-14
-0.000103201
1.33065e-06
-6.14227e-15
-0.000102794
1.58409e-06
-1.08667e-13
-0.000102398
1.79768e-06
-2.4824e-13
-0.000102085
1.8389e-06
-3.41627e-13
-0.000101965
1.48295e-06
-3.16513e-13
-0.000102164
3.50327e-07
-1.97037e-13
-0.000102744
-2.17791e-06
-7.05574e-14
-0.000103517
-7.0515e-06
2.93283e-14
-0.000103696
-1.55958e-05
-2.90312e-16
-2.92885e-05
-2.68228e-13
-0.000101396
-9.71448e-05
2.53525e-05
3.77889e-13
-9.40177e-05
1.26271e-05
1.32842e-13
-9.1298e-05
6.33858e-06
5.26252e-14
-8.9367e-05
3.2663e-06
-1.48319e-13
-8.8087e-05
1.76051e-06
-9.98512e-14
-8.724e-05
1.0254e-06
5.77187e-14
-8.66434e-05
6.81145e-07
1.80217e-13
-8.61651e-05
5.50175e-07
1.81595e-13
-8.57145e-05
5.48712e-07
1.01063e-13
-8.52318e-05
6.34828e-07
3.2967e-14
-8.46838e-05
7.82685e-07
-4.77735e-14
-8.40665e-05
9.6689e-07
-1.71736e-13
-8.34173e-05
1.1485e-06
-2.81201e-13
-8.28345e-05
1.25605e-06
-2.94906e-13
-8.2504e-05
1.15228e-06
-2.10016e-13
-8.27207e-05
5.67051e-07
-1.73639e-13
-8.38561e-05
-1.04237e-06
-2.55194e-13
-8.62157e-05
-4.69236e-06
-2.69324e-13
-8.94668e-05
-1.23415e-05
-3.45106e-13
-2.75391e-05
-6.77711e-13
-9.12019e-05
-7.42142e-05
1.7897e-05
5.67297e-13
-6.79955e-05
6.41383e-06
4.23812e-13
-6.41557e-05
2.50494e-06
4.49172e-13
-6.19438e-05
1.05699e-06
1.50918e-13
-6.06712e-05
4.89256e-07
1.02318e-14
-5.99057e-05
2.60706e-07
1.02443e-13
-5.93949e-05
1.70885e-07
1.88487e-13
-5.89899e-05
1.45595e-07
1.69111e-13
-5.85983e-05
1.5744e-07
8.97079e-14
-5.81591e-05
1.96098e-07
8.65884e-15
-5.76331e-05
2.57192e-07
-9.28813e-14
-5.70029e-05
3.37244e-07
-1.95808e-13
-5.62835e-05
4.29834e-07
-2.19931e-13
-5.55465e-05
5.19623e-07
-1.37576e-13
-5.49625e-05
5.68699e-07
-8.40855e-14
-5.48823e-05
4.86682e-07
-2.63048e-13
-5.58866e-05
-3.97491e-08
-6.07304e-13
-5.90013e-05
-1.5852e-06
-8.2884e-13
-6.52798e-05
-6.07325e-06
-1.19956e-12
-1.91175e-05
-1.49543e-12
-7.3686e-05
-3.37329e-05
3.05337e-14
-2.73307e-05
-6.38532e-14
-2.48266e-05
3.48956e-14
-2.37715e-05
9.67681e-14
-2.32834e-05
1.17447e-13
-2.30233e-05
1.82104e-13
-2.28527e-05
2.16922e-13
-2.27074e-05
1.79272e-13
-2.25501e-05
1.0484e-13
-2.23543e-05
1.17328e-14
-2.20973e-05
-9.10386e-14
-2.17604e-05
-1.4961e-13
-2.1331e-05
-1.02642e-13
-2.08118e-05
-9.04885e-15
-2.02435e-05
-6.74303e-14
-1.97566e-05
-4.20864e-13
-1.97956e-05
-1.00147e-12
-2.13833e-05
-1.29067e-12
-2.74515e-05
-1.3116e-12
-1.55472e-12
-4.64824e-05
-1.96368e-05
1.42126e-06
-2.1445e-09
-2.06789e-05
1.04367e-06
-1.49981e-09
-2.14067e-05
7.28797e-07
-9.92478e-10
-2.18969e-05
4.90807e-07
-6.26234e-10
-2.22223e-05
3.25786e-07
-3.84101e-10
-2.24436e-05
2.21557e-07
-2.38438e-10
-2.26081e-05
1.6469e-07
-1.62771e-10
-2.27519e-05
1.43922e-07
-1.37073e-10
-2.29026e-05
1.50857e-07
-1.47782e-10
-2.30816e-05
1.7914e-07
-1.8629e-10
-2.33042e-05
2.22858e-07
-2.46529e-10
-2.35784e-05
2.74558e-07
-3.22216e-10
-2.39011e-05
3.23061e-07
-4.03858e-10
-2.4252e-05
3.51358e-07
-4.75573e-10
-2.45866e-05
3.35128e-07
-5.10947e-10
-2.48291e-05
2.42946e-07
-4.6728e-10
-2.48693e-05
4.04842e-08
-2.90373e-10
-2.45654e-05
-3.03919e-07
5.2126e-11
-2.37671e-05
-7.98982e-07
6.55487e-10
-1.4197e-06
1.56375e-09
-2.23489e-05
-5.11752e-05
4.92196e-06
1.92606e-09
-5.37647e-05
3.63151e-06
1.60684e-09
-5.55941e-05
2.55696e-06
1.27014e-09
-5.68465e-05
1.74225e-06
9.69814e-10
-5.7694e-05
1.17259e-06
7.24819e-10
-5.82798e-05
8.06827e-07
5.4457e-10
-5.87153e-05
5.99732e-07
4.28546e-10
-5.90844e-05
5.1261e-07
3.69242e-10
-5.94493e-05
5.15443e-07
3.56249e-10
-5.98548e-05
5.84298e-07
3.77466e-10