/*--------------------------------*- C++ -*----------------------------------*\
| =========                 |                                                 |
| \\      /  F ield         | OpenFOAM: The Open Source CFD Toolbox           |
|  \\    /   O peration     | Version:  2.4.0                                 |
|   \\  /    A nd           | Web:      www.OpenFOAM.org                      |
|    \\/     M anipulation  |                                                 |
\*---------------------------------------------------------------------------*/
FoamFile
{
    version     2.0;
    format      ascii;
    class       volVectorField;
    location    "2.6";
    object      U;
}
// * * * * * * * * * * * * * * * * * * * * * * * * * * * * * * * * * * * * * //

dimensions      [0 1 -1 0 0 0 0];

internalField   nonuniform List<vector> 
4800
(
(0.000301515 -0.000304644 4.08946e-07)
(6.20693e-06 0.000160644 0.000216392)
(-0.00185148 0.000664394 0.000440837)
(-0.00482837 0.00100404 0.000605633)
(-0.00853127 0.00119633 0.000667241)
(-0.0126215 0.0012789 0.0006055)
(-0.0168184 0.00127911 0.000414263)
(-0.0208858 0.00121061 9.41553e-05)
(-0.0246154 0.00108084 -0.000348684)
(-0.027832 0.000901828 -0.000901258)
(-0.000185698 -6.72579e-06 -0.00021455)
(-0.0024799 0.00239165 5.90662e-06)
(-0.00803058 0.00472345 0.000172087)
(-0.0158512 0.00640177 0.000269427)
(-0.0252029 0.00742334 0.000280008)
(-0.0354123 0.00788117 0.000188029)
(-0.0458452 0.00786133 -1.30965e-05)
(-0.0559265 0.00742349 -0.000325603)
(-0.0651423 0.00662292 -0.000748027)
(-0.0730704 0.0055488 -0.00127368)
(-0.000776435 0.00197774 -0.000444127)
(-0.00518408 0.00805946 -0.000153302)
(-0.0141985 0.0134609 1.37155e-05)
(-0.026148 0.0174059 8.96224e-05)
(-0.0400382 0.019858 8.29082e-05)
(-0.0550062 0.0209479 -1.52657e-05)
(-0.0701917 0.0208176 -0.000209131)
(-0.0847788 0.0195893 -0.000502381)
(-0.0980163 0.0174095 -0.000897956)
(-0.109274 0.014527 -0.0013953)
(-0.00124824 0.00537129 -0.000598235)
(-0.00743276 0.0165018 -0.000222145)
(-0.019366 0.0256884 -3.1461e-05)
(-0.0346776 0.0323094 4.64861e-05)
(-0.0521369 0.0364032 4.19601e-05)
(-0.0707492 0.0381577 -4.79595e-05)
(-0.0895008 0.037757 -0.00022583)
(-0.107395 0.0353698 -0.000497917)
(-0.123474 0.0312365 -0.000873341)
(-0.136884 0.0258084 -0.00136013)
(-0.00157043 0.0098423 -0.000602958)
(-0.00903486 0.0271144 -0.000152938)
(-0.0231076 0.040613 6.29136e-05)
(-0.0408615 0.0501528 0.000153154)
(-0.0608743 0.0559733 0.00016385)
(-0.0820584 0.0583548 9.55427e-05)
(-0.103296 0.0575084 -5.51798e-05)
(-0.12345 0.0536124 -0.000300012)
(-0.141363 0.0469655 -0.000658061)
(-0.155889 0.0382216 -0.00115273)
(-0.0017379 0.0150018 -0.00040961)
(-0.00990688 0.0391653 9.5462e-05)
(-0.0251862 0.0573474 0.000332134)
(-0.0443205 0.0699693 0.000441831)
(-0.0657694 0.0775652 0.000480016)
(-0.088395 0.0805398 0.000448012)
(-0.111024 0.0791127 0.000338348)
(-0.132428 0.0734133 0.000130059)
(-0.151265 0.0637093 -0.000211503)
(-0.165975 0.0507721 -0.000739932)
(-0.00175148 0.0204303 5.15305e-06)
(-0.0100163 0.0518085 0.000543517)
(-0.0254841 0.0748394 0.00079351)
(-0.0448272 0.0906117 0.000927726)
(-0.0664716 0.100001 0.00100513)
(-0.0892747 0.103557 0.00102581)
(-0.112065 0.10149 0.000975257)
(-0.133596 0.0938032 0.000819417)
(-0.152428 0.0805754 0.000502274)
(-0.166441 0.0624258 -9.0448e-05)
(-0.00161845 0.0257068 0.0006415)
(-0.0093804 0.0641641 0.00119151)
(-0.0240072 0.0919648 0.00144609)
(-0.0423352 0.110822 0.00160836)
(-0.0628253 0.12195 0.00173604)
(-0.0843573 0.126059 0.0018274)
(-0.105803 0.123346 0.00185952)
(-0.125994 0.113627 0.00178324)
(-0.143622 0.0965809 0.00152047)
(-0.155975 0.0720659 0.000840661)
(-0.0013588 0.030438 0.00147731)
(-0.00808761 0.0753906 0.00202007)
(-0.0209333 0.10761 0.00227035)
(-0.037076 0.129295 0.00246188)
(-0.0550378 0.141949 0.00264788)
(-0.0736928 0.14645 0.00282614)
(-0.0919211 0.143033 0.00296614)
(-0.108646 0.13137 0.00300291)
(-0.123078 0.110685 0.00284808)
(-0.13234 0.0792384 0.00206669)
(-0.00101145 0.0343039 0.00247063)
(-0.00632102 0.0847808 0.00299266)
(-0.0166702 0.120795 0.00322997)
(-0.029687 0.144804 0.00344792)
(-0.0439291 0.158481 0.00369412)
(-0.05815 0.162834 0.00397079)
(-0.0710218 0.158187 0.00424935)
(-0.0811727 0.144198 0.00446104)
(-0.0883134 0.119952 0.00457435)
(-0.0914257 0.0827203 0.0039692)
(0.000306386 -0.000309218 2.17848e-07)
(1.31875e-05 0.000154766 1.4196e-06)
(-0.0018478 0.00065047 2.03695e-06)
(-0.0048258 0.000984416 2.58416e-06)
(-0.00852984 0.00117357 2.91078e-06)
(-0.0126211 0.00125461 3.04004e-06)
(-0.0168186 0.0012547 3.0328e-06)
(-0.0208868 0.00118758 2.92263e-06)
(-0.0246177 0.00106024 2.65718e-06)
(-0.0278353 0.000884274 2.22142e-06)
(-0.000178395 -1.41058e-05 -1.04329e-06)
(-0.00247693 0.00238963 3.56103e-07)
(-0.00803809 0.00471228 -1.14432e-06)
(-0.015856 0.00638553 -1.83721e-06)
(-0.0252053 0.0074053 -2.18606e-06)
(-0.0354132 0.00786232 -2.4176e-06)
(-0.0458443 0.00784262 -2.50304e-06)
(-0.0559244 0.00740595 -2.25781e-06)
(-0.0651402 0.00660742 -1.96747e-06)
(-0.0730693 0.0055354 -1.69469e-06)
(-0.00076054 0.00197218 -1.90475e-06)
(-0.0051729 0.00806597 1.77366e-06)
(-0.0142054 0.013464 9.64969e-08)
(-0.0261502 0.0174092 -6.43716e-08)
(-0.0400383 0.0198632 9.40345e-08)
(-0.0550061 0.0209542 8.16937e-08)
(-0.0701909 0.0208244 7.71444e-08)
(-0.0847776 0.0195962 1.33026e-07)
(-0.0980161 0.0174164 1.89675e-07)
(-0.109276 0.0145327 1.16515e-07)
(-0.00122546 0.00536648 -2.79676e-06)
(-0.00741654 0.0165058 2.47116e-06)
(-0.0193751 0.0256876 -1.25729e-09)
(-0.0346795 0.0323068 -2.11281e-07)
(-0.052136 0.036401 7.06782e-08)
(-0.0707484 0.038156 1.01485e-07)
(-0.0894995 0.0377558 1.30458e-07)
(-0.107393 0.0353696 2.13121e-07)
(-0.123474 0.0312384 3.67977e-07)
(-0.136889 0.0258105 3.24213e-07)
(-0.00154314 0.00983927 -3.42598e-06)
(-0.00901645 0.0271167 2.89263e-06)
(-0.02312 0.0406111 -3.24615e-07)
(-0.0408646 0.0501488 -7.07889e-07)
(-0.0608734 0.0559689 -4.26235e-07)
(-0.0820573 0.0583502 -4.06753e-07)
(-0.103293 0.057504 -3.63341e-07)
(-0.123446 0.0536093 -2.11566e-07)
(-0.14136 0.0469668 2.35531e-07)
(-0.155897 0.0382251 4.56607e-07)
(-0.00170813 0.0150009 -3.73422e-06)
(-0.00988746 0.0391666 3.1947e-06)
(-0.0252009 0.0573463 -4.27738e-07)
(-0.0443247 0.0699669 -9.01427e-07)
(-0.0657689 0.0775622 -6.23306e-07)
(-0.0883941 0.0805363 -6.18601e-07)
(-0.111021 0.0791086 -6.04485e-07)
(-0.132421 0.0734098 -4.8483e-07)
(-0.151259 0.0637138 4.04807e-07)
(-0.165989 0.050784 1.26526e-06)
(-0.00172141 0.0204315 -3.74193e-06)
(-0.00999715 0.0518087 3.27347e-06)
(-0.0255 0.0748393 -4.58243e-07)
(-0.0448322 0.0906109 -9.86233e-07)
(-0.0664717 0.0999993 -7.5014e-07)
(-0.0892746 0.103555 -7.7796e-07)
(-0.112063 0.101486 -8.61991e-07)
(-0.133583 0.0937985 -1.03409e-06)
(-0.15241 0.0805861 5.31505e-07)
(-0.166471 0.062464 3.20793e-06)
(-0.00159023 0.02571 -3.44813e-06)
(-0.00936277 0.0641635 3.13993e-06)
(-0.0240229 0.0919657 -4.18493e-07)
(-0.0423407 0.110823 -9.5921e-07)
(-0.0628262 0.121951 -7.83563e-07)
(-0.0843583 0.126058 -7.9705e-07)
(-0.105802 0.123341 -9.02677e-07)
(-0.125971 0.113612 -1.60257e-06)
(-0.14357 0.0965768 1.56157e-06)
(-0.156022 0.0721266 1.11751e-05)
(-0.00133426 0.030443 -2.87497e-06)
(-0.00807249 0.0753895 2.84424e-06)
(-0.0209476 0.107612 -2.90123e-07)
(-0.0370817 0.129299 -8.04547e-07)
(-0.0550399 0.141953 -7.39352e-07)
(-0.0736973 0.146453 -8.04212e-07)
(-0.0919322 0.143031 -1.08433e-06)
(-0.108629 0.131337 -3.78247e-06)
(-0.122973 0.11061 -1.11318e-06)
(-0.132388 0.079208 2.50857e-05)
(-0.000991802 0.0343099 -2.08763e-06)
(-0.00630883 0.0847795 2.45618e-06)
(-0.0166814 0.120798 -5.05175e-08)
(-0.0296911 0.144811 -4.59141e-07)
(-0.0439305 0.158494 -4.90538e-07)
(-0.0581569 0.162857 -7.26423e-07)
(-0.071055 0.158231 -1.54957e-06)
(-0.081214 0.144263 -9.45554e-06)
(-0.0882248 0.120014 -2.20712e-05)
(-0.0915044 0.0828384 7.47569e-06)
(0.00030636 -0.000309243 -1.19442e-08)
(1.31496e-05 0.00015476 -1.32543e-06)
(-0.00184782 0.000650469 -1.99215e-06)
(-0.00482581 0.000984416 -2.56355e-06)
(-0.00852983 0.00117357 -2.90168e-06)
(-0.0126211 0.00125461 -3.03588e-06)
(-0.0168186 0.0012547 -3.03137e-06)
(-0.0208868 0.00118758 -2.92226e-06)
(-0.0246177 0.00106024 -2.65696e-06)
(-0.0278353 0.000884274 -2.22111e-06)
(-0.000178401 -1.41432e-05 1.13791e-06)
(-0.00247694 0.00238962 -2.9373e-07)
(-0.00803809 0.00471228 1.17844e-06)
(-0.015856 0.00638553 1.8542e-06)
(-0.0252053 0.0074053 2.19435e-06)
(-0.0354132 0.00786232 2.42183e-06)
(-0.0458443 0.00784262 2.5048e-06)
(-0.0559243 0.00740595 2.25853e-06)
(-0.0651402 0.00660742 1.96808e-06)
(-0.0730692 0.0055354 1.69535e-06)
(-0.00076054 0.00197217 1.95065e-06)
(-0.0051729 0.00806597 -1.739e-06)
(-0.0142054 0.013464 -7.57734e-08)
(-0.0261502 0.0174092 7.53331e-08)
(-0.0400383 0.0198632 -8.82615e-08)
(-0.055006 0.0209542 -7.85276e-08)
(-0.0701908 0.0208244 -7.60044e-08)
(-0.0847776 0.0195962 -1.3271e-07)
(-0.098016 0.0174164 -1.89283e-07)
(-0.109276 0.0145327 -1.15934e-07)
(-0.00122545 0.00536647 2.81967e-06)
(-0.00741653 0.0165058 -2.45308e-06)
(-0.0193751 0.0256876 1.33643e-08)
(-0.0346795 0.0323068 2.18298e-07)
(-0.0521359 0.036401 -6.65191e-08)
(-0.0707484 0.038156 -9.88081e-08)
(-0.0894994 0.0377558 -1.29287e-07)
(-0.107393 0.0353696 -2.12567e-07)
(-0.123474 0.0312384 -3.67221e-07)
(-0.136888 0.0258105 -3.23173e-07)
(-0.00154314 0.00983927 3.43759e-06)
(-0.00901645 0.0271167 -2.88319e-06)
(-0.02312 0.0406111 3.3169e-07)
(-0.0408646 0.0501488 7.12222e-07)
(-0.0608734 0.0559688 4.2905e-07)
(-0.0820573 0.0583502 4.08866e-07)
(-0.103293 0.057504 3.64402e-07)
(-0.123446 0.0536093 2.12293e-07)
(-0.14136 0.0469668 -2.34478e-07)
(-0.155897 0.0382251 -4.55265e-07)
(-0.00170813 0.0150009 3.74081e-06)
(-0.00988745 0.0391666 -3.18942e-06)
(-0.0252009 0.0573463 4.32046e-07)
(-0.0443246 0.0699669 9.04072e-07)
(-0.0657688 0.0775622 6.25189e-07)
(-0.088394 0.0805363 6.20356e-07)
(-0.111021 0.0791086 6.05641e-07)
(-0.132421 0.0734098 4.85818e-07)
(-0.151259 0.0637138 -4.03575e-07)
(-0.165989 0.050784 -1.26391e-06)
(-0.00172141 0.0204315 3.7468e-06)
(-0.00999714 0.0518087 -3.26983e-06)
(-0.0254999 0.0748393 4.61494e-07)
(-0.0448322 0.0906109 9.88482e-07)
(-0.0664717 0.0999993 7.52148e-07)
(-0.0892746 0.103555 7.80145e-07)
(-0.112063 0.101486 8.63805e-07)
(-0.133583 0.0937985 1.03566e-06)
(-0.15241 0.0805861 -5.2996e-07)
(-0.166471 0.0624639 -3.20653e-06)
(-0.00159023 0.02571 3.4519e-06)
(-0.00936277 0.0641634 -3.13731e-06)
(-0.0240229 0.0919657 4.2111e-07)
(-0.0423407 0.110823 9.61341e-07)
(-0.0628261 0.121951 7.858e-07)
(-0.0843583 0.126058 7.99592e-07)
(-0.105802 0.123341 9.04874e-07)
(-0.125971 0.113612 1.60432e-06)
(-0.14357 0.0965768 -1.56004e-06)
(-0.156022 0.0721266 -1.11739e-05)
(-0.00133426 0.030443 2.87777e-06)
(-0.00807249 0.0753895 -2.84232e-06)
(-0.0209476 0.107612 2.92295e-07)
(-0.0370817 0.129299 8.06617e-07)
(-0.0550399 0.141953 7.41676e-07)
(-0.0736973 0.146453 8.06759e-07)
(-0.0919321 0.143031 1.08643e-06)
(-0.108629 0.131337 3.78394e-06)
(-0.122973 0.11061 1.11433e-06)
(-0.132388 0.079208 -2.50845e-05)
(-0.000991801 0.0343099 2.08983e-06)
(-0.00630883 0.0847794 -2.45451e-06)
(-0.0166814 0.120798 5.25673e-08)
(-0.0296911 0.144811 4.61329e-07)
(-0.0439305 0.158494 4.9296e-07)
(-0.0581569 0.162857 7.28839e-07)
(-0.071055 0.158231 1.55143e-06)
(-0.081214 0.144263 9.45675e-06)
(-0.0882248 0.120014 2.20721e-05)
(-0.0915044 0.0828384 -7.47477e-06)
(0.000301421 -0.000304736 -6.25409e-07)
(6.0779e-06 0.000160628 -0.000216492)
(-0.00185152 0.000664392 -0.000440884)
(-0.00482838 0.00100404 -0.000605655)
(-0.00853126 0.00119633 -0.000667251)
(-0.0126215 0.0012789 -0.000605505)
(-0.0168184 0.00127911 -0.000414264)
(-0.0208858 0.00121061 -9.41557e-05)
(-0.0246154 0.00108084 0.000348683)
(-0.0278319 0.000901828 0.000901258)
(-0.000185715 -6.8535e-06 0.000214451)
(-0.00247992 0.00239162 -5.97256e-06)
(-0.00803058 0.00472344 -0.000172123)
(-0.0158512 0.00640177 -0.000269445)
(-0.0252028 0.00742333 -0.000280017)
(-0.0354122 0.00788117 -0.000188034)
(-0.0458452 0.00786132 1.30947e-05)
(-0.0559265 0.00742349 0.000325603)
(-0.0651422 0.00662292 0.000748027)
(-0.0730704 0.0055488 0.00127368)
(-0.000776435 0.0019777 0.000444078)
(-0.00518407 0.00805945 0.000153266)
(-0.0141985 0.0134609 -1.37374e-05)
(-0.026148 0.0174059 -8.96339e-05)
(-0.0400382 0.019858 -8.29143e-05)
(-0.0550061 0.0209479 1.52623e-05)
(-0.0701916 0.0208176 0.000209129)
(-0.0847787 0.0195893 0.00050238)
(-0.0980162 0.0174095 0.000897956)
(-0.109274 0.014527 0.0013953)
(-0.00124824 0.00537128 0.000598211)
(-0.00743275 0.0165017 0.000222126)
(-0.019366 0.0256884 3.14482e-05)
(-0.0346775 0.0323094 -4.64935e-05)
(-0.0521369 0.0364031 -4.19645e-05)
(-0.0707492 0.0381577 4.79566e-05)
(-0.0895007 0.037757 0.000225829)
(-0.107395 0.0353698 0.000497916)
(-0.123474 0.0312365 0.000873341)
(-0.136884 0.0258084 0.00136012)
(-0.00157042 0.00984229 0.000602946)
(-0.00903485 0.0271144 0.000152928)
(-0.0231075 0.040613 -6.29211e-05)
(-0.0408614 0.0501528 -0.000153158)
(-0.0608743 0.0559733 -0.000163853)
(-0.0820583 0.0583548 -9.55449e-05)
(-0.103295 0.0575083 5.51787e-05)
(-0.12345 0.0536124 0.000300011)
(-0.141363 0.0469654 0.00065806)
(-0.155889 0.0382216 0.00115272)
(-0.0017379 0.0150018 0.000409604)
(-0.00990687 0.0391653 -9.54676e-05)
(-0.0251861 0.0573473 -0.000332139)
(-0.0443205 0.0699693 -0.000441834)
(-0.0657694 0.0775652 -0.000480018)
(-0.0883949 0.0805398 -0.000448013)
(-0.111024 0.0791126 -0.000338349)
(-0.132428 0.0734133 -0.00013006)
(-0.151265 0.0637093 0.000211501)
(-0.165975 0.0507721 0.00073993)
(-0.00175147 0.0204303 -5.15817e-06)
(-0.0100163 0.0518084 -0.000543521)
(-0.0254841 0.0748394 -0.000793514)
(-0.0448272 0.0906116 -0.000927728)
(-0.0664716 0.100001 -0.00100514)
(-0.0892746 0.103557 -0.00102581)
(-0.112065 0.10149 -0.000975259)
(-0.133596 0.0938032 -0.000819419)
(-0.152427 0.0805754 -0.000502276)
(-0.166441 0.0624258 9.04465e-05)
(-0.00161844 0.0257067 -0.000641504)
(-0.00938039 0.0641641 -0.00119151)
(-0.0240072 0.0919647 -0.0014461)
(-0.0423352 0.110822 -0.00160836)
(-0.0628253 0.12195 -0.00173604)
(-0.0843573 0.126059 -0.0018274)
(-0.105803 0.123346 -0.00185952)
(-0.125994 0.113627 -0.00178325)
(-0.143622 0.0965809 -0.00152047)
(-0.155975 0.0720659 -0.000840662)
(-0.0013588 0.030438 -0.00147732)
(-0.0080876 0.0753906 -0.00202007)
(-0.0209333 0.10761 -0.00227035)
(-0.037076 0.129295 -0.00246188)
(-0.0550378 0.141949 -0.00264788)
(-0.0736927 0.14645 -0.00282615)
(-0.091921 0.143033 -0.00296614)
(-0.108646 0.13137 -0.00300291)
(-0.123078 0.110685 -0.00284808)
(-0.13234 0.0792384 -0.00206669)
(-0.00101144 0.0343039 -0.00247063)
(-0.00632102 0.0847807 -0.00299266)
(-0.0166702 0.120794 -0.00322997)
(-0.029687 0.144803 -0.00344793)
(-0.043929 0.158481 -0.00369412)
(-0.05815 0.162834 -0.00397079)
(-0.0710218 0.158187 -0.00424935)
(-0.0811727 0.144198 -0.00446104)
(-0.0883134 0.119952 -0.00457435)
(-0.0914256 0.0827203 -0.0039692)
(-0.0304237 0.000698898 -0.00154284)
(-0.0323769 0.000506017 -0.00224802)
(-0.0337676 0.000345942 -0.00299394)
(-0.0347152 0.000226439 -0.0037634)
(-0.0353439 0.000145241 -0.00454504)
(-0.0357621 9.56358e-05 -0.00533223)
(-0.036056 7.04405e-05 -0.00612185)
(-0.0362915 6.39226e-05 -0.00691316)
(-0.0365186 7.21685e-05 -0.00770723)
(-0.0367761 9.25931e-05 -0.00850673)
(-0.0370938 0.000123008 -0.00931596)
(-0.0374911 0.000160435 -0.010141)
(-0.0379735 0.000199749 -0.0109896)
(-0.0385246 0.000232268 -0.0118713)
(-0.0390948 0.000244551 -0.0127961)
(-0.0395896 0.000218055 -0.0137732)
(-0.0398596 0.000130961 -0.0148077)
(-0.0396987 -3.62129e-05 -0.0158972)
(-0.0388631 -0.000295146 -0.017026)
(-0.0371175 -0.000634193 -0.0181623)
(-0.0794549 0.00435214 -0.00188873)
(-0.0842814 0.00321651 -0.00257334)
(-0.0877467 0.00226406 -0.00330904)
(-0.0901411 0.00153876 -0.00408054)
(-0.0917594 0.00103114 -0.00487611)
(-0.092857 0.000706556 -0.00568756)
(-0.0936368 0.000525638 -0.00650976)
(-0.0942528 0.000454541 -0.00734009)
(-0.0948198 0.000467295 -0.00817801)
(-0.0954226 0.000543617 -0.0090248)
(-0.0961196 0.000664364 -0.00988343)
(-0.0969413 0.000805789 -0.0107584)
(-0.0978813 0.000933296 -0.0116557)
(-0.0988806 0.00099556 -0.012582)
(-0.0998071 0.000920704 -0.0135444)
(-0.100433 0.000617603 -0.0145486)
(-0.10042 -1.29115e-05 -0.0155967)
(-0.0993246 -0.00105252 -0.0166842)
(-0.0966408 -0.00252754 -0.0177972)
(-0.0918926 -0.00435651 -0.0189087)
(-0.118174 0.0113515 -0.00198505)
(-0.124746 0.00837247 -0.00264699)
(-0.129359 0.00589733 -0.0033636)
(-0.132485 0.00402309 -0.00412028)
(-0.134567 0.00271234 -0.00490511)
(-0.135962 0.00186861 -0.00570933)
(-0.136942 0.00138701 -0.00652705)
(-0.137702 0.00117796 -0.00735482)
(-0.138385 0.00117167 -0.00819122)
(-0.139089 0.00131212 -0.00903658)
(-0.139879 0.00154596 -0.00989277)
(-0.140784 0.00180903 -0.010763)
(-0.141787 0.00201225 -0.0116517)
(-0.142805 0.00202884 -0.0125641)
(-0.143669 0.00168687 -0.0135056)
(-0.144089 0.000773913 -0.0144813)
(-0.143634 -0.000936104 -0.0154938)
(-0.141728 -0.00362537 -0.0165414)
(-0.137695 -0.0073377 -0.0176147)
(-0.130865 -0.0118652 -0.0186933)
(-0.147098 0.0198773 -0.00195268)
(-0.154248 0.0144307 -0.0026211)
(-0.158991 0.0100173 -0.0033449)
(-0.162041 0.00675071 -0.00410839)
(-0.163977 0.00450749 -0.00489891)
(-0.165222 0.00307991 -0.00570752)
(-0.166065 0.00226488 -0.00652832)
(-0.1667 0.00189819 -0.0073578)
(-0.167256 0.00185621 -0.00819425)
(-0.167818 0.00204213 -0.00903743)
(-0.168442 0.00236588 -0.00988833)
(-0.169149 0.00272156 -0.010749)
(-0.169926 0.00296417 -0.0116224)
(-0.1707 0.00288822 -0.0125127)
(-0.171317 0.00221343 -0.0134245)
(-0.171503 0.000587929 -0.0143636)
(-0.170824 -0.00237385 -0.0153354)
(-0.168653 -0.00700152 -0.0163439)
(-0.164172 -0.0134106 -0.0173883)
(-0.156463 -0.0212875 -0.0184588)
(-0.166233 0.028704 -0.00178475)
(-0.172723 0.0202457 -0.00249472)
(-0.17653 0.0136691 -0.00325493)
(-0.178686 0.00898721 -0.00404802)
(-0.179892 0.005876 -0.00486078)
(-0.180577 0.00394459 -0.00568513)
(-0.180991 0.00285711 -0.0065164)
(-0.181275 0.00236369 -0.00735199)
(-0.18151 0.00228768 -0.00819063)
(-0.181746 0.00249812 -0.00903191)
(-0.182013 0.00287849 -0.00987605)
(-0.182327 0.00329485 -0.0107239)
(-0.182688 0.00356336 -0.0115769)
(-0.183066 0.00341853 -0.0124376)
(-0.183379 0.00248643 -0.0133101)
(-0.183449 0.000274637 -0.0142009)
(-0.182936 -0.00379708 -0.0151193)
(-0.18125 -0.0102885 -0.0160777)
(-0.177471 -0.0195206 -0.0170888)
(-0.170309 -0.031205 -0.0181626)
(-0.175202 0.0366215 -0.00147443)
(-0.179645 0.0246597 -0.00227542)
(-0.181411 0.0159319 -0.0031064)
(-0.181933 0.0100743 -0.00395227)
(-0.181946 0.00637244 -0.00480182)
(-0.181792 0.00416347 -0.00565064)
(-0.181605 0.00295381 -0.00649744)
(-0.181423 0.00241227 -0.00734194)
(-0.181248 0.00232404 -0.00818407)
(-0.181074 0.00254198 -0.00902368)
(-0.180896 0.00294365 -0.00986035)
(-0.180722 0.00339196 -0.0106936)
(-0.18057 0.00369595 -0.0115229)
(-0.180471 0.00356855 -0.0123489)
(-0.180457 0.002582 -0.0131739)
(-0.18052 0.000127831 -0.0140046)
(-0.180528 -0.0045928 -0.0148541)
(-0.18008 -0.0124831 -0.0157442)
(-0.178268 -0.0243129 -0.016706)
(-0.173312 -0.0401497 -0.0177884)
(-0.173083 0.0421506 -0.00104187)
(-0.17384 0.0263552 -0.00200177)
(-0.172511 0.0159134 -0.00293784)
(-0.17089 0.0094932 -0.00385291)
(-0.169514 0.0057224 -0.00474542)
(-0.168476 0.00360016 -0.00562012)
(-0.167707 0.00248844 -0.00648215)
(-0.1671 0.00200873 -0.00733486)
(-0.166562 0.00194049 -0.00817997)
(-0.166022 0.00214766 -0.00901769)
(-0.165439 0.002527 -0.00984695)
(-0.1648 0.00296718 -0.0106656)
(-0.164137 0.00330871 -0.0114711)
(-0.163535 0.00329664 -0.0122607)
(-0.163143 0.00251846 -0.0130339)
(-0.16317 0.000321389 -0.0137947)
(-0.163808 -0.00427748 -0.0145589)
(-0.165072 -0.0126101 -0.0153561)
(-0.166403 -0.0262419 -0.0162395)
(-0.165575 -0.0463105 -0.0173296)
(-0.157899 0.0431407 -0.000543778)
(-0.15304 0.0237458 -0.0017454)
(-0.147955 0.0128701 -0.00280825)
(-0.144249 0.00702892 -0.00379265)
(-0.141764 0.00395082 -0.00471957)
(-0.140138 0.00236192 -0.00561083)
(-0.139041 0.0015845 -0.00648091)
(-0.138222 0.00127208 -0.00733722)
(-0.137506 0.00124819 -0.0081829)
(-0.136777 0.00141774 -0.00901816)
(-0.135959 0.00171757 -0.00984095)
(-0.135021 0.0020834 -0.0106473)
(-0.133982 0.00241904 -0.0114318)
(-0.132943 0.00255619 -0.0121882)
(-0.132124 0.00218965 -0.0129108)
(-0.13191 0.000762664 -0.0135987)
(-0.132846 -0.00272175 -0.0142667)
(-0.13561 -0.00992701 -0.0149475)
(-0.14068 -0.0235245 -0.0157102)
(-0.146134 -0.047133 -0.0167866)
(-0.125249 0.0370908 -0.000268049)
(-0.113058 0.015925 -0.00173731)
(-0.104943 0.0070306 -0.00284654)
(-0.100417 0.00326151 -0.00383783)
(-0.0978405 0.00161826 -0.00475715)
(-0.096328 0.00089277 -0.00563877)
(-0.0953772 0.000582143 -0.00650198)
(-0.0946877 0.000478354 -0.00735422)
(-0.0940781 0.00049543 -0.00819752)
(-0.0934316 0.000596544 -0.00903074)
(-0.0926697 0.000762944 -0.00985018)
(-0.0917447 0.000978015 -0.0106497)
(-0.0906485 0.00121409 -0.0114206)
(-0.0894379 0.00141293 -0.0121519)
(-0.0882898 0.00144566 -0.0128303)
(-0.0875909 0.00102186 -0.0134449)
(-0.0880163 -0.000530837 -0.0140039)
(-0.0908602 -0.00481462 -0.0145123)
(-0.098574 -0.0153573 -0.015014)
(-0.112225 -0.0400965 -0.0159002)
(-0.0637978 0.0227466 -0.000913531)
(-0.0475848 0.00655184 -0.00237163)
(-0.0409519 0.00199414 -0.00312281)
(-0.0385548 0.000638308 -0.00387004)
(-0.0375181 0.000218223 -0.00463407)
(-0.0369913 8.99577e-05 -0.00541122)
(-0.0366792 5.57518e-05 -0.00619915)
(-0.0364441 5.51914e-05 -0.00699264)
(-0.0362133 7.152e-05 -0.00778668)
(-0.035939 0.000101456 -0.00857634)
(-0.0355831 0.000145805 -0.0093555)
(-0.0351118 0.000206496 -0.0101158)
(-0.0344979 0.000285001 -0.0108451)
(-0.033728 0.00037907 -0.0115261)
(-0.0328243 0.000472479 -0.012134)
(-0.0318957 0.00050365 -0.0126335)
(-0.031281 0.000250586 -0.0129778)
(-0.0319313 -0.00113463 -0.0131313)
(-0.0374962 -0.0063498 -0.0129746)
(-0.0559914 -0.0254222 -0.013135)
(-0.0304274 0.000684522 1.67055e-06)
(-0.03238 0.000494877 1.16835e-06)
(-0.0337699 0.000337721 7.73222e-07)
(-0.0347167 0.000220578 4.88014e-07)
(-0.0353447 0.000141137 2.99446e-07)
(-0.0357625 9.27297e-05 1.85921e-07)
(-0.0360561 6.82587e-05 1.26895e-07)
(-0.0362914 6.2084e-05 1.06767e-07)
(-0.0365184 7.03762e-05 1.14988e-07)
(-0.0367758 9.06249e-05 1.44851e-07)
(-0.0370933 0.000120716 1.91676e-07)
(-0.0374905 0.000157762 2.5063e-07)
(-0.0379729 0.000196765 3.14307e-07)
(-0.038524 0.000229218 3.70313e-07)
(-0.0390944 0.000241922 3.98053e-07)
(-0.0395896 0.000216627 3.64255e-07)
(-0.0398603 0.000131785 2.26712e-07)
(-0.0397007 -3.19703e-05 -3.977e-08)
(-0.0388669 -0.00028624 -5.09409e-07)
(-0.0371229 -0.000619893 -1.21655e-06)
(-0.079454 0.00434026 -1.49763e-06)
(-0.0842799 0.00320678 -1.24941e-06)
(-0.0877449 0.00225663 -9.8753e-07)
(-0.0901392 0.00153334 -7.5388e-07)
(-0.0917577 0.0010273 -5.63255e-07)
(-0.0928557 0.000703862 -4.23123e-07)
(-0.093636 0.000523693 -3.32999e-07)
(-0.0942523 0.000453015 -2.87037e-07)
(-0.0948196 0.000465924 -2.77073e-07)
(-0.0954225 0.000542197 -2.93676e-07)
(-0.0961196 0.000662745 -3.25434e-07)
(-0.0969412 0.000803882 -3.57356e-07)
(-0.0978808 0.000931094 -3.69021e-07)
(-0.0988794 0.000993184 -3.33375e-07)
(-0.0998048 0.000918468 -2.17153e-07)
(-0.10043 0.000616068 1.43864e-08)
(-0.100415 -1.29447e-05 3.84562e-07)
(-0.0993197 -0.00105007 8.83672e-07)
(-0.0966365 -0.00252157 1.48204e-06)
(-0.0918901 -0.00434694 2.0447e-06)
(-0.118176 0.0113535 -1.86401e-07)
(-0.124747 0.00837289 -3.22476e-07)
(-0.129358 0.00589731 -3.52925e-07)
(-0.132484 0.00402299 -3.35225e-07)
(-0.134565 0.00271235 -2.86234e-07)
(-0.135961 0.00186877 -2.28503e-07)
(-0.136941 0.00138734 -1.76315e-07)
(-0.137702 0.00117847 -1.3513e-07)
(-0.138384 0.00117236 -1.05466e-07)
(-0.139089 0.00131299 -8.52393e-08)
(-0.139879 0.00154698 -7.10087e-08)
(-0.140784 0.00181012 -5.83943e-08)
(-0.141786 0.00201327 -4.21868e-08)
(-0.142805 0.00202959 -1.59509e-08)
(-0.143668 0.00168711 2.89241e-08)
(-0.144087 0.000773383 9.93328e-08)
(-0.143631 -0.00093767 1.91017e-07)
(-0.141726 -0.00362793 2.98218e-07)
(-0.137694 -0.00734111 4.08266e-07)
(-0.130868 -0.011871 3.47075e-07)
(-0.147103 0.0198739 -2.93229e-07)
(-0.154249 0.0144269 -4.72159e-07)
(-0.15899 0.0100147 -4.68657e-07)
(-0.162039 0.00674933 -4.16739e-07)
(-0.163975 0.00450696 -3.31744e-07)
(-0.16522 0.00307992 -2.45571e-07)
(-0.166064 0.00226517 -1.74147e-07)
(-0.166699 0.00189861 -1.20152e-07)
(-0.167255 0.00185669 -8.17427e-08)
(-0.167818 0.00204261 -5.56791e-08)
(-0.168441 0.00236632 -3.87551e-08)
(-0.169149 0.0027219 -2.80997e-08)
(-0.169925 0.00296432 -2.09484e-08)
(-0.170699 0.00288808 -1.28675e-08)
(-0.171316 0.00221297 7.46826e-09)
(-0.171502 0.000587237 5.19663e-08)
(-0.170822 -0.00237463 1.04999e-07)
(-0.16865 -0.0070015 2.05089e-07)
(-0.164171 -0.0134083 3.96027e-07)
(-0.156469 -0.0212847 3.4908e-07)
(-0.166241 0.0286952 -7.9664e-07)
(-0.172723 0.0202382 -8.92043e-07)
(-0.176527 0.0136655 -7.21914e-07)
(-0.178683 0.00898588 -5.64572e-07)
(-0.179889 0.00587597 -3.97606e-07)
(-0.180574 0.00394515 -2.61438e-07)
(-0.180989 0.00285783 -1.67062e-07)
(-0.181274 0.00236438 -1.06195e-07)
(-0.18151 0.00228827 -6.95695e-08)
(-0.181746 0.00249859 -4.99293e-08)
(-0.182013 0.00287883 -4.23746e-08)
(-0.182327 0.00329502 -4.36914e-08)
(-0.182687 0.00356333 -5.15014e-08)
(-0.183065 0.00341823 -6.08239e-08)
(-0.183378 0.00248589 -5.17083e-08)
(-0.183448 0.000274093 3.20481e-09)
(-0.182933 -0.00379714 5.46674e-08)
(-0.181245 -0.0102864 2.03375e-07)
(-0.177468 -0.0195121 6.94939e-07)
(-0.170319 -0.0311922 9.9201e-07)
(-0.175218 0.0366037 -1.70406e-06)
(-0.179641 0.0246477 -1.45137e-06)
(-0.181403 0.0159282 -9.07616e-07)
(-0.181927 0.0100741 -6.07781e-07)
(-0.181942 0.00637356 -3.57596e-07)
(-0.181789 0.00416492 -1.88666e-07)
(-0.181603 0.0029551 -9.34457e-08)
(-0.181422 0.0024133 -4.3063e-08)
(-0.181248 0.00232482 -1.85698e-08)
(-0.181074 0.00254259 -9.16682e-09)
(-0.180896 0.00294411 -9.63265e-09)
(-0.180722 0.00339229 -1.82156e-08)
(-0.18057 0.0036961 -3.50783e-08)
(-0.180471 0.00356845 -5.93825e-08)
(-0.180456 0.00258161 -7.30715e-08)
(-0.180518 0.000127493 -4.14422e-08)
(-0.180523 -0.00459228 -1.98876e-08)
(-0.180069 -0.0124793 1.15273e-07)
(-0.178258 -0.0242968 1.1931e-06)
(-0.173329 -0.0401224 2.51432e-06)
(-0.173115 0.0421258 -4.53743e-06)
(-0.173825 0.0263472 -2.98993e-06)
(-0.172497 0.015917 -1.37894e-06)
(-0.170882 0.00949749 -7.18889e-07)
(-0.16951 0.00572591 -3.05376e-07)
(-0.168474 0.00360276 -9.42603e-08)
(-0.167706 0.00249023 -1.12878e-08)
(-0.1671 0.00200999 1.59163e-08)
(-0.166562 0.00194148 1.91901e-08)
(-0.166022 0.00214853 1.16022e-08)
(-0.165439 0.00252785 -2.50125e-09)
(-0.1648 0.00296805 -2.28178e-08)
(-0.164138 0.00330953 -5.03672e-08)
(-0.163535 0.00329718 -8.76658e-08)
(-0.163142 0.00251844 -1.16837e-07)
(-0.163167 0.000320799 -6.22867e-08)
(-0.163801 -0.00427902 7.36118e-08)
(-0.165052 -0.0126125 3.64725e-07)
(-0.166378 -0.0262306 2.87702e-06)
(-0.165607 -0.0462752 6.90601e-06)
(-0.157959 0.0430996 -7.71102e-06)
(-0.153008 0.023756 -3.12477e-06)
(-0.147937 0.0128917 -6.31313e-07)
(-0.144245 0.00704111 -2.41269e-07)
(-0.141762 0.00395703 3.04791e-08)
(-0.140137 0.00236528 1.26442e-07)
(-0.139041 0.00158642 1.19693e-07)
(-0.138222 0.0012734 9.84774e-08)
(-0.137506 0.0012494 8.15674e-08)
(-0.136777 0.00141911 6.97049e-08)
(-0.135959 0.00171925 5.99774e-08)
(-0.135021 0.00208544 4.76814e-08)
(-0.133983 0.00242134 2.56292e-08)
(-0.132944 0.00255834 -2.63905e-08)
(-0.132125 0.00219076 -1.02939e-07)
(-0.13191 0.000761237 -3.5145e-08)
(-0.132845 -0.00273019 9.64129e-08)
(-0.13559 -0.00994927 -3.52572e-07)
(-0.140634 -0.0235375 2.54668e-06)
(-0.146193 -0.0470776 1.10406e-05)
(-0.125322 0.0368952 -9.64022e-06)
(-0.11299 0.0158659 4.26793e-06)
(-0.104931 0.00701968 4.76936e-06)
(-0.100426 0.0032544 2.03135e-06)
(-0.0978459 0.00161298 1.04872e-06)
(-0.0963306 0.000889486 6.35387e-07)
(-0.0953785 0.000579992 3.9836e-07)
(-0.0946882 0.000476751 3.00905e-07)
(-0.094078 0.00049404 2.88644e-07)
(-0.0934312 0.000595138 3.24698e-07)
(-0.0926691 0.000761378 3.89802e-07)
(-0.0917444 0.000976236 4.67315e-07)
(-0.0906488 0.00121219 5.28143e-07)
(-0.0894395 0.00141127 4.97041e-07)
(-0.0882933 0.00144499 2.77515e-07)
(-0.0875996 0.00102313 -7.92278e-08)
(-0.0880351 -0.000527537 -1.28722e-06)
(-0.0908566 -0.0048074 -5.9116e-06)
(-0.0984848 -0.0152935 -8.00387e-06)
(-0.112277 -0.0398429 1.19682e-05)
(-0.0638399 0.0226025 -5.3477e-05)
(-0.0474268 0.00648353 -9.05233e-06)
(-0.0409073 0.00196664 -6.43532e-07)
(-0.0385506 0.000622793 -1.45517e-06)
(-0.0375152 0.000209199 -9.44627e-07)
(-0.0369892 8.48901e-05 -4.42229e-07)
(-0.0366783 5.26735e-05 -2.49418e-07)
(-0.0364438 5.29546e-05 -1.76342e-07)
(-0.0362132 6.94916e-05 -1.55995e-07)
(-0.0359391 9.92548e-05 -1.7152e-07)
(-0.0355833 0.000143197 -2.12366e-07)
(-0.0351122 0.000203387 -2.68199e-07)
(-0.0344983 0.00028152 -3.24293e-07)
(-0.033728 0.0003758 -3.54738e-07)
(-0.0328232 0.00047075 -2.7015e-07)
(-0.0318947 0.000505663 1.71125e-07)
(-0.0312834 0.000259881 5.99661e-07)
(-0.0318898 -0.00111125 -1.96607e-06)
(-0.0372824 -0.00627642 3.94427e-06)
(-0.0559786 -0.0252294 6.74782e-05)
(-0.0304273 0.000684522 -1.67029e-06)
(-0.03238 0.000494877 -1.16811e-06)
(-0.0337698 0.000337721 -7.72917e-07)
(-0.0347167 0.000220578 -4.87618e-07)
(-0.0353447 0.000141137 -2.99021e-07)
(-0.0357625 9.27297e-05 -1.85602e-07)
(-0.0360561 6.82587e-05 -1.2671e-07)
(-0.0362914 6.20839e-05 -1.06743e-07)
(-0.0365183 7.0376e-05 -1.15137e-07)
(-0.0367758 9.06247e-05 -1.45174e-07)
(-0.0370933 0.000120716 -1.92125e-07)
(-0.0374905 0.000157762 -2.51064e-07)
(-0.0379729 0.000196765 -3.1461e-07)
(-0.038524 0.000229218 -3.70422e-07)
(-0.0390944 0.000241921 -3.97933e-07)
(-0.0395896 0.000216627 -3.63879e-07)
(-0.0398603 0.000131785 -2.26035e-07)
(-0.0397007 -3.19701e-05 4.08121e-08)
(-0.0388668 -0.00028624 5.10864e-07)
(-0.0371229 -0.000619892 1.21841e-06)
(-0.0794539 0.00434026 1.49823e-06)
(-0.0842799 0.00320678 1.24993e-06)
(-0.0877448 0.00225663 9.88048e-07)
(-0.0901392 0.00153334 7.54495e-07)
(-0.0917577 0.0010273 5.63951e-07)