/*--------------------------------*- C++ -*----------------------------------*\
| =========                 |                                                 |
| \\      /  F ield         | OpenFOAM: The Open Source CFD Toolbox           |
|  \\    /   O peration     | Version:  2.4.0                                 |
|   \\  /    A nd           | Web:      www.OpenFOAM.org                      |
|    \\/     M anipulation  |                                                 |
\*---------------------------------------------------------------------------*/
FoamFile
{
    version     2.0;
    format      ascii;
    class       volScalarField;
    location    "0.335";
    object      T;
}
// * * * * * * * * * * * * * * * * * * * * * * * * * * * * * * * * * * * * * //

dimensions      [0 0 0 1 0 0 0];

internalField   nonuniform List<scalar> 
1600
(
101.116
103.348
105.584
107.824
110.07
112.326
114.591
116.868
119.157
121.461
123.781
126.117
128.471
130.842
133.233
135.643
138.072
140.521
142.989
145.478
147.986
150.513
153.059
155.624
158.206
160.806
163.424
166.057
168.707
171.372
174.05
176.743
179.447
182.163
184.89
187.624
190.367
193.115
195.867
198.622
101.117
103.351
105.588
107.83
110.078
112.335
114.602
116.881
119.172
121.478
123.799
126.136
128.491
130.864
133.256
135.667
138.097
140.546
143.016
145.504
148.012
150.539
153.085
155.649
158.231
160.831
163.447
166.079
168.728
171.391
174.068
176.759
179.462
182.176
184.9
187.633
190.374
193.12
195.87
198.623
101.118
103.356
105.597
107.842
110.094
112.354
114.624
116.906
119.201
121.509
123.833
126.174
128.531
130.906
133.3
135.713
138.145
140.596
143.066
145.556
148.064
150.592
153.137
155.701
158.282
160.88
163.494
166.124
168.77
171.43
174.104
176.792
179.491
182.201
184.922
187.651
190.388
193.13
195.876
198.625
101.121
103.364
105.609
107.86
110.117
112.382
114.657
116.944
119.243
121.556
123.885
126.229
128.59
130.969
133.366
135.782
138.216
140.669
143.141
145.632
148.141
150.669
153.214
155.777
158.356
160.952
163.564
166.191
168.833
171.489
174.158
176.841
179.535
182.24
184.955
187.678
190.409
193.145
195.885
198.628
101.124
103.374
105.626
107.884
110.148
112.419
114.701
116.994
119.299
121.618
123.952
126.302
128.668
131.052
133.453
135.872
138.31
140.766
143.24
145.733
148.243
150.771
153.315
155.877
158.454
161.048
163.656
166.279
168.916
171.567
174.231
176.906
179.593
182.291
184.998
187.714
190.437
193.165
195.897
198.632
101.129
103.387
105.648
107.914
110.186
112.466
114.755
117.056
119.369
121.695
124.036
126.392
128.764
131.154
133.56
135.984
138.426
140.885
143.362
145.856
148.368
150.896
153.44
156.001
158.576
161.166
163.771
166.389
169.02
171.664
174.321
176.988
179.667
182.355
185.053
187.759
190.472
193.19
195.912
198.637
101.134
103.402
105.673
107.949
110.231
112.521
114.82
117.13
119.452
121.787
124.135
126.499
128.879
131.275
133.687
136.116
138.563
141.026
143.506
146.003
148.516
151.045
153.589
156.148
158.721
161.308
163.907
166.52
169.145
171.781
174.428
177.086
179.755
182.433
185.119
187.813
190.514
193.22
195.931
198.643
101.14
103.42
105.703
107.99
110.284
112.585
114.895
117.216
119.548
121.893
124.251
126.624
129.011
131.415
133.834
136.269
138.721
141.189
143.673
146.172
148.687
151.216
153.76
156.317
158.888
161.471
164.065
166.671
169.288
171.916
174.554
177.201
179.857
182.523
185.196
187.877
190.564
193.256
195.952
198.65
101.146
103.44
105.737
108.038
110.345
112.659
114.981
117.314
119.658
122.013
124.382
126.765
129.162
131.573
134
136.443
138.9
141.373
143.861
146.363
148.88
151.41
153.953
156.509
159.077
161.655
164.244
166.843
169.452
172.07
174.696
177.331
179.974
182.626
185.284
187.949
190.62
193.297
195.976
198.659
101.154
103.463
105.775
108.091
110.413
112.741
115.078
117.424
119.781
122.149
124.529
126.923
129.33
131.751
134.186
136.636
139.1
141.578
144.07
146.576
149.094
151.625
154.168
156.722
159.286
161.86
164.443
167.035
169.634
172.241
174.856
177.477
180.106
182.741
185.383
188.031
190.684
193.342
196.004
198.668
101.163
103.489
105.818
108.151
110.489
112.833
115.186
117.547
119.918
122.299
124.693
127.098
129.516
131.947
134.391
136.849
139.32
141.803
144.3
146.809
149.329
151.861
154.403
156.955
159.516
162.085
164.661
167.245
169.835
172.431
175.032
177.639
180.252
182.87
185.493
188.122
190.755
193.393
196.035
198.678
101.172
103.517
105.865
108.217
110.573
112.935
115.305
117.682
120.069
122.465
124.872
127.29
129.72
132.162
134.616
137.082
139.56
142.049
144.55
147.062
149.585
152.117
154.658
157.208
159.765
162.328
164.898
167.473
170.053
172.637
175.225
177.816
180.412
183.011
185.614
188.222
190.834
193.45
196.069
198.689
101.183
103.549
105.917
108.289
110.666
113.047
115.436
117.831
120.235
122.647
125.069
127.501
129.944
132.397
134.86
137.335
139.82
142.316
144.821
147.336
149.86
152.392
154.932
157.479
160.032
162.59
165.153
167.719
170.288
172.86
175.433
178.008
180.586
183.165
185.747
188.332
190.92
193.511
196.106
198.702
101.194
103.583
105.975
108.369
110.767
113.17
115.579
117.994
120.416
122.846
125.284
127.731
130.186
132.651
135.126
137.609
140.102
142.603
145.113
147.631
150.156
152.689
155.227
157.771
160.319
162.871
165.426
167.982
170.54
173.098
175.657
178.215
180.773
183.332
185.891
188.451
191.014
193.579
196.146
198.715
101.207
103.621
106.038
108.457
110.879
113.305
115.736
118.172
120.614
123.062
125.518
127.98
130.45
132.928
135.413
137.906
140.406
142.913
145.427
147.948
150.474
153.006
155.542
158.082
160.625
163.17
165.716
168.263
170.809
173.353
175.896
178.436
180.974
183.511
186.046
188.58
191.115
193.652
196.19
198.73
101.221
103.663
106.107
108.553
111.001
113.452
115.907
118.366
120.83
123.298
125.772
128.251
130.736
133.227
135.724
138.226
140.734
143.248
145.766
148.289
150.816
153.347
155.88
158.416
160.953
163.49
166.027
168.562
171.095
173.625
176.151
178.672
181.19
183.703
186.212
188.719
191.225
193.73
196.238
198.745
101.236
103.709
106.183
108.658
111.135
113.613
116.095
118.578
121.065
123.555
126.049
128.546
131.047
133.552
136.06
138.573
141.089
143.608
146.131
148.657
151.184
153.714
156.244
158.775
161.305
163.833
166.36
168.883
171.401
173.915
176.423
178.924
181.419
183.908
186.391
188.869
191.343
193.816
196.29
198.762
101.253
103.759
106.266
108.773
111.281
113.79
116.299
118.81
121.322
123.835
126.35
128.866
131.384
133.904
136.425
138.948
141.473
143.999
146.526
149.054
151.582
154.11
156.637
159.162
161.684
164.203
166.718
169.227
171.73
174.226
176.714
179.194
181.665
184.128
186.582
189.029
191.47
193.908
196.345
198.781
101.271
103.814
106.357
108.899
111.441
113.982
116.523
119.063
121.602
124.141
126.678
129.215
131.752
134.287
136.822
139.357
141.89
144.423
146.955
149.485
152.013
154.539
157.061
159.58
162.094
164.602
167.104
169.599
172.084
174.561
177.028
179.484
181.929
184.364
186.788
189.202
191.607
194.007
196.405
198.801
101.292
103.874
106.456
109.038
111.617
114.194
116.769
119.341
121.909
124.475
127.037
129.596
132.152
134.705
137.254
139.801
142.344
144.884
147.42
149.953
152.481
155.005
157.523
160.034
162.539
165.036
167.523
170.001
172.468
174.924
177.367
179.797
182.214
184.617
187.009
189.387
191.755
194.115
196.471
198.822
101.314
103.941
106.567
109.19
111.81
114.427
117.038
119.645
122.246
124.841
127.43
130.013
132.59
135.161
137.726
140.285
142.839
145.386
147.928
150.463
152.991
155.512
158.025
160.529
163.024
165.507
167.98
170.44
172.886
175.318
177.735
180.137
182.522
184.892
187.247
189.588
191.915
194.231
196.542
198.846
101.338
104.014
106.688
109.358
112.023
114.683
117.335
119.979
122.615
125.242
127.86
130.469
133.069
135.659
138.241
140.814
143.379
145.935
148.482
151.019
153.548
156.066
158.573
161.069
163.552
166.022
168.477
170.918
173.342
175.748
178.137
180.507
182.859
185.192
187.507
189.806
192.089
194.358
196.619
198.871
101.365
104.095
106.822
109.544
112.259
114.965
117.662
120.347
123.021
125.683
128.332
130.969
133.593
136.205
138.805
141.393
143.969
146.534
149.086
151.627
154.155
156.67
159.172
161.658
164.13
166.584
169.022
171.44
173.84
176.219
178.577
180.912
183.227
185.519
187.791
190.044
192.278
194.496
196.703
198.899
101.396
104.185
106.971
109.749
112.519
115.277
118.022
120.753
123.469
126.168
128.852
131.518
134.169
136.804
139.423
142.027
144.615
147.189
149.748
152.291
154.819
157.331
159.826
162.303
164.761
167.2
169.617
172.013
174.386
176.735
179.059
181.357
183.63
185.878
188.103
190.304
192.485
194.647
196.796
198.93
101.429
104.285
107.136
109.978
112.807
115.623
118.421
121.202
123.962
126.703
129.423
132.122
134.801
137.46
140.1
142.72
145.322
147.906
150.471
153.017
155.545
158.053
160.541
163.008
165.452
167.873
170.27
172.641
174.985
177.301
179.589
181.847
184.075
186.274
188.446
190.591
192.713
194.813
196.898
198.964
101.466
104.397
107.32
110.231
113.128
116.006
118.863
121.697
124.507
127.292
130.052
132.786
135.495
138.18
140.841
143.48
146.096
148.689
151.261
153.81
156.338
158.842
161.322
163.778
166.208
168.611
170.985
173.329
175.643
177.924
180.172
182.386
184.566
186.712
188.825
190.909
192.965
194.997
197.011
199.001
101.508
104.521
107.524
110.514
113.484
116.432
119.353
122.246
125.11
127.942
130.744
133.516
136.257
138.97
141.654
144.311
146.941
149.546
152.124
154.677
157.204
159.704
162.176
164.62
167.035
169.418
171.768
174.085
176.365
178.609
180.814
182.981
185.108
187.196
189.246
191.262
193.245
195.201
197.136
199.043
101.555
104.66
107.754
110.83
113.882
116.906
119.898
122.855
125.776
128.66
131.508
134.319
137.094
139.836
142.544
145.22
147.866
150.481
153.067
155.622
158.148
160.644
163.108
165.54
167.938
170.301
172.626
174.913
177.159
179.363
181.523
183.638
185.708
187.733
189.714
191.654
193.557
195.428
197.276
199.089
101.607
104.816
108.011
111.184
114.327
117.435
120.504
123.53
126.514
129.453
132.348
135.201
138.013
140.784
143.518
146.214
148.875
151.502
154.094
156.653
159.178
161.669
164.125
166.544
168.925
171.267
173.566
175.822
178.031
180.193
182.305
184.365
186.373
188.33
190.235
192.092
193.906
195.683
197.432
199.142
101.666
104.993
108.302
111.582
114.826
118.026
121.179
124.281
127.33
130.328
133.274
136.171
139.02
141.823
144.582
147.299
149.975
152.613
155.213
157.775
160.299
162.785
165.232
167.638
170.002
172.321
174.594
176.817
178.989
181.107
183.168
185.17
187.112
188.994
190.817
192.583
194.298
195.97
197.607
199.2
101.734
105.194
108.631
112.032
115.388
118.689
121.933
125.115
128.236
131.295
134.294
137.236
140.123
142.957
145.742
148.48
151.173
153.822
156.429
158.993
161.516
163.997
166.435
168.828
171.174
173.471
175.717
177.908
180.041
182.113
184.12
186.061
187.934
189.736
191.469
193.135
194.741
196.295
197.806
199.267
101.811
105.423
109.006
112.543
116.022
119.435
122.776
126.044
129.239
132.362
135.415
138.403
141.329
144.196
147.007
149.765
152.474
155.134
157.747
160.315
162.837
165.313
167.741
170.121
172.449
174.724
176.943
179.1
181.194
183.219
185.173
187.05
188.848
190.566
192.202
193.759
195.243
196.664
198.031
199.343
101.901
105.688
109.437
113.127
116.743
120.276
123.721
127.079
130.351
133.539
136.648
139.682
142.646
145.545
148.381
151.16
153.884
156.555
159.175
161.745
164.265
166.736
169.156
171.522
173.834
176.087
178.278
180.403
182.458
184.437
186.335
188.147
189.869
191.497
193.029
194.468
195.816
197.087
198.29
199.432
102.005
105.997
109.937
113.799
117.565
121.227
124.783
128.234
131.584
134.837
138.001
141.08
144.082
147.011
149.872
152.67
155.408
158.09
160.716
163.288
165.808
168.273
170.684
173.039
175.334
177.566
179.731
181.825
183.841
185.774
187.618
189.365
191.009
192.545
193.968
195.278
196.476
197.577
198.592
199.537
102.131
106.364
110.526
114.58
118.51
122.309
125.978
129.523
132.949
136.267
139.483
142.606
145.643
148.601
151.485
154.301
157.053
159.743
162.375
164.95
167.468
169.929
172.332
174.675
176.955
179.167
181.309
183.373
185.354
187.244
189.035
190.719
192.286
193.728
195.038
196.211
197.246
198.155
198.95
199.663
102.285
106.811
111.231
115.499
119.604
123.543
127.326
130.961
134.462
137.839
141.104
144.267
147.336
150.32
153.226
156.058
158.821
161.52
164.157
166.734
169.251
171.708
174.104
176.437
178.703
180.899
183.019
185.057
187.005
188.856
190.599
192.224
193.718
195.07
196.265
197.295
198.153
198.849
199.385
199.818
102.484
107.375
112.093
116.594
120.878
124.956
128.846
132.566
136.133
139.564
142.873
146.07
149.168
152.175
155.098
157.944
160.718
163.425
166.066
168.645
171.161
173.615
176.005
178.33
180.585
182.766
184.868
186.884
188.806
190.623
192.325
193.898
195.327
196.595
197.683
198.571
199.242
199.698
199.923
200.011
102.757
108.12
113.175
117.915
122.371
126.576
130.561
134.353
137.977
141.453
144.797
148.023
151.144
154.169
157.107
159.965
162.748
165.461
168.107
170.687
173.203
175.655
178.042
180.36
182.607
184.777
186.866
188.865
190.765
192.557
194.226
195.758
197.135
198.335
199.329
200.091
200.579
200.776
200.623
200.27
103.218
109.163
114.554
119.517
124.122
128.431
132.49
136.339
140.006
143.515
146.886
150.133
153.272
156.311
159.26
162.127
164.917
167.635
170.284
172.867
175.384
177.835
180.219
182.534
184.776
186.94
189.02
191.008
192.894
194.668
196.315
197.82
199.16
200.312
201.24
201.907
202.248
202.204
201.631
200.708
104.067
110.751
116.419
121.53
126.228
130.595
134.694
138.572
142.261
145.787
149.172
152.431
155.578
158.625
161.581
164.452
167.246
169.967
172.619
175.202
177.72
180.171
182.554
184.867
187.106
189.266
191.341
193.323
195.202
196.967
198.602
200.091
201.411
202.535
203.426
204.041
204.299
204.12
203.256
201.755
)
;

boundaryField
{
    carasuperior
    {
        type            fixedGradient;
        gradient        uniform 100;
    }
    lateralizquierda
    {
        type            fixedValue;
        value           uniform 100;
    }
    lateralderecha
    {
        type            fixedValue;
        value           uniform 200;
    }
    carainferior
    {
        type            zeroGradient;
    }
    frontAndBack
    {
        type            empty;
    }
}


// ************************************************************************* //
