/*--------------------------------*- C++ -*----------------------------------*\
| =========                 |                                                 |
| \\      /  F ield         | OpenFOAM: The Open Source CFD Toolbox           |
|  \\    /   O peration     | Version:  2.4.0                                 |
|   \\  /    A nd           | Web:      www.OpenFOAM.org                      |
|    \\/     M anipulation  |                                                 |
\*---------------------------------------------------------------------------*/
FoamFile
{
    version     2.0;
    format      ascii;
    class       volScalarField;
    location    "0.0073";
    object      T;
}
// * * * * * * * * * * * * * * * * * * * * * * * * * * * * * * * * * * * * * //

dimensions      [0 0 0 1 0 0 0];

internalField   nonuniform List<scalar> 
4800
(
100.194
100.581
100.968
101.354
101.738
102.117
102.487
102.844
103.182
103.493
100.581
101.742
102.903
104.063
105.217
106.359
107.475
108.552
109.571
110.511
100.968
102.903
104.841
106.778
108.71
110.625
112.503
114.319
116.039
117.626
101.354
104.063
106.779
109.499
112.22
114.927
117.593
120.182
122.64
124.908
101.738
105.218
108.711
112.22
115.745
119.269
122.762
126.174
129.431
132.438
102.117
106.359
110.625
114.927
119.269
123.641
128.012
132.323
136.471
140.314
102.488
107.476
112.504
117.595
122.763
128.013
133.323
138.633
143.817
148.66
102.845
108.554
114.321
120.184
126.177
132.325
138.634
145.068
151.502
157.641
103.182
109.573
116.042
122.644
129.435
136.475
143.82
151.504
159.482
167.46
103.494
110.514
117.631
124.914
132.445
140.321
148.666
157.645
167.462
178.222
100.194
100.581
100.968
101.354
101.738
102.117
102.487
102.844
103.182
103.493
100.581
101.742
102.903
104.063
105.217
106.359
107.475
108.552
109.571
110.511
100.968
102.903
104.841
106.778
108.71
110.625
112.503
114.319
116.039
117.626
101.354
104.063
106.779
109.499
112.22
114.927
117.593
120.182
122.64
124.908
101.738
105.218
108.711
112.221
115.745
119.269
122.762
126.174
129.431
132.438
102.117
106.359
110.625
114.927
119.269
123.641
128.012
132.323
136.471
140.314
102.488
107.476
112.504
117.595
122.764
128.013
133.323
138.633
143.817
148.66
102.845
108.554
114.321
120.184
126.177
132.325
138.634
145.068
151.502
157.641
103.183
109.573
116.043
122.644
129.436
136.475
143.82
151.504
159.482
167.46
103.494
110.514
117.631
124.915
132.446
140.321
148.666
157.646
167.463
178.223
100.194
100.581
100.968
101.354
101.738
102.117
102.487
102.844
103.182
103.493
100.581
101.742
102.903
104.063
105.217
106.359
107.475
108.552
109.571
110.511
100.968
102.903
104.841
106.778
108.71
110.625
112.503
114.319
116.039
117.626
101.354
104.063
106.779
109.499
112.22
114.927
117.593
120.182
122.64
124.908
101.738
105.218
108.711
112.221
115.745
119.269
122.762
126.174
129.431
132.438
102.117
106.359
110.625
114.927
119.269
123.641
128.012
132.323
136.471
140.314
102.488
107.476
112.504
117.595
122.764
128.013
133.323
138.633
143.817
148.66
102.845
108.554
114.321
120.184
126.177
132.325
138.634
145.068
151.502
157.641
103.183
109.573
116.043
122.644
129.436
136.475
143.82
151.504
159.482
167.46
103.494
110.514
117.631
124.915
132.446
140.321
148.666
157.646
167.463
178.223
100.194
100.581
100.968
101.354
101.738
102.117
102.487
102.844
103.182
103.493
100.581
101.742
102.903
104.063
105.217
106.359
107.475
108.552
109.571
110.511
100.968
102.903
104.841
106.778
108.71
110.625
112.503
114.319
116.039
117.626
101.354
104.063
106.779
109.499
112.22
114.927
117.593
120.182
122.64
124.908
101.738
105.218
108.711
112.22
115.745
119.269
122.762
126.174
129.431
132.438
102.117
106.359
110.625
114.927
119.269
123.641
128.012
132.323
136.471
140.314
102.488
107.476
112.504
117.595
122.763
128.013
133.323
138.633
143.817
148.66
102.845
108.554
114.321
120.184
126.177
132.325
138.634
145.068
151.502
157.641
103.182
109.573
116.042
122.644
129.435
136.475
143.82
151.504
159.482
167.46
103.494
110.514
117.631
124.914
132.445
140.321
148.666
157.645
167.462
178.222
103.773
104.016
104.222
104.391
104.526
104.63
104.707
104.762
104.796
104.813
104.813
104.796
104.761
104.707
104.63
104.526
104.391
104.222
104.016
103.773
111.354
112.087
112.704
113.208
113.609
113.916
114.144
114.304
114.405
114.454
114.454
114.405
114.304
114.144
113.916
113.608
113.208
112.703
112.086
111.353
119.045
120.272
121.298
122.13
122.784
123.283
123.65
123.906
124.067
124.145
124.145
124.067
123.905
123.649
123.281
122.782
122.128
121.297
120.271
119.044
126.928
128.659
130.087
131.229
132.114
132.78
133.266
133.602
133.812
133.914
133.913
133.812
133.601
133.265
132.779
132.112
131.227
130.086
128.657
126.926
135.1
137.347
139.164
140.584
141.662
142.459
143.032
143.423
143.667
143.783
143.783
143.666
143.422
143.03
142.457
141.66
140.581
139.162
137.345
135.098
143.687
146.465
148.638
150.28
151.49
152.363
152.978
153.393
153.649
153.77
153.77
153.648
153.392
152.977
152.361
151.488
150.278
148.636
146.462
143.685
152.869
156.186
158.643
160.408
161.655
162.526
163.125
163.522
163.764
163.878
163.878
163.763
163.521
163.123
162.524
161.653
160.406
158.641
156.184
152.867
162.943
166.766
169.342
171.053
172.194
172.96
173.473
173.806
174.007
174.102
174.101
174.007
173.805
173.472
172.959
172.193
171.052
169.34
166.764
162.941
174.494
178.591
180.906
182.268
183.11
183.649
183.999
184.223
184.357
184.419
184.419
184.356
184.223
183.998
183.648
183.109
182.267
180.905
178.591
174.494
188.984
192.199
193.422
194.004
194.328
194.526
194.651
194.73
194.777
194.799
194.799
194.777
194.73
194.651
194.525
194.328
194.003
193.422
192.199
188.983
103.773
104.016
104.222
104.391
104.526
104.63
104.707
104.761
104.796
104.812
104.812
104.796
104.761
104.707
104.629
104.525
104.391
104.222
104.016
103.772
111.354
112.086
112.704
113.208
113.608
113.916
114.144
114.304
114.405
114.454
114.454
114.405
114.303
114.143
113.915
113.607
113.207
112.702
112.085
111.352
119.045
120.272
121.298
122.13
122.783
123.282
123.649
123.905
124.067
124.144
124.144
124.066
123.904
123.648
123.28
122.781
122.127
121.296
120.27
119.043
126.928
128.658
130.087
131.228
132.113
132.78
133.265
133.601
133.812
133.913
133.913
133.811
133.6
133.264
132.778
132.111
131.226
130.084
128.655
126.925
135.1
137.347
139.164
140.583
141.661
142.459
143.031
143.423
143.666
143.783
143.782
143.665
143.421
143.029
142.456
141.658
140.58
139.16
137.343
135.097
143.687
146.464
148.638
150.28
151.489
152.363
152.978
153.392
153.648
153.769
153.769
153.647
153.391
152.976
152.36
151.486
150.276
148.634
146.461
143.684
152.869
156.186
158.643
160.407
161.654
162.525
163.124
163.521
163.763
163.878
163.877
163.762
163.52
163.122
162.523
161.651
160.404
158.64
156.182
152.866
162.943
166.765
169.342
171.053
172.194
172.96
173.472
173.805
174.006
174.101
174.1
174.006
173.804
173.47
172.958
172.192
171.05
169.339
166.762
162.94
174.494
178.591
180.906
182.268
183.109
183.648
183.998
184.222
184.356
184.418
184.418
184.355
184.222
183.997
183.647
183.108
182.266
180.904
178.589
174.492
188.984
192.199
193.422
194.003
194.328
194.525
194.651
194.73
194.777
194.799
194.799
194.777
194.73
194.65
194.525
194.327
194.003
193.421
192.198
188.982
103.773
104.016
104.222
104.391
104.526
104.63
104.707
104.761
104.796
104.812
104.812
104.796
104.761
104.707
104.629
104.525
104.391
104.222
104.016
103.772
111.354
112.086
112.704
113.208
113.608
113.916
114.144
114.304
114.405
114.454
114.454
114.405
114.303
114.143
113.915
113.607
113.207
112.702
112.085
111.352
119.045
120.272
121.298
122.13
122.783
123.282
123.649
123.905
124.067
124.144
124.144
124.066
123.904
123.648
123.28
122.781
122.127
121.296
120.27
119.043
126.928
128.658
130.087
131.228
132.113
132.78
133.265
133.601
133.812
133.913
133.913
133.811
133.6
133.264
132.778
132.111
131.226
130.084
128.655
126.925
135.1
137.347
139.164
140.583
141.661
142.459
143.031
143.423
143.666
143.783
143.782
143.665
143.421
143.029
142.456
141.658
140.58
139.16
137.343
135.097
143.687
146.464
148.638
150.28
151.489
152.363
152.978
153.392
153.648
153.769
153.769
153.647
153.391
152.976
152.36
151.486
150.276
148.634
146.461
143.684
152.869
156.186
158.643
160.407
161.654
162.525
163.124
163.521
163.763
163.878
163.877
163.762
163.52
163.122
162.523
161.651
160.404
158.64
156.182
152.866
162.943
166.765
169.342
171.053
172.194
172.96
173.472
173.805
174.006
174.101
174.1
174.006
173.804
173.47
172.958
172.192
171.05
169.339
166.762
162.94
174.494
178.591
180.906
182.268
183.109
183.648
183.998
184.222
184.356
184.418
184.418
184.355
184.222
183.997
183.647
183.108
182.266
180.904
178.589
174.492
188.984
192.199
193.422
194.003
194.328
194.525
194.651
194.73
194.777
194.799
194.799
194.777
194.73
194.65
194.525
194.327
194.003
193.421
192.198
188.982
103.773
104.016
104.222
104.391
104.526
104.63
104.707
104.762
104.796
104.813
104.813
104.796
104.761
104.707
104.63
104.526
104.391
104.222
104.016
103.773
111.354
112.087
112.704
113.208
113.609
113.916
114.144
114.304
114.405
114.454
114.454
114.405
114.304
114.144
113.916
113.608
113.208
112.703
112.086
111.353
119.045
120.272
121.298
122.13
122.784
123.283
123.65
123.906
124.067
124.145
124.145
124.067
123.905
123.649
123.281
122.782
122.128
121.297
120.271
119.044
126.928
128.659
130.087
131.229
132.114
132.78
133.266
133.602
133.812
133.914
133.913
133.812
133.601
133.265
132.779
132.112
131.227
130.086
128.657
126.926
135.1
137.347
139.164
140.584
141.662
142.459
143.032
143.423
143.667
143.783
143.783
143.666
143.422
143.03
142.457
141.66
140.581
139.162
137.345
135.098
143.687
146.465
148.638
150.28
151.49
152.363
152.978
153.393
153.649
153.77
153.77
153.648
153.392
152.977
152.361
151.488
150.278
148.636
146.462
143.685
152.869
156.186
158.643
160.408
161.655
162.526
163.125
163.522
163.764
163.878
163.878
163.763
163.521
163.123
162.524
161.653
160.406
158.641
156.184
152.867
162.943
166.766
169.342
171.053
172.194
172.96
173.473
173.806
174.007
174.102
174.101
174.007
173.805
173.472
172.959
172.193
171.052
169.34
166.764
162.941
174.494
178.591
180.906
182.268
183.11
183.649
183.999
184.223
184.357
184.419
184.419
184.356
184.223
183.998
183.648
183.109
182.267
180.905
178.591
174.494
188.984
192.199
193.422
194.004
194.328
194.526
194.651
194.73
194.777
194.799
194.799
194.777
194.73
194.651
194.525
194.328
194.003
193.422
192.199
188.983
103.493
103.182
102.845
102.488
102.117
101.738
101.354
100.968
100.581
100.194
110.511
109.571
108.553
107.476
106.359
105.218
104.064
102.904
101.743
100.581
117.625
116.039
114.319
112.503
110.625
108.711
106.779
104.842
102.904
100.968
124.907
122.639
120.182
117.594
114.927
112.221
109.5
106.779
104.064
101.354
132.437
129.43
126.174
122.762
119.269
115.745
112.221
108.711
105.218
101.738
140.313
136.471
132.323
128.013
123.642
119.27
114.929
110.626
106.36
102.117
148.659
143.816
138.633
133.324
128.014
122.765
117.596
112.506
107.477
102.488
157.641
151.502
145.069
138.635
132.327
126.179
120.186
114.323
108.555
102.845
167.461
159.483
151.506
143.822
136.478
129.438
122.647
116.044
109.575
103.183
178.223
167.464
157.648
148.669
140.324
132.449
124.917
117.633
110.516
103.495
103.492
103.181
102.844
102.487
102.116
101.737
101.353
100.967
100.58
100.193
110.509
109.57
108.551
107.474
106.358
105.217
104.063
102.903
101.741
100.58
117.624
116.037
114.317
112.502
110.624
108.709
106.778
104.84
102.903
100.967
124.905
122.638
120.18
117.592
114.926
112.219
109.499
106.778
104.063
101.353
132.436
129.429
126.173
122.761
119.267
115.744
112.22
108.71
105.217
101.737
140.311
136.469
132.321
128.011
123.64
119.268
114.927
110.625
106.359
102.117
148.658
143.815
138.631
133.322
128.012
122.763
117.595
112.504
107.476
102.487
157.639
151.501
145.067
138.634
132.325
126.177
120.184
114.321
108.554
102.845
167.459
159.481
151.504
143.82
136.476
129.436
122.645
116.043
109.573
103.182
178.222
167.462
157.646
148.667
140.322
132.447
124.915
117.632
110.515
103.494
103.492
103.181
102.844
102.487
102.116
101.737
101.353
100.967
100.58
100.193
110.509
109.57
108.551
107.474
106.358
105.217
104.063
102.903
101.741
100.58
117.624
116.037
114.317
112.502
110.624
108.709
106.778
104.84
102.903
100.967
124.905
122.638
120.18
117.592
114.926
112.219
109.499
106.778
104.063
101.353
132.436
129.429
126.173
122.761
119.267
115.744
112.22
108.71
105.217
101.737
140.311
136.469
132.321
128.011
123.64
119.268
114.927
110.625
106.359
102.117
148.658
143.815
138.631
133.322
128.012
122.763
117.595
112.504
107.476
102.487
157.639
151.501
145.067
138.634
132.325
126.177
120.184
114.321
108.554
102.845
167.459
159.481
151.504
143.82
136.476
129.436
122.645
116.043
109.573
103.182
178.222
167.462
157.646
148.667
140.322
132.447
124.915
117.632
110.514
103.494
103.493
103.182
102.845
102.488
102.117
101.738
101.354
100.968
100.581
100.194
110.511
109.571
108.553
107.476
106.359
105.218
104.064
102.904
101.743
100.581
117.625
116.039
114.319
112.503
110.625
108.711
106.779
104.842
102.904
100.968
124.907
122.639
120.182
117.594
114.927
112.221
109.5
106.779
104.064
101.354
132.437
129.43
126.174
122.762
119.269
115.745
112.221
108.711
105.218
101.738
140.313
136.471
132.323
128.013
123.642
119.27
114.929
110.626
106.36
102.117
148.659
143.816
138.633
133.324
128.014
122.765
117.596
112.506
107.477
102.488
157.641
151.502
145.069
138.635
132.327
126.179
120.186
114.323
108.555
102.845
167.461
159.483
151.506
143.822
136.478
129.438
122.647
116.044
109.575
103.183
178.223
167.464
157.648
148.669
140.324
132.449
124.917
117.633
110.516
103.495
188.986
174.501
162.953
152.882
143.701
135.114
126.941
119.055
111.361
103.775
192.203
178.601
166.78
156.204
146.484
137.367
128.677
120.287
112.096
104.02
193.427
180.919
169.362
158.668
148.665
139.191
130.112
121.318
112.717
104.227
194.01
182.286
171.08
160.442
150.317
140.621
131.262
122.157
113.226
104.398
194.337
183.134
172.232
161.701
151.541
141.713
132.16
122.82
113.632
104.534
194.537
183.682
173.011
162.589
152.433
142.529
132.843
123.332
113.948
104.641
194.667
184.043
173.541
163.211
153.073
143.126
133.351
123.717
114.188
104.722
194.752
184.284
173.9
163.64
153.523
143.552
133.718
123.998
114.363
104.782
194.806
184.44
174.136
163.925
153.825
143.843
133.97
124.192
114.486
104.824
194.839
184.533
174.277
164.098
154.012
144.023
134.128
124.315
114.563
104.85
194.854
184.575
174.343
164.179
154.1
144.11
134.205
124.375
114.601
104.863
194.852
184.572
174.339
164.176
154.099
144.111
134.208
124.378
114.604
104.864
194.834
184.521
174.263
164.088
154.009
144.028
134.139
124.326
114.572
104.854
194.796
184.414
174.106
163.904
153.821
143.854
133.992
124.216
114.504
104.831
194.73
184.232
173.844
163.602
153.516
143.576
133.76
124.043
114.397
104.795
194.622
183.939
173.434
163.146
153.067
143.173
133.428
123.798
114.248
104.744
194.437
183.468
172.81
162.479
152.435
142.621
132.984
123.474
114.051
104.679
194.094
182.688
171.859
161.527
151.574
141.895
132.412
123.064
113.805
104.597
193.342
181.33
170.411
160.199
150.44
140.975
131.706
122.566
113.51
104.499
191.285
178.883
168.256
158.422
149.014
139.861
130.871
121.987
113.168
104.386
188.985
174.499
162.95
152.879
143.699
135.112
126.939
119.054
111.359
103.774
192.201
178.598
166.777
156.201
146.482
137.365
128.675
120.285
112.094
104.019
193.425
180.916
169.359
158.666
148.663
139.189
130.11
121.316
112.715
104.226
194.008
182.283
171.078
160.439
150.315
140.619
131.26
122.155
113.224
104.397
194.335
183.131
172.229
161.698
151.538
141.71
132.157
122.818
113.63
104.533
194.535
183.679
173.008
162.586
152.43
142.526
132.841
123.33
113.947
104.64
194.665
184.041
173.538
163.208
153.07
143.124
133.349
123.715
114.186
104.721
194.75
184.281
173.897
163.637
153.52
143.55
133.715
123.995
114.361
104.781
194.804
184.437
174.132
163.922
153.823
143.84
133.968
124.19
114.484
104.823
194.837
184.53
174.274
164.095
154.009
144.02
134.126
124.312
114.561
104.849
194.851
184.572
174.339
164.176
154.097
144.107
134.203
124.372
114.599
104.862
194.85
184.568
174.335
164.173
154.096
144.108
134.206
124.376
114.602
104.863
194.832
184.517
174.26
164.085
154.006
144.025
134.136
124.324
114.57
104.852
194.794
184.41
174.103
163.901
153.817
143.851
133.989
124.214
114.502
104.829
194.728
184.228
173.84
163.599
153.513
143.572
133.757
124.04
114.395
104.793
194.619
183.935
173.43
163.142
153.064
143.17
133.425
123.795
114.246
104.743
194.435
183.464
172.806
162.475
152.431
142.618
132.981
123.471
114.049
104.677
194.091
182.684
171.854
161.523
151.57
141.892
132.409
123.061
113.803
104.595
193.339
181.326
170.407
160.196
150.436
140.971
131.702
122.563
113.507
104.497
191.282
178.879
168.252
158.419
149.01
139.858
130.868
121.984
113.166
104.384
188.985
174.499
162.95
152.879
143.699
135.112
126.939
119.054
111.359
103.774
192.201
178.598
166.777
156.201
146.482
137.365
128.675
120.285
112.094
104.019
193.425
180.916
169.359
158.666
148.663
139.189
130.11
121.316
112.715
104.226
194.008
182.283
171.078
160.439
150.315
140.619
131.26
122.155
113.224
104.397
194.335
183.131
172.229
161.698
151.538
141.71
132.157
122.818
113.63
104.533
194.535
183.679
173.008
162.586
152.43
142.526
132.841
123.33
113.947
104.64
194.665
184.041
173.538
163.208
153.07
143.124
133.349
123.715
114.186
104.721
194.75
184.281
173.897
163.637
153.52
143.55
133.715
123.995
114.361
104.781
194.804
184.437
174.132
163.922
153.823
143.84
133.968
124.19
114.484
104.823
194.837
184.53
174.274
164.095
154.009
144.02
134.126
124.312
114.561
104.849
194.851
184.572
174.339
164.176
154.097
144.107
134.203
124.372
114.599
104.862
194.85
184.569
174.335
164.173
154.096
144.108
134.206
124.376
114.602
104.863
194.832
184.517
174.26
164.085
154.006
144.025
134.136
124.324
114.57
104.852
194.794
184.41
174.103
163.901
153.817
143.851
133.989
124.214
114.502
104.829
194.728
184.228
173.84
163.599
153.513
143.572
133.757
124.04
114.395
104.793
194.619
183.935
173.43
163.142
153.064
143.17
133.425
123.795
114.246
104.743
194.435
183.464
172.806
162.475
152.431
142.618
132.981
123.471
114.049
104.677
194.091
182.684
171.854
161.523
151.57
141.892
132.409
123.061
113.803
104.595
193.339
181.326
170.407
160.196
150.436
140.971
131.702
122.563
113.507
104.497
191.282
178.879
168.252
158.419
149.01
139.858
130.868
121.984
113.166
104.384
188.986
174.501
162.953
152.882
143.701
135.114
126.941
119.055
111.361
103.775
192.203
178.601
166.78
156.204
146.484
137.367
128.677
120.287
112.096
104.02
193.427
180.919
169.362
158.668
148.665
139.191
130.112
121.318
112.717
104.227
194.01
182.286
171.08
160.442
150.317
140.621
131.262
122.157
113.226
104.398
194.337
183.134
172.232
161.701
151.541
141.713
132.16
122.82
113.632
104.534
194.537
183.682
173.011
162.589
152.433
142.529
132.843
123.332
113.948
104.641
194.667
184.043
173.541
163.211
153.073
143.126
133.351
123.717
114.188
104.722
194.752
184.284
173.9
163.64
153.523
143.552
133.718
123.998
114.363
104.782
194.806
184.44
174.136
163.925
153.825
143.843
133.97
124.192
114.486
104.824
194.839
184.533
174.277
164.098
154.012
144.023
134.128
124.315
114.563
104.85
194.854
184.575
174.343
164.179
154.1
144.11
134.205
124.375
114.601
104.863
194.852
184.572
174.339
164.176
154.099
144.111
134.208
124.378
114.604
104.864
194.834
184.521
174.263
164.088
154.009
144.028
134.139
124.326
114.572
104.854
194.796
184.414
174.106
163.904
153.821
143.854
133.992
124.216
114.504
104.831
194.73
184.232
173.844
163.602
153.516
143.576
133.76
124.043
114.397
104.795
194.622
183.939
173.434
163.146
153.067
143.173
133.428
123.798
114.248
104.744
194.437
183.468
172.81
162.479
152.435
142.621
132.984
123.474
114.051
104.679
194.094
182.688
171.859
161.527
151.574
141.895
132.412
123.064
113.805
104.597
193.342
181.33
170.411
160.199
150.44
140.975
131.706
122.566
113.51
104.499
191.285
178.883
168.256
158.422
149.014
139.861
130.871
121.987
113.168
104.386
184.197
174.661
165.311
156.223
147.336
138.587
129.934
121.343
112.792
104.262
177.979
170.26
162.108
153.828
145.522
137.223
128.936
120.661
112.394
104.131
172.969
166.296
159.04
151.462
143.707
135.85
127.931
119.974
111.994
104
168.967
162.923
156.298
149.279
141.999
134.543
126.968
119.314
111.608
103.873
165.779
160.137
153.955
147.365
140.472
133.359
126.089
118.707
111.253
103.756
163.267
157.895
152.029
145.759
139.171
132.339
125.324
118.178
110.942
103.653
161.341
156.156
150.511
144.476
138.119
131.507
124.697
117.74
110.684
103.568
159.941
154.883
149.39
143.519
137.328
130.877
124.219
117.406
110.486
103.503
159.028
154.049
148.651
142.885
136.801
130.455
123.899
117.182
110.352
103.459
158.578
153.636
148.285
142.569
136.539
130.245
123.739
117.07
110.286
103.442
184.193
174.658
165.307
156.219
147.332
138.584
129.931
121.34
112.789
104.26
177.975
170.256
162.105
153.824
145.519
137.219
128.933
120.658
112.392
104.13
172.966
166.293
159.036
151.459
143.703
135.846
127.928
119.971
111.991
103.998
168.965
162.92
156.295
149.276
141.996
134.539
126.965
119.31
111.605
103.871
165.776
160.134
153.953
147.362
140.469
133.356
126.085
118.704
111.25
103.754
163.265
157.893
152.026
145.756
139.168
132.336
125.321
118.174
110.938
103.651
161.339
156.153
150.508
144.473
138.116
131.503
124.693
117.736
110.679
103.566
159.939
154.88
149.387
143.516
137.325
130.873
124.215
117.401
110.481
103.5
159.026
154.046
148.649
142.882
136.798
130.451
123.894
117.177
110.346
103.455
158.575
153.634
148.282
142.566
136.535
130.241
123.734
117.065
110.279
103.436
184.193
174.658
165.307
156.219
147.332
138.584
129.931
121.34
112.789
104.26
177.975
170.257
162.105
153.824
145.519
137.219
128.933
120.658
112.392
104.13
172.966
166.293
159.036
151.459
143.703
135.846
127.928
119.971
111.991
103.998
168.965
162.92
156.295
149.276
141.996
134.539
126.965
119.31
111.605
103.871
165.776
160.134
153.953
147.362
140.469
133.356
126.085
118.704
111.25
103.754
163.265
157.893
152.026
145.756
139.168
132.336
125.321
118.174
110.938
103.651
161.339
156.154
150.509
144.473
138.116
131.503
124.693
117.736
110.679
103.566
159.939
154.88
149.387
143.516
137.325
130.873
124.215
117.401
110.481
103.5
159.026
154.046
148.649
142.882
136.798
130.451
123.894
117.177
110.346
103.455
158.575
153.634
148.282
142.566
136.535
130.241
123.734
117.065
110.279
103.436
184.197
174.662
165.311
156.223
147.336
138.587
129.934
121.343
112.792
104.262
177.979
170.26
162.108
153.828
145.522
137.223
128.936
120.661
112.394
104.131
172.969
166.296
159.04
151.462
143.707
135.85
127.931
119.974
111.994
104
168.967
162.923
156.298
149.279
141.999
134.543
126.968
119.314
111.608
103.873
165.779
160.137
153.955
147.365
140.472
133.359
126.089
118.707
111.253
103.756
163.267
157.896
152.029
145.759
139.171
132.339
125.324
118.178
110.942
103.653
161.341
156.156
150.511
144.476
138.119
131.507
124.697
117.74
110.684
103.568
159.941
154.883
149.39
143.519
137.328
130.877
124.219
117.406
110.486
103.503
159.028
154.049
148.651
142.885
136.801
130.455
123.899
117.182
110.352
103.459
158.578
153.636
148.285
142.569
136.538
130.244
123.739
117.07
110.286
103.442
192.862
195.63
196.803
197.441
197.846
198.123
198.317
198.451
198.535
198.575
198.576
198.535
198.452
198.319
198.125
197.848
197.444
196.806
195.632
192.864
184.487
188.485
190.949
192.558
193.666
194.453
195.014
195.403
195.648
195.768
195.768
195.65
195.406
195.019
194.459
193.673
192.565
190.956
188.492
184.492
178.627
182.878
185.951
188.178
189.81
191.012
191.887
192.5
192.891
193.081
193.082
192.894
192.506
191.895
191.021
189.821
188.189
185.963
182.889
178.637
174.187
178.451
181.803
184.396
186.388
187.901
189.027
189.825
190.338
190.589
190.591
190.343
189.833
189.038
187.915
186.404
184.414
181.821
178.47
174.205
170.724
174.942
178.417
181.222
183.45
185.185
186.498
187.442
188.052
188.353
188.355
188.059
187.453
186.513
185.204
183.472
181.247
178.444
174.97
170.751
168.02
172.181
175.708
178.633
181.011
182.899
184.347
185.399
186.083
186.422
186.425
186.092
185.413
184.367
182.924
181.041
178.667
175.744
172.22
168.06
165.954
170.064
173.608
176.6
179.071
181.06
182.602
183.731
184.47
184.837
184.841
184.481
183.749
182.627
181.092
179.109
176.643
173.655
170.115
166.007
164.453
168.522
172.068
175.096
177.624
179.677
181.282
182.462
183.239
183.626
183.63
183.252
182.484
181.312
179.715
177.67
175.149
172.126
168.585
164.519
163.473
167.514
171.057
174.104
176.664
178.754
180.396
181.608
182.408
182.808
182.813
182.423
181.633
180.43
178.798
176.716
174.164
171.125
167.587
163.55
162.988
167.015
170.557
173.61
176.184
178.292
179.952
181.179
181.991
182.396
182.401
182.007
181.206
179.989
178.339
176.241
173.675
170.629
167.094
163.072
192.864
195.632
196.805
197.442
197.847
198.124
198.318
198.451
198.535
198.575
198.575
198.535
198.452
198.318
198.124
197.847
197.443
196.805
195.631
192.862
184.49
188.488
190.951
192.56
193.668
194.454
195.015
195.403
195.649
195.768
195.768
195.65
195.405
195.018
194.458
193.671
192.563
190.954
188.489
184.489
178.63
182.881
185.953
188.18
189.812
191.013
191.888
192.501
192.891
193.081
193.082
192.894
192.505
191.894
191.02
189.819
188.187
185.96
182.887
178.635
174.19
178.454
181.805
184.399
186.39
187.903
189.028
189.826
190.338
190.589
190.59
190.342
189.832
189.036
187.914
186.402
184.412
181.819
178.467
174.202
170.727
174.945
178.42
181.225
183.452
185.187
186.5
187.442
188.052
188.353
188.355
188.058
187.452
186.512
185.203
183.47
181.245
178.441
174.967
170.749
168.023
172.184
175.711
178.636
181.013
182.9
184.349
185.399
186.084
186.422
186.425
186.092
185.412
184.366
182.922
181.039
178.665
175.742
172.218
168.057
165.957
170.067
173.61
176.602
179.073
181.062
182.604
183.732
184.47
184.837
184.841
184.48
183.748
182.626
181.09
179.107
176.641
173.653
170.113
166.005
164.456
168.525
172.071
175.099
177.626
179.679
181.283
182.463
183.239
183.626
183.63
183.251
182.483
181.311
179.714
177.668
175.147
172.124
168.583
164.517
163.476
167.517
171.06
174.106
176.666
178.756
180.397
181.609
182.409
182.808
182.813
182.423
181.632
180.429
178.796
176.714
174.162
171.123
167.585
163.548
162.991
167.017
170.559
173.612
176.186
178.294
179.953
181.18
181.991
182.396
182.401
182.006
181.205
179.987
178.338
176.239
173.674
170.627
167.092
163.07
192.864
195.632
196.805
197.442
197.847
198.124
198.318
198.451
198.535
198.575
198.576
198.535
198.452
198.319
198.124
197.847
197.443
196.805
195.631
192.862
184.49
188.488
190.951
192.56
193.668
194.455
195.015
195.403
195.649
195.768
195.768
195.65
195.405
195.018
194.458
193.671
192.563
190.954
188.489
184.489
178.63
182.881
185.953
188.18
189.812
191.013
191.888
192.501
192.891
193.081
193.082
192.894
192.505
191.894
191.02
189.819
188.187
185.96
182.887
178.635
174.19
178.454
181.805
184.399
186.39
187.903
189.028
189.826
190.338
190.589
190.59
190.342
189.832
189.036
187.914
186.402
184.412
181.819
178.467
174.202
170.727
174.945
178.42
181.225
183.452
185.187
186.5
187.442
188.052
188.353
188.355
188.058
187.452
186.512
185.203
183.471
181.245
178.442
174.967
170.749
168.023
172.185
175.711
178.636
181.013
182.901
184.349
185.399
186.084
186.422
186.425
186.092
185.412
184.366
182.922
181.039
178.665
175.742
172.218
168.057
165.957
170.067
173.61
176.602
179.074
181.062
182.604
183.732
184.471
184.837
184.841
184.481
183.748
182.626
181.09
179.107
176.641
173.653
170.113
166.005
164.456
168.525
172.071
175.099
177.627
179.679
181.283
182.463
183.239
183.626
183.63
183.252
182.483
181.311
179.714
177.668
175.147
172.124
168.583
164.517
163.476
167.517
171.06
174.106
176.666
178.756
180.397
181.609
182.409
182.808
182.813
182.423
181.632
180.429
178.796
176.714
174.162
171.123
167.585
163.548
162.991
167.018
170.559
173.612
176.186
178.294
179.953
181.18
181.991
182.396
182.401
182.006
181.205
179.987
178.338
176.239
173.673
170.627
167.092
163.07
192.862
195.63
196.803
197.441
197.846
198.123
198.317
198.451
198.535
198.575
198.576
198.535
198.452
198.319
198.125
197.848
197.444
196.806
195.632
192.864
184.487
188.485
190.949
192.558
193.666
194.453
195.014
195.403
195.648
195.768
195.768
195.65
195.406
195.019
194.459
193.673
192.565
190.956
188.492
184.492
178.627
182.878
185.951
188.178
189.81
191.012
191.887
192.5
192.891
193.081
193.082
192.894
192.506
191.895
191.021
189.821
188.189
185.963
182.889
178.637
174.187
178.451
181.803
184.396
186.388
187.901
189.026
189.825
190.338
190.589
190.591
190.343
189.833
189.038
187.915
186.404
184.414
181.821
178.47
174.205
170.724
174.942
178.417
181.222
183.45
185.185
186.498
187.442
188.052
188.353
188.355
188.059
187.453
186.513
185.204
183.472
181.247
178.444
174.97
170.752
168.02
172.181
175.708
178.633
181.011
182.899
184.347
185.399
186.083
186.422
186.425
186.092
185.413
184.367
182.924
181.041
178.667
175.744
172.22
168.06
165.954
170.064
173.608
176.6
179.071
181.06
182.602
183.731
184.47
184.837
184.841
184.481
183.749
182.628
181.092
179.109
176.643
173.655
170.115
166.007
164.453
168.522
172.068
175.096
177.624
179.677
181.282
182.462
183.239
183.626
183.63
183.252
182.484
181.312
179.715
177.67
175.149
172.126
168.585
164.519
163.473
167.514
171.058
174.104
176.664
178.754
180.396
181.608
182.408
182.808
182.813
182.423
181.633
180.43
178.798
176.716
174.164
171.124
167.587
163.55
162.988
167.015
170.556
173.61
176.184
178.292
179.951
181.179
181.99
182.396
182.401
182.006
181.206
179.988
178.339
176.241
173.675
170.629
167.094
163.072
104.262
112.793
121.346
129.939
138.594
147.342
156.229
165.315
174.664
184.196
104.131
112.395
120.664
128.94
137.228
145.527
153.831
162.11
170.259
177.975
103.999
111.993
119.975
127.932
135.851
143.707
151.461
159.036
166.291
172.96
103.871
111.605
119.311
126.965
134.538
141.993
149.271
156.287
162.909
168.951
103.753
111.248
118.7
126.079
133.347
140.457
147.346
153.933
160.112
165.752
103.65
110.933
118.165
125.307
132.317
139.144
145.727
151.993
157.858
163.228
103.563
110.671
117.721
124.67
131.473
138.078
144.429
150.461
156.103
161.288
103.496
110.469
117.378
124.18
130.829
137.273
143.457
149.324
154.815
159.873
103.45
110.332
117.145
123.848
130.394
136.732
142.809
148.572