/*--------------------------------*- C++ -*----------------------------------*\
| =========                 |                                                 |
| \\      /  F ield         | OpenFOAM: The Open Source CFD Toolbox           |
|  \\    /   O peration     | Version:  2.4.0                                 |
|   \\  /    A nd           | Web:      www.OpenFOAM.org                      |
|    \\/     M anipulation  |                                                 |
\*---------------------------------------------------------------------------*/
FoamFile
{
    version     2.0;
    format      ascii;
    class       volScalarField;
    location    "0.04";
    object      T;
}
// * * * * * * * * * * * * * * * * * * * * * * * * * * * * * * * * * * * * * //

dimensions      [0 0 0 1 0 0 0];

internalField   nonuniform List<scalar> 
1600
(
96.4638
89.4231
82.4769
75.6863
69.1097
62.8016
56.8124
51.1871
45.966
41.184
36.8712
33.0534
29.7528
26.9887
24.7786
23.1392
22.0869
21.6389
21.8138
22.6318
24.1149
26.2868
29.1724
32.797
37.1854
42.3603
48.3412
55.1427
62.7723
71.2295
80.5036
90.5727
101.402
112.945
125.14
137.912
151.177
164.836
178.784
192.908
96.4636
89.4225
82.4758
75.6848
69.1077
62.7993
56.8096
51.1841
45.9627
41.1806
36.8679
33.0504
29.7501
26.9866
24.7774
23.1389
22.0878
21.6411
21.8175
22.637
24.1218
26.2953
29.1824
32.8085
37.198
42.3739
48.3554
55.1571
62.7866
71.2433
80.5167
90.5847
101.413
112.954
125.148
137.919
151.182
164.84
178.787
192.909
96.4632
89.4213
82.4738
75.682
69.1041
62.7948
56.8045
51.1785
45.9569
41.1747
36.8621
33.0451
29.7456
26.9833
24.7755
23.1389
22.0899
21.6458
21.8248
22.6473
24.1351
26.3117
29.2018
32.8306
37.2225
42.4003
48.3833
55.1857
62.8152
71.2713
80.5433
90.6094
101.435
112.974
125.164
137.932
151.193
164.847
178.791
192.911
96.4627
89.4196
82.471
75.6781
69.0991
62.7889
56.7977
51.1711
45.9491
41.1669
36.8546
33.0383
29.74
26.9792
24.7735
23.1394
22.0934
21.6527
21.8355
22.662
24.1541
26.335
29.2293
32.8621
37.2577
42.4384
48.4236
55.2274
62.8573
71.3127
80.5831
90.6466
101.469
113.004
125.19
137.953
151.209
164.859
178.798
192.913
96.4621
89.4177
82.4679
75.6736
69.0934
62.7821
56.79
51.1627
45.9403
41.1581
36.8463
33.0308
29.734
26.9752
24.772
23.141
22.0987
21.6621
21.8497
22.6812
24.1786
26.3649
29.2647
32.9026
37.3029
42.4877
48.476
55.2818
62.9125
71.3673
80.6358
90.6962
101.515
113.044
125.224
137.982
151.231
164.875
178.807
192.916
96.4614
89.4157
82.4645
75.6689
69.0874
62.7749
56.7819
51.1539
45.9312
41.149
36.8378
33.0234
29.7282
26.9717
24.7714
23.144
22.1059
21.6741
21.867
22.7045
24.208
26.4008
29.307
32.9512
37.3573
42.5471
48.5394
55.3479
62.9799
71.4344
80.7009
90.7577
101.571
113.094
125.268
138.018
151.259
164.895
178.819
192.92
96.4608
89.4137
82.4612
75.6643
69.0816
62.768
56.774
51.1454
45.9224
41.1405
36.8299
33.0167
29.7233
26.9692
24.7721
23.1486
22.1151
21.6886
21.8874
22.7314
24.2419
26.442
29.3555
33.0069
37.4197
42.6155
48.6127
55.4247
63.0585
71.513
80.7775
90.8304
101.638
113.154
125.319
138.06
151.292
164.918
178.833
192.925
96.4602
89.4119
82.4583
75.6602
69.0764
62.7618
56.7671
51.138
45.9149
41.1332
36.8234
33.0115
29.7201
26.9687
24.7749
23.1554
22.1267
21.7058
21.9109
22.7618
24.2797
26.4876
29.4092
33.0685
37.4888
42.6914
48.6944
55.5107
63.147
71.6018
80.8645
90.9134
101.715
113.223
125.379
138.11
151.33
164.946
178.85
192.93
96.4598
89.4106
82.4561
75.6572
69.0725
62.7572
56.762
51.1326
45.9096
41.1283
36.8194
33.009
29.7195
26.9708
24.7804
23.165
22.1412
21.7259
21.9374
22.7953
24.3209
26.5369
29.4668
33.1345
37.563
42.7732
48.7826
55.6039
63.2434
71.6993
80.9605
91.0054
101.801
113.3
125.446
138.165
151.374
164.976
178.868
192.936
96.4596
89.4099
82.4551
75.6557
69.0706
62.7549
56.7595
51.1301
45.9074
41.1268
36.8189
33.01
29.7226
26.9766
24.7895
23.1781
22.159
21.7492
21.9669
22.8317
24.3648
26.5888
29.5271
33.2033
37.6402
42.8583
48.8749
55.702
63.3454
71.8029
81.0633
91.1045
101.893
113.384
125.519
138.225
151.421
165.01
178.888
192.943
96.4597
89.4102
82.4555
75.6562
69.0712
62.7558
56.7606
51.1316
45.9095
41.1298
36.8231
33.0158
29.7306
26.9871
24.8032
23.1956
22.1809
21.7762
21.9996
22.8707
24.4108
26.6423
29.5885
33.273
37.7182
42.9444
48.9684
55.8018
63.4499
71.91
81.1703
91.2086
101.991
113.473
125.597
138.29
151.472
165.047
178.91
192.95
96.4602
89.4116
82.4578
75.6594
69.0752
62.7606
56.7663
51.1382
45.9171
41.1386
36.8334
33.0279
29.7447
27.0037
24.8227
23.2185
22.2076
21.8073
22.0356
22.9123
24.4584
26.6965
29.6498
33.3418
37.7948
43.0287
49.0601
55.9002
63.5536
72.0172
81.2785
91.3148
102.093
113.566
125.678
138.359
151.526
165.085
178.933
192.958
96.4612
89.4145
82.4626
75.6659
69.0834
62.7704
56.7777
51.1512
45.9316
41.1548
36.8513
33.0477
29.7665
27.0278
24.8493
23.248
22.2403
21.8435
22.0757
22.9566
24.5075
26.7508
29.7099
33.4082
37.8678
43.1087
49.1471
55.9938
63.653
72.1209
81.3843
91.42
102.194
113.66
125.762
138.429
151.581
165.125
178.957
192.966
96.4627
89.4191
82.4702
75.6764
69.0966
62.7862
56.796
51.1718
45.9545
41.1798
36.8784
33.0769
29.7978
27.0611
24.8848
23.2857
22.2803
21.8859
22.1207
23.0045
24.5585
26.8053
29.7684
33.4712
37.9359
43.1824
49.2269
56.0797
63.7448
72.2175
81.4842
91.5207
102.292
113.753
125.845
138.5
151.637
165.165
178.981
192.974
96.465
89.4258
82.4812
75.6916
69.1159
62.8093
56.8225
51.2017
45.9874
41.2155
36.9167
33.1174
29.8404
27.1057
24.931
23.3334
22.3293
21.9361
22.1721
23.057
24.6123
26.8607
29.8257
33.5309
37.9987
43.2491
49.2981
56.1561
63.8265
72.3044
81.5751
91.6138
102.385
113.842
125.926
138.57
151.694
165.206
179.006
192.982
96.468
89.4349
82.4963
75.7125
69.1423
62.8408
56.8589
51.2424
46.0322
41.2638
36.9681
33.1714
29.8966
27.1636
24.9902
23.3933
22.3895
21.9963
22.2318
23.1161
24.6707
26.9184
29.8831
33.5884
38.0571
43.3092
49.3608
56.2223
63.8971
72.3796
81.6547
91.6967
102.469
113.924
126.003
138.638
151.748
165.246
179.03
192.99
96.472
89.447
82.5162
75.7399
69.1769
62.8822
56.9066
51.2958
46.0907
41.3268
37.0349
33.2413
29.9688
27.2373
25.0647
23.4679
22.4635
22.0688
22.3025
23.1844
24.7363
26.9812
29.9432
33.6462
38.1132
43.3645
49.4165
56.2796
63.9571
72.4433
81.7225
91.7683
102.543
113.998
126.074
138.701
151.801
165.284
179.053
192.997
96.4772
89.4623
82.5415
75.7749
69.2212
62.9351
56.9675
51.364
46.1653
41.407
37.1196
33.3297
30.0598
27.3298
25.1576
23.5601
22.5541
22.157
22.3872
23.265
24.8123
27.0523
30.0094
33.7077
38.1705
43.4185
49.4683
56.3306
64.0087
72.497
81.7793
91.8286
102.606
114.063
126.137
138.759
151.85
165.321
179.076
193.005
96.4836
89.4815
82.5732
75.8187
69.2765
63.0013
57.0437
51.4493
46.2585
41.507
37.2252
33.4395
30.1725
27.4441
25.2722
23.6736
22.6651
22.2643
22.4898
23.362
24.9029
27.1361
30.0861
33.7774
38.2336
43.4758
49.5208
56.3797
64.056
72.5442
81.828
91.8798
102.66
114.119
126.193
138.812
151.896
165.356
179.098
193.012
96.4914
89.5051
82.6122
75.8727
69.3447
63.0829
57.1375
51.5541
46.3731
41.6298
37.3548
33.5742
30.3107
27.5841
25.4122
23.8121
22.8006
22.3952
22.6148
23.48
25.013
27.2376
30.1785
33.8607
38.3081
43.5419
49.5795
56.4323
64.1042
72.5898
81.8728
91.9255
102.708
114.168
126.243
138.86
151.938
165.389
179.119
193.019
96.501
89.5339
82.6597
75.9384
69.4277
63.182
57.2516
51.6816
46.5123
41.779
37.5121
33.7376
30.4783
27.7539
25.5822
23.9803
22.9652
22.5545
22.7673
23.6243
25.148
27.3624
30.2926
33.9637
38.4
43.6231
49.6508
56.4949
64.1597
72.6398
81.9195
91.9707
102.753
114.214
126.289
138.905
151.979
165.421
179.139
193.025
96.5126
89.5686
82.7171
76.0176
69.5277
63.3015
57.3889
51.835
46.6798
41.9585
37.7013
33.9343
30.6801
27.9583
25.7871
24.1834
23.1644
22.7478
22.953
23.8008
25.314
27.5168
30.4346
34.0929
38.5162
43.7265
49.7419
56.5746
64.2293
72.7012
81.9746
92.0215
102.801
114.261
126.336
138.95
152.019
165.453
179.16
193.032
96.5265
89.6102
82.7858
76.1124
69.6475
63.4446
57.5533
52.0185
46.8801
42.1729
37.9273
34.1693
30.9212
28.203
26.0326
24.4273
23.4042
22.9814
23.1784
24.0162
25.5178
27.7078
30.6118
34.2556
38.6639
43.8593
49.8601
56.6789
64.3208
72.7814
82.0453
92.0848
102.859
114.315
126.386
138.997
152.061
165.487
179.182
193.039
96.5431
89.6599
82.8677
76.2255
69.7901
63.6148
57.7487
52.2365
47.1179
42.4276
38.1958
34.4483
31.2078
28.4941
26.3252
24.7185
23.6915
23.2623
23.4505
24.2776
25.7667
27.9428
30.8317
34.4594
38.8511
44.0295
50.0135
56.8159
64.4422
72.8883
82.1394
92.168
102.933
114.382
126.447
139.051
152.108
165.525
179.207
193.048
96.5629
89.7189
82.965
76.3598
69.9593
63.8165
57.9801
52.4945
47.3991
42.7286
38.513
34.7782
31.5467
28.8386
26.6721
25.0646
24.0338
23.598
23.7772
24.593
26.0689
28.23
31.1025
34.7127
39.086
44.2455
50.2104
56.9938
64.6017
73.0303
82.2651
92.279
103.032
114.469
126.524
139.118
152.165
165.569
179.237
193.057
96.5863
89.7889
83.0804
76.5188
70.1595
64.0548
58.2532
52.7987
47.7304
43.0829
38.8861
35.1662
31.9456
29.2444
27.0812
25.4735
24.4392
23.997
24.167
24.9711
26.433
28.5782
31.4331
35.0243
39.3775
44.5162
50.4597
57.2217
64.8082
73.216
82.4309
92.4261
103.161
114.583
126.623
139.204
152.235
165.623
179.272
193.069
96.6141
89.8718
83.2169
76.7067
70.3958
64.3358
58.5747
53.1561
48.1192
43.4983
39.3234
35.6207
32.4129
29.7202
27.5614
25.9542
24.9169
24.4684
24.629
25.421
26.8683
28.9967
31.8328
35.4036
39.7352
44.851
50.7709
57.5088
65.071
73.4547
82.6458
92.6179
103.331
114.732
126.752
139.313
152.324
165.691
179.315
193.083
96.647
89.9699
83.3784
76.9286
70.6742
64.6663
58.9522
53.5752
48.5743
43.9838
39.834
36.1511
32.958
30.2754
28.1221
26.5163
25.4764
25.0218
25.173
25.9525
27.3847
29.4955
32.3118
35.8608
40.169
45.2601
51.1541
57.8652
65.4
73.7559
82.9192
92.8636
103.55
114.923
126.918
139.452
152.437
165.776
179.369
193.101
96.686
90.0861
83.5694
77.1906
71.0023
65.0547
59.3946
54.0653
49.1054
44.5495
40.4281
36.7676
33.5913
30.9202
28.7735
27.1699
26.128
25.6675
25.8092
26.5761
27.9926
30.0849
32.8804
36.4064
40.6895
45.7539
51.6196
58.3013
65.8056
74.1301
83.2612
93.1731
103.826
115.167
127.128
139.63
152.58
165.882
179.436
193.124
96.7324
90.2239
83.7954
77.4999
71.3885
65.5106
59.9126
54.6373
49.7237
45.2066
41.1168
37.4812
34.3236
31.6655
29.5266
27.9258
26.8823
26.4161
26.5484
27.3023
28.7027
30.7759
33.5495
37.0512
41.3078
46.3435
52.1788
58.8282
66.2988
74.588
83.6827
93.5567
104.171
115.472
127.392
139.852
152.759
166.015
179.519
193.152
96.7875
90.3876
84.0635
77.8656
71.8435
66.0457
60.5181
55.3037
50.4416
45.9674
41.9123
38.3039
35.1668
32.5229
30.3925
28.7952
27.7505
27.2787
27.4015
28.1422
29.5259
31.5794
34.3304
37.8067
42.0352
47.0405
52.843
59.4576
66.8912
75.1415
84.1951
94.0261
104.595
115.849
127.72
140.128
152.981
166.181
179.622
193.187
96.8534
90.5829
84.3823
78.2988
72.3801
66.6736
61.2253
56.0785
51.2731
46.8455
42.8277
39.2485
36.1332
33.5043
31.3831
29.7895
28.7436
28.2663
28.3794
29.1067
30.4735
32.5067
35.2342
38.684
42.8832
47.8564
53.6243
60.2015
67.5952
75.8029
84.8111
94.5938
105.112
116.311
128.124
140.47
153.256
166.385
179.748
193.23
96.9326
90.8173
84.7634
78.8137
73.0138
67.4107
62.0505
56.9777
52.2335
47.8555
43.8771
40.3283
37.2353
34.6219
32.5099
30.9201
29.873
29.3899
29.4932
30.2067
31.5562
33.5686
36.2721
39.6946
43.8635
48.8033
54.5347
61.0725
68.4236
76.5854
85.5444
95.274
105.734
116.871
128.617
140.889
153.596
166.637
179.904
193.284
97.029
91.101
85.222
79.4285
73.7644
68.2766
63.0129
58.0195
53.3397
49.0131
45.0751
41.5568
38.4862
35.8879
33.7847
32.1981
31.1494
30.6602
30.7532
31.4528
32.7846
34.7759
37.4549
40.8496
44.9874
49.8929
55.5867
62.0834
69.3899
77.5036
86.4101
96.0826
106.48
117.548
129.217
141.405
154.016
166.95
180.099
193.353
97.1478
91.4492
85.7794
80.1674
74.6562
69.2949
64.1342
59.2237
54.6098
50.3348
46.4364
42.9478
39.8983
37.3139
35.2185
33.6342
32.5831
32.0871
32.1695
32.8546
34.1686
36.1386
38.7929
42.1597
46.2661
51.1369
56.7926
63.2476
70.5087
78.5728
87.4252
97.0383
107.37
118.364
129.949
142.039
154.538
167.344
180.345
193.442
97.2982
91.8852
86.4662
81.0627
75.7204
70.4938
65.4394
60.6121
56.0628
51.8372
47.976
44.5145
41.4837
38.9112
36.8216
35.2382
34.1834
33.6798
33.7509
34.4214
35.7173
37.6661
40.296
43.6351
47.7108
52.5474
58.1655
64.5795
71.7957
79.8108
88.6095
98.1631
108.428
119.346
130.841
142.825
155.195
167.848
180.662
193.557
97.4964
92.448
87.3281
82.1582
76.9956
71.906
66.9558
62.2075
57.7177
53.5365
49.7076
46.2689
43.2532
40.6893
38.6031
37.0185
35.9585
35.4463
35.5056
36.1611
37.4393
39.3674
41.9738
45.2865
49.3328
54.1371
59.7197
66.095
73.269
81.238
89.9861
99.4835
109.685
120.528
131.934
143.807
156.034
168.505
181.08
193.709
97.7741
93.2052
88.4325
83.5108
78.5267
73.5664
68.7103
64.0306
59.5908
55.4455
51.6418
48.2198
45.2142
42.655
40.5691
38.9811
37.9145
37.3929
37.4401
38.0812
39.3425
41.2515
43.8364
47.1254
51.1454
55.921
61.4723
67.8135
74.9506
82.8795
91.5836
101.032
111.178
121.956
133.281
145.049
157.131
169.394
181.661
193.926
98.2446
94.2794
89.8671
85.1831
80.3573
75.5041
70.7218
66.0936
61.6897
57.5689
53.7812
50.3688
47.3679
44.8094
42.721
41.1278
40.054
39.523
39.5592
40.1876
41.4346
43.3277
45.8951
49.1649
53.164
57.917
63.4439
69.7587
76.8674
84.7655
93.4361
102.847
112.951
123.679
134.943
146.628
158.585
170.648
182.556
194.323
99.1148
95.9133
91.7991
87.2753
82.545
77.7503
73.0053
68.4014
64.0132
59.9022
56.1199
52.7097
49.7084
47.1477
45.0556
43.4575
42.3776
41.8398
41.8683
42.4883
43.7261
45.6092
48.1658
51.4239
55.4106
60.1501
65.6626
71.9621
79.0542
86.9344
95.5851
104.974
115.052
125.75
136.975
148.611
160.494
172.437
184.089
195.331
)
;

boundaryField
{
    carasuperior
    {
        type            fixedGradient;
        gradient        uniform 100;
    }
    lateralizquierda
    {
        type            fixedValue;
        value           uniform 100;
    }
    lateralderecha
    {
        type            fixedValue;
        value           uniform 200;
    }
    carainferior
    {
        type            zeroGradient;
    }
    frontAndBack
    {
        type            empty;
    }
}


// ************************************************************************* //
