/*--------------------------------*- C++ -*----------------------------------*\
| =========                 |                                                 |
| \\      /  F ield         | OpenFOAM: The Open Source CFD Toolbox           |
|  \\    /   O peration     | Version:  2.4.0                                 |
|   \\  /    A nd           | Web:      www.OpenFOAM.org                      |
|    \\/     M anipulation  |                                                 |
\*---------------------------------------------------------------------------*/
FoamFile
{
    version     2.0;
    format      ascii;
    class       volScalarField;
    location    "0.0078";
    object      T;
}
// * * * * * * * * * * * * * * * * * * * * * * * * * * * * * * * * * * * * * //

dimensions      [0 0 0 1 0 0 0];

internalField   nonuniform List<scalar> 
4800
(
100.194
100.581
100.968
101.354
101.738
102.117
102.487
102.844
103.182
103.493
100.581
101.742
102.903
104.063
105.217
106.359
107.475
108.552
109.571
110.511
100.968
102.903
104.841
106.778
108.71
110.625
112.503
114.319
116.039
117.626
101.354
104.063
106.779
109.499
112.22
114.927
117.593
120.182
122.64
124.908
101.738
105.218
108.711
112.221
115.745
119.269
122.762
126.174
129.431
132.438
102.117
106.359
110.625
114.927
119.269
123.641
128.012
132.323
136.471
140.314
102.488
107.476
112.504
117.595
122.763
128.013
133.323
138.633
143.817
148.66
102.845
108.554
114.321
120.184
126.177
132.325
138.634
145.068
151.502
157.641
103.182
109.573
116.042
122.644
129.435
136.475
143.82
151.504
159.482
167.46
103.494
110.514
117.631
124.914
132.445
140.321
148.666
157.645
167.462
178.222
100.194
100.581
100.968
101.354
101.738
102.117
102.487
102.844
103.182
103.493
100.581
101.742
102.903
104.063
105.217
106.359
107.475
108.552
109.571
110.511
100.968
102.903
104.841
106.778
108.71
110.625
112.503
114.319
116.039
117.626
101.354
104.063
106.779
109.499
112.22
114.927
117.593
120.182
122.64
124.908
101.738
105.218
108.711
112.221
115.745
119.269
122.762
126.174
129.431
132.438
102.117
106.359
110.625
114.928
119.269
123.641
128.012
132.323
136.471
140.314
102.488
107.476
112.505
117.595
122.764
128.013
133.323
138.633
143.817
148.66
102.845
108.554
114.321
120.184
126.177
132.325
138.634
145.068
151.502
157.641
103.183
109.573
116.043
122.644
129.436
136.475
143.82
151.504
159.482
167.46
103.494
110.515
117.631
124.915
132.446
140.321
148.666
157.646
167.463
178.223
100.194
100.581
100.968
101.354
101.738
102.117
102.487
102.844
103.182
103.493
100.581
101.742
102.903
104.063
105.217
106.359
107.475
108.552
109.571
110.511
100.968
102.903
104.841
106.778
108.71
110.625
112.503
114.319
116.039
117.626
101.354
104.063
106.779
109.499
112.22
114.927
117.593
120.182
122.64
124.908
101.738
105.218
108.711
112.221
115.745
119.269
122.762
126.174
129.431
132.438
102.117
106.359
110.625
114.928
119.269
123.641
128.012
132.323
136.471
140.314
102.488
107.476
112.505
117.595
122.764
128.013
133.323
138.633
143.817
148.66
102.845
108.554
114.321
120.184
126.177
132.325
138.634
145.068
151.502
157.641
103.183
109.573
116.043
122.644
129.436
136.475
143.82
151.504
159.482
167.46
103.494
110.515
117.631
124.915
132.446
140.321
148.666
157.646
167.463
178.223
100.194
100.581
100.968
101.354
101.738
102.117
102.487
102.844
103.182
103.493
100.581
101.742
102.903
104.063
105.217
106.359
107.475
108.552
109.571
110.511
100.968
102.903
104.841
106.778
108.71
110.625
112.503
114.319
116.039
117.626
101.354
104.063
106.779
109.499
112.22
114.927
117.593
120.182
122.64
124.908
101.738
105.218
108.711
112.221
115.745
119.269
122.762
126.174
129.431
132.438
102.117
106.359
110.625
114.927
119.269
123.641
128.012
132.323
136.471
140.314
102.488
107.476
112.504
117.595
122.763
128.013
133.323
138.633
143.817
148.66
102.845
108.554
114.321
120.184
126.177
132.325
138.634
145.068
151.502
157.641
103.182
109.573
116.042
122.644
129.435
136.475
143.82
151.504
159.482
167.46
103.494
110.514
117.631
124.914
132.445
140.321
148.666
157.645
167.462
178.222
103.773
104.016
104.222
104.391
104.526
104.63
104.707
104.762
104.796
104.813
104.813
104.796
104.761
104.707
104.63
104.526
104.391
104.222
104.016
103.773
111.354
112.087
112.704
113.208
113.609
113.916
114.144
114.304
114.405
114.454
114.454
114.405
114.304
114.144
113.916
113.608
113.208
112.703
112.086
111.353
119.045
120.272
121.298
122.13
122.784
123.283
123.65
123.906
124.067
124.145
124.145
124.067
123.905
123.649
123.281
122.782
122.128
121.297
120.271
119.044
126.928
128.659
130.087
131.229
132.114
132.78
133.266
133.602
133.812
133.914
133.913
133.812
133.601
133.265
132.779
132.112
131.227
130.086
128.657
126.926
135.1
137.347
139.164
140.584
141.662
142.459
143.032
143.423
143.667
143.783
143.783
143.666
143.422
143.03
142.457
141.66
140.581
139.162
137.345
135.098
143.687
146.465
148.638
150.28
151.49
152.363
152.978
153.393
153.649
153.77
153.77
153.648
153.392
152.977
152.361
151.488
150.278
148.636
146.462
143.685
152.869
156.186
158.643
160.408
161.655
162.526
163.125
163.522
163.764
163.879
163.878
163.763
163.521
163.123
162.524
161.653
160.406
158.641
156.184
152.867
162.943
166.766
169.342
171.053
172.195
172.96
173.473
173.806
174.007
174.102
174.101
174.007
173.806
173.472
172.959
172.193
171.052
169.34
166.764
162.941
174.494
178.591
180.906
182.268
183.11
183.649
183.999
184.223
184.357
184.419
184.419
184.356
184.223
183.998
183.648
183.109
182.267
180.905
178.591
174.494
188.984
192.199
193.422
194.004
194.328
194.526
194.651
194.73
194.777
194.799
194.799
194.777
194.73
194.651
194.525
194.328
194.003
193.422
192.199
188.983
103.773
104.016
104.222
104.391
104.526
104.63
104.707
104.761
104.796
104.812
104.812
104.796
104.761
104.707
104.629
104.525
104.391
104.222
104.016
103.772
111.354
112.086
112.704
113.208
113.608
113.916
114.144
114.304
114.405
114.454
114.454
114.405
114.303
114.143
113.915
113.607
113.207
112.702
112.085
111.352
119.045
120.272
121.298
122.13
122.783
123.282
123.649
123.905
124.067
124.144
124.144
124.066
123.904
123.648
123.28
122.781
122.127
121.296
120.27
119.043
126.928
128.658
130.087
131.228
132.113
132.78
133.265
133.601
133.812
133.913
133.913
133.811
133.6
133.264
132.778
132.111
131.226
130.084
128.656
126.925
135.1
137.347
139.164
140.583
141.661
142.459
143.031
143.423
143.666
143.783
143.782
143.665
143.421
143.029
142.456
141.658
140.58
139.16
137.343
135.097
143.687
146.464
148.638
150.28
151.489
152.363
152.978
153.392
153.648
153.769
153.769
153.647
153.391
152.976
152.36
151.486
150.276
148.634
146.461
143.684
152.869
156.186
158.643
160.407
161.654
162.525
163.124
163.521
163.763
163.878
163.877
163.762
163.52
163.122
162.523
161.651
160.404
158.64
156.182
152.866
162.943
166.765
169.342
171.053
172.194
172.96
173.472
173.805
174.006
174.101
174.1
174.006
173.804
173.47
172.958
172.192
171.05
169.339
166.762
162.94
174.494
178.591
180.906
182.268
183.109
183.648
183.998
184.222
184.356
184.418
184.418
184.355
184.222
183.997
183.647
183.108
182.266
180.904
178.589
174.492
188.984
192.199
193.422
194.003
194.328
194.525
194.651
194.73
194.777
194.799
194.799
194.777
194.73
194.65
194.525
194.327
194.003
193.421
192.198
188.982
103.773
104.016
104.222
104.391
104.526
104.63
104.707
104.761
104.796
104.812
104.812
104.796
104.761
104.707
104.629
104.525
104.391
104.222
104.016
103.772
111.354
112.086
112.704
113.208
113.608
113.916
114.144
114.304
114.405
114.454
114.454
114.405
114.303
114.143
113.915
113.607
113.207
112.702
112.085
111.352
119.045
120.272
121.298
122.13
122.783
123.282
123.649
123.905
124.067
124.144
124.144
124.066
123.904
123.648
123.28
122.781
122.127
121.296
120.27
119.043
126.928
128.658
130.087
131.228
132.113
132.78
133.265
133.601
133.812
133.913
133.913
133.811
133.6
133.264
132.778
132.111
131.226
130.084
128.656
126.925
135.1
137.347
139.164
140.583
141.661
142.459
143.031
143.423
143.666
143.783
143.782
143.665
143.421
143.029
142.456
141.658
140.58
139.16
137.343
135.097
143.687
146.464
148.638
150.28
151.489
152.363
152.978
153.392
153.648
153.769
153.769
153.647
153.391
152.976
152.36
151.486
150.276
148.634
146.461
143.684
152.869
156.186
158.643
160.407
161.654
162.525
163.124
163.521
163.763
163.878
163.877
163.762
163.52
163.122
162.523
161.651
160.404
158.64
156.182
152.866
162.943
166.765
169.342
171.053
172.194
172.96
173.472
173.805
174.006
174.101
174.1
174.006
173.804
173.47
172.958
172.192
171.05
169.339
166.762
162.94
174.494
178.591
180.906
182.268
183.109
183.648
183.998
184.222
184.356
184.418
184.418
184.355
184.222
183.997
183.647
183.108
182.266
180.904
178.589
174.492
188.984
192.199
193.422
194.003
194.328
194.525
194.651
194.73
194.777
194.799
194.799
194.777
194.73
194.65
194.525
194.327
194.003
193.421
192.198
188.982
103.773
104.016
104.222
104.391
104.526
104.63
104.707
104.762
104.796
104.813
104.813
104.796
104.761
104.707
104.63
104.526
104.391
104.222
104.016
103.773
111.354
112.087
112.704
113.208
113.609
113.916
114.144
114.304
114.405
114.454
114.454
114.405
114.304
114.144
113.916
113.608
113.208
112.703
112.086
111.353
119.045
120.272
121.298
122.13
122.784
123.283
123.65
123.906
124.067
124.145
124.145
124.067
123.905
123.649
123.281
122.782
122.128
121.297
120.271
119.044
126.928
128.659
130.087
131.229
132.114
132.78
133.266
133.602
133.812
133.914
133.913
133.812
133.601
133.265
132.779
132.112
131.227
130.086
128.657
126.926
135.1
137.347
139.164
140.584
141.662
142.459
143.032
143.423
143.667
143.783
143.783
143.666
143.422
143.03
142.457
141.66
140.581
139.162
137.345
135.098
143.687
146.465
148.638
150.28
151.49
152.363
152.978
153.393
153.649
153.77
153.77
153.648
153.392
152.977
152.361
151.488
150.278
148.636
146.462
143.685
152.869
156.186
158.643
160.408
161.655
162.526
163.125
163.522
163.764
163.879
163.878
163.763
163.521
163.123
162.524
161.653
160.406
158.641
156.184
152.867
162.943
166.766
169.342
171.053
172.195
172.96
173.473
173.806
174.007
174.102
174.101
174.007
173.806
173.472
172.959
172.193
171.052
169.34
166.764
162.941
174.494
178.591
180.906
182.268
183.11
183.649
183.999
184.223
184.357
184.419
184.419
184.356
184.223
183.998
183.648
183.109
182.267
180.905
178.591
174.494
188.984
192.199
193.422
194.004
194.328
194.526
194.651
194.73
194.777
194.799
194.799
194.777
194.73
194.651
194.525
194.328
194.003
193.422
192.199
188.983
103.493
103.182
102.845
102.488
102.117
101.738
101.354
100.968
100.581
100.194
110.511
109.571
108.553
107.476
106.359
105.218
104.064
102.904
101.743
100.581
117.625
116.039
114.319
112.503
110.625
108.711
106.779
104.842
102.904
100.968
124.907
122.639
120.182
117.594
114.927
112.221
109.5
106.779
104.064
101.354
132.437
129.43
126.174
122.762
119.269
115.745
112.221
108.711
105.218
101.738
140.313
136.471
132.323
128.013
123.642
119.27
114.929
110.626
106.36
102.117
148.659
143.816
138.633
133.324
128.014
122.765
117.596
112.506
107.477
102.488
157.641
151.502
145.069
138.636
132.327
126.179
120.186
114.323
108.555
102.845
167.461
159.483
151.506
143.822
136.478
129.438
122.647
116.044
109.575
103.183
178.223
167.464
157.648
148.669
140.324
132.449
124.917
117.633
110.516
103.495
103.492
103.181
102.844
102.487
102.116
101.737
101.353
100.967
100.58
100.193
110.509
109.57
108.551
107.474
106.358
105.217
104.063
102.903
101.741
100.58
117.624
116.037
114.318
112.502
110.624
108.709
106.778
104.84
102.903
100.967
124.905
122.638
120.18
117.592
114.926
112.219
109.499
106.778
104.063
101.353
132.436
129.429
126.173
122.761
119.268
115.744
112.22
108.71
105.217
101.737
140.311
136.469
132.321
128.011
123.64
119.269
114.927
110.625
106.359
102.117
148.658
143.815
138.631
133.322
128.013
122.763
117.595
112.504
107.476
102.487
157.639
151.501
145.067
138.634
132.325
126.177
120.185
114.321
108.554
102.845
167.459
159.481
151.504
143.82
136.476
129.436
122.645
116.043
109.573
103.182
178.222
167.462
157.646
148.667
140.322
132.447
124.916
117.632
110.515
103.494
103.492
103.181
102.844
102.487
102.116
101.737
101.353
100.967
100.58
100.193
110.509
109.57
108.551
107.474
106.358
105.217
104.063
102.903
101.741
100.58
117.624
116.037
114.318
112.502
110.624
108.709
106.778
104.84
102.903
100.967
124.905
122.638
120.18
117.592
114.926
112.219
109.499
106.778
104.063
101.353
132.436
129.429
126.173
122.761
119.268
115.744
112.22
108.71
105.217
101.737
140.311
136.469
132.321
128.011
123.64
119.269
114.927
110.625
106.359
102.117
148.658
143.815
138.631
133.322
128.013
122.763
117.595
112.504
107.476
102.487
157.639
151.501
145.067
138.634
132.325
126.177
120.185
114.321
108.554
102.845
167.459
159.481
151.504
143.82
136.476
129.436
122.645
116.043
109.573
103.182
178.222
167.462
157.646
148.667
140.322
132.447
124.916
117.632
110.515
103.494
103.493
103.182
102.845
102.488
102.117
101.738
101.354
100.968
100.581
100.194
110.511
109.571
108.553
107.476
106.359
105.218
104.064
102.904
101.743
100.581
117.625
116.039
114.319
112.503
110.625
108.711
106.779
104.842
102.904
100.968
124.907
122.639
120.182
117.594
114.927
112.221
109.5
106.779
104.064
101.354
132.437
129.43
126.174
122.762
119.269
115.745
112.221
108.711
105.218
101.738
140.313
136.471
132.323
128.013
123.642
119.27
114.929
110.626
106.36
102.117
148.659
143.816
138.633
133.324
128.014
122.765
117.596
112.506
107.477
102.488
157.641
151.502
145.069
138.636
132.327
126.179
120.186
114.323
108.555
102.845
167.461
159.483
151.506
143.822
136.478
129.438
122.647
116.044
109.575
103.183
178.223
167.464
157.648
148.669
140.324
132.449
124.917
117.633
110.516
103.495
188.986
174.501
162.953
152.882
143.701
135.115
126.941
119.056
111.361
103.775
192.203
178.601
166.78
156.204
146.484
137.367
128.677
120.287
112.096
104.02
193.427
180.919
169.362
158.668
148.666
139.192
130.112
121.318
112.717
104.227
194.01
182.286
171.081
160.442
150.318
140.621
131.263
122.157
113.226
104.398
194.337
183.134
172.232
161.701
151.541
141.713
132.16
122.82
113.632
104.534
194.537
183.682
173.011
162.589
152.434
142.529
132.843
123.333
113.949
104.641
194.667
184.044
173.542
163.211
153.074
143.127
133.352
123.718
114.188
104.722
194.752
184.284
173.901
163.64
153.524
143.553
133.719
123.998
114.364
104.782
194.807
184.44
174.136
163.926
153.827
143.844
133.971
124.193
114.486
104.824
194.839
184.534
174.279
164.1
154.013
144.025
134.13
124.316
114.564
104.85
194.854
184.576
174.344
164.181
154.102
144.112
134.207
124.376
114.602
104.864
194.853
184.573
174.341
164.179
154.102
144.114
134.211
124.38
114.605
104.865
194.835
184.523
174.266
164.091
154.013
144.032
134.142
124.329
114.574
104.854
194.797
184.416
174.11
163.908
153.825
143.859
133.996
124.219
114.506
104.831
194.731
184.235
173.848
163.608
153.522
143.581
133.765
124.047
114.4
104.795
194.623
183.943
173.44
163.153
153.075
143.18
133.435
123.803
114.251
104.745
194.439
183.474
172.818
162.489
152.445
142.631
132.992
123.481
114.056
104.68
194.097
182.695
171.869
161.54
151.587
141.907
132.422
123.072
113.81
104.598
193.347
181.341
170.425
160.216
150.457
140.99
131.719
122.576
113.516
104.501
191.294
178.899
168.277
158.444
149.035
139.88
130.887
121.999
113.176
104.388
188.985
174.499
162.951
152.88
143.699
135.113
126.939
119.054
111.359
103.774
192.201
178.598
166.777
156.201
146.482
137.365
128.675
120.285
112.095
104.019
193.425
180.916
169.359
158.666
148.663
139.189
130.11
121.316
112.715
104.226
194.008
182.283
171.078
160.439
150.315
140.619
131.26
122.155
113.224
104.397
194.335
183.131
172.229
161.698
151.539
141.711
132.158
122.818
113.631
104.533
194.535
183.679
173.008
162.587
152.431
142.527
132.841
123.33
113.947
104.64
194.665
184.041
173.539
163.208
153.071
143.124
133.349
123.716
114.186
104.721
194.75
184.281
173.898
163.637
153.521
143.551
133.716
123.996
114.362
104.781
194.805
184.437
174.133
163.923
153.824
143.841
133.969
124.191
114.484
104.823
194.837
184.531
174.275
164.096
154.01
144.022
134.127
124.313
114.562
104.849
194.852
184.573
174.341
164.178
154.099
144.109
134.205
124.374
114.6
104.862
194.85
184.57
174.337
164.175
154.099
144.111
134.208
124.378
114.603
104.864
194.832
184.519
174.262
164.088
154.009
144.029
134.139
124.326
114.571
104.853
194.794
184.412
174.106
163.905
153.822
143.855
133.993
124.217
114.504
104.83
194.729
184.231
173.844
163.604
153.519
143.578
133.762
124.044
114.398
104.794
194.62
183.939
173.436
163.149
153.071
143.177
133.432
123.801
114.249
104.744
194.436
183.47
172.814
162.485
152.441
142.628
132.989
123.478
114.053
104.679
194.094
182.691
171.865
161.536
151.583
141.904
132.419
123.069
113.808
104.597
193.344
181.337
170.421
160.212
150.453
140.987
131.715
122.573
113.513
104.499
191.291
178.895
168.273
158.44
149.032
139.877
130.884
121.996
113.173
104.387
188.985
174.499
162.951
152.88
143.699
135.113
126.939
119.054
111.359
103.774
192.201
178.598
166.777
156.201
146.482
137.365
128.675
120.285
112.095
104.019
193.425
180.916
169.359
158.666
148.663
139.189
130.11
121.316
112.715
104.226
194.008
182.283
171.078
160.439
150.315
140.619
131.26
122.155
113.224
104.397
194.335
183.131
172.229
161.698
151.539
141.711
132.158
122.818
113.631
104.533
194.535
183.679
173.008
162.587
152.431
142.527
132.841
123.33
113.947
104.64
194.665
184.041
173.539
163.208
153.071
143.124
133.349
123.716
114.186
104.721
194.75
184.281
173.898
163.637
153.521
143.551
133.716
123.996
114.362
104.781
194.805
184.437
174.133
163.923
153.824
143.841
133.969
124.191
114.484
104.823
194.837
184.531
174.275
164.096
154.01
144.022
134.127
124.313
114.562
104.849
194.852
184.573
174.341
164.178
154.099
144.109
134.205
124.374
114.6
104.862
194.85
184.57
174.337
164.175
154.099
144.111
134.208
124.378
114.603
104.864
194.832
184.519
174.262
164.088
154.009
144.029
134.139
124.326
114.571
104.853
194.794
184.412
174.106
163.905
153.822
143.855
133.993
124.217
114.504
104.83
194.729
184.231
173.844
163.604
153.519
143.578
133.762
124.044
114.398
104.794
194.62
183.939
173.436
163.149
153.071
143.177
133.432
123.8
114.249
104.744
194.436
183.47
172.814
162.485
152.441
142.628
132.989
123.478
114.053
104.679
194.094
182.691
171.865
161.536
151.583
141.904
132.419
123.069
113.808
104.597
193.344
181.337
170.421
160.212
150.453
140.987
131.715
122.573
113.513
104.499
191.291
178.895
168.273
158.44
149.032
139.877
130.884
121.996
113.173
104.387
188.986
174.501
162.953
152.882
143.701
135.115
126.941
119.056
111.361
103.775
192.203
178.601
166.78
156.204
146.484
137.367
128.677
120.287
112.096
104.02
193.427
180.919
169.362
158.668
148.666
139.192
130.112
121.318
112.717
104.227
194.01
182.286
171.081
160.442
150.318
140.621
131.263
122.157
113.226
104.398
194.337
183.134
172.232
161.701
151.541
141.713
132.16
122.82
113.632
104.534
194.537
183.682
173.011
162.589
152.434
142.529
132.843
123.333
113.949
104.641
194.667
184.044
173.542
163.211
153.074
143.127
133.352
123.718
114.188
104.722
194.752
184.284
173.901
163.64
153.524
143.553
133.719
123.998
114.364
104.782
194.807
184.44
174.136
163.926
153.827
143.844
133.971
124.193
114.486
104.824
194.839
184.534
174.279
164.1
154.013
144.025
134.13
124.316
114.564
104.85
194.854
184.576
174.344
164.181
154.102
144.112
134.207
124.376
114.602
104.864
194.853
184.573
174.341
164.179
154.102
144.114
134.211
124.38
114.605
104.865
194.835
184.523
174.266
164.091
154.013
144.032
134.142
124.329
114.574
104.854
194.797
184.416
174.11
163.908
153.825
143.859
133.996
124.219
114.506
104.831
194.731
184.235
173.848
163.608
153.522
143.581
133.765
124.047
114.4
104.795
194.623
183.943
173.44
163.153
153.075
143.18
133.435
123.803
114.251
104.745
194.439
183.474
172.818
162.489
152.445
142.631
132.992
123.481
114.056
104.68
194.097
182.695
171.869
161.54
151.587
141.907
132.422
123.072
113.81
104.598
193.347
181.341
170.425
160.216
150.457
140.99
131.719
122.576
113.516
104.501
191.294
178.899
168.277
158.444
149.035
139.88
130.887
121.999
113.176
104.388
184.218
174.687
165.339
156.251
147.362
138.611
129.953
121.358
112.801
104.265
178.014
170.297
162.145
153.863
145.555
137.251
128.96
120.679
112.405
104.135
173.018
166.345
159.086
151.506
143.746
135.883
127.958
119.994
112.006
104.004
169.03
162.983
156.354
149.331
142.045
134.582
126.999
119.337
111.622
103.877
165.854
160.207
154.02
147.424
140.524
133.403
126.124
118.733
111.268
103.761
163.352
157.975
152.102
145.824
139.228
132.387
125.363
118.205
110.958
103.659
161.435
156.243
150.591
144.547
138.181
131.559
124.738
117.77
110.702
103.574
160.042
154.975
149.474
143.594
137.394
130.931
124.262
117.438
110.505
103.51
159.133
154.145
148.739
142.963
136.87
130.512
123.944
117.215
110.372
103.466
158.685
153.735
148.375
142.649
136.608
130.303
123.785
117.104
110.306
103.449
184.214
174.683
165.335
156.248
147.359
138.608
129.95
121.355
112.798
104.263
178.01
170.293
162.142
153.86
145.551
137.248
128.957
120.676
112.402
104.133
173.015
166.342
159.083
151.502
143.743
135.88
127.955
119.991
112.004
104.002
169.027
162.98
156.351
149.328
142.041
134.578
126.996
119.333
111.619
103.876
165.851
160.204
154.017
147.421
140.521
133.4
126.12
118.729
111.265
103.759
163.349
157.972
152.099
145.821
139.225
132.384
125.359
118.202
110.955
103.657
161.432
156.24
150.588
144.544
138.178
131.555
124.734
117.766
110.698
103.572
160.039
154.973
149.472
143.591
137.39
130.928
124.258
117.433
110.5
103.506
159.131
154.143
148.737
142.96
136.866
130.508
123.939
117.209
110.366
103.461
158.683
153.733
148.372
142.646
136.605
130.299
123.78
117.098
110.3
103.442
184.214
174.683
165.336
156.248
147.359
138.608
129.95
121.355
112.798
104.263
178.01
170.293
162.142
153.86
145.551
137.248
128.957
120.676
112.402
104.133
173.015
166.342
159.083
151.502
143.743
135.88
127.955
119.991
112.004
104.002
169.027
162.98
156.351
149.328
142.041
134.578
126.996
119.333
111.619
103.876
165.851
160.204
154.018
147.421
140.521
133.4
126.12
118.729
111.265
103.759
163.35
157.972
152.099
145.821
139.225
132.384
125.359
118.202
110.955
103.657
161.432
156.24
150.588
144.544
138.178
131.555
124.734
117.766
110.698
103.572
160.039
154.973
149.472
143.591
137.39
130.928
124.258
117.433
110.5
103.506
159.131
154.143
148.737
142.96
136.866
130.508
123.939
117.209
110.366
103.461
158.683
153.733
148.372
142.646
136.605
130.299
123.78
117.098
110.299
103.442
184.218
174.687
165.339
156.251
147.362
138.611
129.953
121.358
112.801
104.265
178.014
170.297
162.145
153.863
145.555
137.251
128.96
120.679
112.405
104.135
173.018
166.345
159.086
151.506
143.746
135.883
127.958
119.994
112.006
104.004
169.03
162.983
156.354
149.331
142.045
134.582
126.999
119.337
111.622
103.877
165.854
160.207
154.02
147.424
140.524
133.403
126.124
118.733
111.268
103.761
163.352
157.975
152.102
145.824
139.228
132.387
125.363
118.205
110.958
103.659
161.435
156.243
150.591
144.547
138.181
131.559
124.738
117.77
110.702
103.574
160.042
154.976
149.475
143.594
137.394
130.932
124.262
117.438
110.505
103.51
159.133
154.146
148.74
142.963
136.87
130.512
123.944
117.215
110.372
103.466
158.685
153.735
148.375
142.649
136.608
130.303
123.785
117.104
110.306
103.449
192.875
195.641
196.814
197.452
197.856
198.134
198.329
198.462
198.546
198.587
198.587
198.547
198.463
198.33
198.136
197.859
197.455
196.817
195.643
192.877
184.519
188.517
190.98
192.589
193.698
194.486
195.048
195.437
195.682
195.802
195.803
195.685
195.44
195.053
194.492
193.705
192.597
190.987
188.523
184.524
178.676
182.927
186.001
188.229
189.863
191.066
191.942
192.556
192.947
193.138
193.139
192.95
192.562
191.95
191.075
189.874
188.241
186.014
182.939
178.687
174.252
178.518
181.871
184.467
186.46
187.975
189.101
189.901
190.414
190.666
190.667
190.419
189.909
189.112
187.989
186.476
184.484
181.89
178.536
174.27
170.802
175.023
178.501
181.309
183.539
185.277
186.591
187.536
188.147
188.448
188.45
188.154
187.547
186.606
185.296
183.562
181.334
178.528
175.051
170.83
168.11
172.275
175.806
178.734
181.115
183.005
184.456
185.509
186.195
186.534
186.537
186.203
185.523
184.476
183.031
181.145
178.768
175.842
172.314
168.149
166.053
170.168
173.717
176.713
179.188
181.179
182.724
183.854
184.595
184.962
184.966
184.606
183.872
182.749
181.211
179.226
176.756
173.764
170.22
166.106
164.56
168.634
172.186
175.218
177.75
179.806
181.413
182.596
183.374
183.761
183.766
183.387
182.618
181.444
179.845
177.796
175.271
172.244
168.698
164.626
163.584
167.632
171.181
174.232
176.796
178.89
180.535
181.749
182.551
182.951
182.956
182.566
181.774
180.569
178.934
176.849
174.293
171.248
167.705
163.662
163.102
167.136
170.683
173.742
176.32
178.432
180.094
181.324
182.136
182.542
182.548
182.152
181.35
180.131
178.479
176.377
173.807
170.756
167.215
163.187
192.877
195.643
196.816
197.453
197.858
198.135
198.329
198.463
198.546
198.587
198.587
198.547
198.463
198.33
198.135
197.858
197.453
196.816
195.642
192.875
184.522
188.519
190.982
192.592
193.7
194.487
195.049
195.437
195.683
195.802
195.802
195.684
195.439
195.052
194.491
193.703
192.595
190.985
188.521
184.522
178.68
182.93
186.004
188.232
189.865
191.067
191.943
192.557
192.947
193.138
193.138
192.95
192.561
191.949
191.074
189.872
188.239
186.011
182.937
178.684
174.255
178.521
181.874
184.469
186.462
187.977
189.103
189.902
190.414
190.666
190.667
190.418
189.908
189.111
187.987
186.474
184.482
181.887
178.534
174.267
170.805
175.026
178.504
181.312
183.541
185.278
186.592
187.536
188.147
188.448
188.45
188.153
187.546
186.605
185.294
183.56
181.332
178.526
175.049
170.827
168.113
172.278
175.808
178.737
181.117
183.007
184.457
185.509
186.195
186.534
186.537
186.203
185.522
184.475
183.029
181.143
178.766
175.84
172.312
168.147
166.056
170.171
173.719
176.715
179.19
181.181
182.725
183.855
184.595
184.963
184.966
184.605
183.872
182.748
181.21
179.224
176.754
173.762
170.217
166.104
164.563
168.637
172.188
175.221
177.752
179.808
181.415
182.597
183.374
183.762
183.766
183.386
182.617
181.443
179.843
177.795
175.269
172.242
168.696
164.624
163.587
167.634
171.183
174.234
176.798
178.892
180.536
181.75
182.551
182.951
182.955
182.565
181.773
180.568
178.932
176.847
174.291
171.246
167.703
163.66
163.105
167.138
170.685
173.744
176.322
178.433
180.095
181.324
182.136
182.542
182.547
182.152
181.349
180.13
178.477
176.375
173.805
170.754
167.213
163.185
192.877
195.643
196.816
197.453
197.858
198.135
198.329
198.463
198.546
198.587
198.587
198.547
198.463
198.33
198.135
197.858
197.453
196.816
195.642
192.875
184.522
188.519
190.983
192.592
193.7
194.488
195.049
195.437
195.683
195.802
195.802
195.684
195.439
195.052
194.491
193.703
192.595
190.985
188.521
184.522
178.68
182.93
186.004
188.232
189.865
191.067
191.943
192.557
192.947
193.138
193.138
192.95
192.561
191.949
191.074
189.872
188.239
186.011
182.937
178.684
174.255
178.521
181.874
184.469
186.462
187.977
189.103
189.902
190.414
190.666
190.667
190.418
189.908
189.111
187.987
186.474
184.482
181.887
178.534
174.267
170.805
175.026
178.504
181.312
183.541
185.278
186.592
187.537
188.147
188.448
188.45
188.153
187.546
186.605
185.294
183.56
181.332
178.526
175.049
170.827
168.113
172.278
175.808
178.737
181.117
183.007
184.457
185.51
186.195
186.534
186.537
186.203
185.522
184.475
183.029
181.143
178.766
175.84
172.312
168.147
166.056
170.171
173.719
176.715
179.19
181.181
182.725
183.855
184.595
184.963
184.966
184.605
183.872
182.748
181.21
179.224
176.754
173.762
170.217
166.104
164.563
168.638
172.188
175.221
177.752
179.808
181.415
182.597
183.374
183.762
183.766
183.387
182.617
181.443
179.843
177.795
175.269
172.242
168.696
164.624
163.587
167.634
171.183
174.234
176.798
178.892
180.536
181.75
182.551
182.951
182.955
182.565
181.773
180.568
178.932
176.847
174.291
171.246
167.703
163.66
163.105
167.138
170.685
173.744
176.322
178.433
180.095
181.324
182.136
182.542
182.547
182.151
181.349
180.13
178.477
176.375
173.805
170.754
167.213
163.185
192.875
195.641
196.814
197.452
197.856
198.134
198.329
198.462
198.546
198.587
198.587
198.547
198.463
198.33
198.136
197.859
197.455
196.817
195.643
192.877
184.519
188.517
190.98
192.589
193.698
194.486
195.048
195.437
195.682
195.802
195.803
195.685
195.44
195.053
194.492
193.705
192.597
190.987
188.523
184.524
178.676
182.927
186.001
188.229
189.863
191.066
191.942
192.556
192.947
193.138
193.139
192.95
192.562
191.95
191.075
189.874
188.241
186.013
182.939
178.687
174.252
178.518
181.871
184.467
186.46
187.975
189.101
189.901
190.414
190.666
190.667
190.419
189.909
189.112
187.989
186.476
184.484
181.889
178.536
174.27
170.802
175.023
178.501
181.309
183.539
185.277
186.591
187.536
188.147
188.448
188.45
188.154
187.547
186.606
185.296
183.562
181.334
178.528
175.051
170.83
168.11
172.275
175.806
178.734
181.115
183.005
184.456
185.509
186.195
186.534
186.537
186.203
185.523
184.476
183.031
181.145
178.768
175.842
172.314
168.149
166.053
170.168
173.717
176.713
179.188
181.179
182.724
183.854
184.595
184.963
184.966
184.606
183.872
182.749
181.211
179.226
176.756
173.764
170.22
166.106
164.56
168.635
172.186
175.218
177.75
179.807
181.414
182.596
183.374
183.762
183.766
183.387
182.618
181.444
179.845
177.796
175.271
172.244
168.698
164.626
163.584
167.632
171.181
174.232
176.796
178.89
180.534
181.749
182.55
182.951
182.956
182.565
181.774
180.569
178.934
176.848
174.293
171.248
167.705
163.662
163.102
167.136
170.683
173.742
176.32
178.432
180.094
181.323
182.136
182.542
182.548
182.152
181.35
180.131
178.479
176.377
173.807
170.756
167.215
163.187
104.265
112.802
121.361
129.959
138.617
147.369
156.257
165.343
174.689
184.216
104.134
112.406
120.681
128.964
137.256
145.559
153.867
162.147
170.296
178.01
104.003
112.005
119.995
127.96
135.885
143.746
151.504
159.083
166.339
173.009
103.876
111.619
119.334
126.996
134.577
142.038
149.322
156.342
162.969
169.013
103.759
111.263
118.726
126.114
133.391
140.508
147.405
153.998
160.182
165.826
103.655
110.95
118.193
125.345
132.365
139.201
145.792
152.066
157.937
163.312
103.569
110.689
117.75
124.711
131.524
138.14
144.5
150.54
156.19
161.381
103.502
110.488
117.41
124.224
130.883
137.338
143.532
149.409
154.908
159.973
103.457
110.351
117.177
123.893