/*--------------------------------*- C++ -*----------------------------------*\
| =========                 |                                                 |
| \\      /  F ield         | OpenFOAM: The Open Source CFD Toolbox           |
|  \\    /   O peration     | Version:  2.4.0                                 |
|   \\  /    A nd           | Web:      www.OpenFOAM.org                      |
|    \\/     M anipulation  |                                                 |
\*---------------------------------------------------------------------------*/
FoamFile
{
    version     2.0;
    format      ascii;
    class       surfaceScalarField;
    location    "1.4";
    object      phi;
}
// * * * * * * * * * * * * * * * * * * * * * * * * * * * * * * * * * * * * * //

dimensions      [0 3 -1 0 0 0 0];

internalField   nonuniform List<scalar> 
12720
(
1.07646e-07
-1.07757e-07
1.02474e-10
-5.86178e-07
6.92163e-07
1.65983e-09
-2.04961e-06
1.46097e-06
2.465e-09
-4.04434e-06
1.99158e-06
3.14468e-09
-6.3506e-06
2.30272e-06
3.53812e-09
-8.78958e-06
2.43529e-06
3.69115e-09
-1.12143e-05
2.42098e-06
3.68665e-09
-1.34969e-05
2.2791e-06
3.52606e-09
-1.55257e-05
2.02568e-06
3.1862e-09
1.68744e-06
2.64746e-09
-1.72158e-05
-7.19785e-07
6.13372e-07
-1.34287e-09
-3.17012e-06
3.14213e-06
3.66166e-10
-7.11459e-06
5.40691e-06
-1.46221e-09
-1.21529e-05
7.03217e-06
-2.26218e-09
-1.78714e-05
8.02383e-06
-2.65023e-09
-2.38872e-05
8.45399e-06
-2.89522e-09
-2.98541e-05
8.39081e-06
-2.89695e-09
-3.54592e-05
7.88692e-06
-2.69126e-09
-4.04319e-05
7.00072e-06
-2.3607e-09
5.83137e-06
-2.03668e-09
-4.45738e-05
-1.60029e-06
2.21601e-06
-2.34586e-09
-5.73476e-06
7.27447e-06
2.13148e-09
-1.18265e-05
1.14985e-05
1.08132e-10
-1.93217e-05
1.45275e-05
-6.99679e-11
-2.76851e-05
1.63871e-05
1.35106e-10
-3.64108e-05
1.71796e-05
1.30271e-10
-4.50207e-05
1.70005e-05
1.39345e-10
-5.30654e-05
1.59314e-05
1.88399e-10
-6.01462e-05
1.40813e-05
2.43145e-10
1.16524e-05
1.45622e-10
-6.59674e-05
-2.29856e-06
4.51792e-06
-3.35781e-09
-7.82113e-06
1.27941e-05
2.95027e-09
-1.56507e-05
1.93281e-05
2.0169e-11
-2.50721e-05
2.3949e-05
-2.11855e-10
-3.54537e-05
2.67686e-05
1.37669e-10
-4.62075e-05
2.79332e-05
1.81797e-10
-5.67625e-05
2.75553e-05
2.19335e-10
-6.65591e-05
2.57277e-05
3.11156e-10
-7.50753e-05
2.2597e-05
4.82743e-10
1.84795e-05
4.15493e-10
-8.19027e-05
-2.77601e-06
7.29798e-06
-4.04471e-09
-9.28518e-06
1.92998e-05
3.42357e-09
-1.83543e-05
2.83976e-05
-3.49785e-10
-2.91374e-05
3.47329e-05
-7.81615e-10
-4.09321e-05
3.85637e-05
-4.34864e-10
-5.30961e-05
4.00975e-05
-4.03841e-10
-6.49922e-05
3.94518e-05
-3.47726e-10
-7.59627e-05
3.66984e-05
-1.71881e-10
-8.53466e-05
3.19805e-05
3.44296e-10
2.5702e-05
5.86625e-10
-9.25697e-05
-3.02266e-06
1.0325e-05
-4.36277e-09
-1.00624e-05
2.63358e-05
3.75827e-09
-1.98076e-05
3.81433e-05
-4.55273e-10
-3.13368e-05
4.6263e-05
-9.89671e-10
-4.39101e-05
5.11377e-05
-6.51235e-10
-5.68605e-05
5.30486e-05
-6.39665e-10
-6.9512e-05
5.21039e-05
-6.18731e-10
-8.11238e-05
4.83107e-05
-4.80109e-10
-9.08724e-05
4.17286e-05
5.55101e-10
3.27413e-05
1.54592e-09
-9.79134e-05
-3.03806e-06
1.33674e-05
-4.34881e-09
-1.01292e-05
3.34232e-05
3.83038e-09
-1.99448e-05
4.79593e-05
-4.84247e-10
-3.15498e-05
5.78691e-05
-1.08027e-09
-4.42031e-05
6.37917e-05
-7.97159e-10
-5.72447e-05
6.6091e-05
-8.2757e-10
-6.9997e-05
6.48571e-05
-9.21526e-10
-8.16727e-05
5.99876e-05
-1.12072e-09
-9.12858e-05
5.1341e-05
7.15836e-10
3.90178e-05
3.84704e-09
-9.75661e-05
-2.83192e-06
1.62033e-05
-4.00281e-09
-9.50222e-06
4.00898e-05
3.65797e-09
-1.8771e-05
5.72286e-05
-4.42054e-10
-2.97407e-05
6.88398e-05
-1.05495e-09
-4.16929e-05
7.57447e-05
-8.49681e-10
-5.39967e-05
7.83958e-05
-8.70426e-10
-6.6013e-05
7.68744e-05
-9.8779e-10
-7.69755e-05
7.09519e-05
-1.78086e-09
-8.58137e-05
6.01771e-05
2.01961e-09
4.38486e-05
1.34606e-08
-9.0658e-05
-2.43196e-06
1.86386e-05
-3.34659e-09
-8.25833e-06
4.59129e-05
3.30369e-09
-1.64041e-05
6.53747e-05
-3.04648e-10
-2.60341e-05
7.84706e-05
-8.95341e-10
-3.64472e-05
8.61587e-05
-8.35957e-10
-4.70239e-05
8.89734e-05
-9.47681e-10
-5.71622e-05
8.70141e-05
-1.31994e-09
-6.6169e-05
7.99632e-05
-4.51972e-09
-7.30952e-05
6.71046e-05
-1.22652e-09
4.62147e-05
3.021e-08
-7.54915e-05
-1.89303e-06
-2.44745e-09
2.05341e-05
-6.56055e-06
2.85448e-09
5.05775e-05
-1.31315e-05
-3.50546e-11
7.19456e-05
-2.08296e-05
-5.09716e-10
8.61693e-05
-2.89244e-05
-5.77877e-10
9.4254e-05
-3.67074e-05
-9.31541e-10
9.67573e-05
-4.3463e-05
-2.05937e-09
9.37718e-05
-4.83593e-05
-1.16695e-08
8.48711e-05
-5.03367e-05
-2.68565e-08
6.91088e-05
8.23499e-09
-4.81645e-05
4.40343e-05
1.09464e-07
-1.09374e-07
1.26199e-11
-5.86636e-07
6.97746e-07
1.27014e-11
-2.05028e-06
1.46609e-06
1.31871e-11
-4.04443e-06
1.99729e-06
1.30653e-11
-6.35045e-06
2.30954e-06
1.23476e-11
-8.78942e-06
2.44265e-06
1.1447e-11
-1.12142e-05
2.42843e-06
1.03032e-11
-1.3497e-05
2.28629e-06
9.29202e-12
-1.5526e-05
2.03226e-06
8.20423e-12
1.69292e-06
7.17487e-12
-1.72163e-05
-7.2472e-07
6.13989e-07
1.38407e-11
-3.17525e-06
3.14863e-06
1.43529e-11
-7.11907e-06
5.40843e-06
1.43551e-11
-1.2156e-05
7.03191e-06
1.40726e-11
-1.78727e-05
8.02366e-06
1.33755e-11
-2.38871e-05
8.45409e-06
1.24014e-11
-2.98529e-05
8.39128e-06
1.12584e-11
-3.54572e-05
7.8879e-06
1.03133e-11
-4.04295e-05
7.00224e-06
9.11307e-12
5.83274e-06
7.85987e-12
-4.45714e-05
-1.60545e-06
2.21708e-06
1.37622e-11
-5.73545e-06
7.28074e-06
1.46115e-11
-1.18271e-05
1.15002e-05
1.45919e-11
-1.93225e-05
1.45272e-05
1.40869e-11
-2.76854e-05
1.63867e-05
1.34186e-11
-3.64107e-05
1.71794e-05
1.24914e-11
-4.50201e-05
1.70008e-05
1.15854e-11
-5.30645e-05
1.59325e-05
1.04677e-11
-6.01455e-05
1.40835e-05
9.12411e-12
1.16544e-05
7.7736e-12
-6.5967e-05
-2.30485e-06
4.51856e-06
1.42674e-11
-7.82005e-06
1.27989e-05
1.48936e-11
-1.56496e-05
1.93297e-05
1.47587e-11
-2.50717e-05
2.39491e-05
1.41922e-11
-3.54534e-05
2.67686e-05
1.34427e-11
-4.62071e-05
2.79333e-05
1.23187e-11
-5.6762e-05
2.75559e-05
1.16527e-11
-6.65585e-05
2.57293e-05
1.04249e-11
-7.50752e-05
2.26007e-05
8.8766e-12
1.84831e-05
7.354e-12
-8.19035e-05
-2.78376e-06
7.29826e-06
1.47574e-11
-9.28387e-06
1.93024e-05
1.5115e-11
-1.83528e-05
2.83983e-05
1.46302e-11
-2.91369e-05
3.47324e-05
1.381e-11
-4.09318e-05
3.8563e-05
1.31755e-11
-5.30958e-05
4.00968e-05
1.24139e-11
-6.49916e-05
3.94514e-05
1.09462e-11
-7.59617e-05
3.66993e-05
9.78546e-12
-8.53464e-05
3.19857e-05
8.51282e-12
2.57087e-05
6.72909e-12
-9.25714e-05
-3.03115e-06
1.0325e-05
1.46314e-11
-1.00611e-05
2.63361e-05
1.48806e-11
-1.9806e-05
3.81428e-05
1.43437e-11
-3.13365e-05
4.62619e-05
1.35867e-11
-4.39102e-05
5.11361e-05
1.23052e-11
-5.68608e-05
5.30468e-05
1.15316e-11
-6.9512e-05
5.21019e-05
1.04839e-11
-8.11228e-05
4.83096e-05
9.06544e-12
-9.08721e-05
4.17355e-05
7.40015e-12
3.2755e-05
6.07463e-12
-9.79169e-05
-3.0466e-06
1.33673e-05
1.40726e-11
-1.0128e-05
3.34212e-05
1.43127e-11
-1.99435e-05
4.79578e-05
1.33055e-11
-3.15501e-05
5.78674e-05
1.23078e-11
-4.42042e-05
6.37893e-05
1.16659e-11
-5.72463e-05
6.60881e-05
1.06491e-11
-6.99984e-05
6.48532e-05
9.38903e-12
-8.16721e-05
5.99821e-05
7.75889e-12
-9.12843e-05
5.13484e-05
6.34552e-12
3.90482e-05
5.26166e-12
-9.75736e-05
-2.83984e-06
1.62031e-05
1.26614e-11
-9.5011e-06
4.00861e-05
1.28162e-11
-1.87701e-05
5.72264e-05
1.20168e-11
-2.97416e-05
6.88378e-05
1.11859e-11
-4.16951e-05
7.57419e-05
1.02717e-11
-5.4e-05
7.83921e-05
9.21619e-12
-6.60165e-05
7.68686e-05
8.25229e-12
-7.69748e-05
7.09386e-05
6.86782e-12
-8.58014e-05
6.01771e-05
5.4969e-12
4.39264e-05
4.40181e-12
-9.06662e-05
-2.43863e-06
1.86384e-05
1.1012e-11
-8.25732e-06
4.59081e-05
1.11795e-11
-1.64036e-05
6.53723e-05
1.05182e-11
-2.60358e-05
7.84691e-05
9.71103e-12
-3.64515e-05
8.61568e-05
8.66196e-12
-4.70315e-05
8.89712e-05
7.83999e-12
-5.71752e-05
8.70109e-05
6.87931e-12
-6.61864e-05
7.99454e-05
5.7051e-12
-7.30718e-05
6.70612e-05
4.55378e-12
4.6326e-05
3.89607e-12
-7.54412e-05
-1.89793e-06
8.99951e-12
2.05338e-05
-6.55928e-06
9.19616e-12
5.05723e-05
-1.31304e-05
8.74905e-12
7.19434e-05
-2.08306e-05
8.09994e-12
8.61688e-05
-2.89289e-05
7.28143e-12
9.42545e-05
-3.67185e-05
6.41685e-12
9.67599e-05
-4.34902e-05
5.48635e-12
9.37805e-05
-4.84419e-05
4.71609e-12
8.48854e-05
-5.04675e-05
3.98537e-12
6.90601e-05
3.79668e-12
-4.79503e-05
4.3817e-05
1.09466e-07
-1.09369e-07
-8.42747e-11
-5.86631e-07
6.97752e-07
-1.64285e-09
-2.05027e-06
1.4661e-06
-2.4481e-09
-4.04443e-06
1.9973e-06
-3.12766e-09
-6.35044e-06
2.30954e-06
-3.52124e-09
-8.78941e-06
2.44266e-06
-3.67521e-09
-1.12142e-05
2.42844e-06
-3.67187e-09
-1.34969e-05
2.28629e-06
-3.51278e-09
-1.5526e-05
2.03227e-06
-3.17447e-09
1.69292e-06
-2.63742e-09
-1.72163e-05
-7.24714e-07
6.13994e-07
1.36258e-09
-3.17524e-06
3.14863e-06
-3.46174e-10
-7.11904e-06
5.40844e-06
1.48183e-09
-1.21559e-05
7.03192e-06
2.28132e-09
-1.78727e-05
8.02366e-06
2.66885e-09
-2.3887e-05
8.4541e-06
2.91275e-09
-2.98528e-05
8.39129e-06
2.91319e-09
-3.54571e-05
7.8879e-06
2.7058e-09
-4.04294e-05
7.00224e-06
2.37362e-09
5.83274e-06
2.04785e-09
-4.45713e-05
-1.60544e-06
2.21709e-06
2.36713e-09
-5.73543e-06
7.28075e-06
-2.11013e-09
-1.18271e-05
1.15002e-05
-8.74516e-11
-1.93224e-05
1.45272e-05
8.99792e-11
-2.76854e-05
1.63867e-05
-1.16017e-10
-3.64106e-05
1.71794e-05
-1.12406e-10
-4.502e-05
1.70008e-05
-1.22996e-10
-5.30644e-05
1.59325e-05
-1.73634e-10
-6.01454e-05
1.40835e-05
-2.30065e-10
1.16544e-05
-1.34421e-10
-6.59669e-05
-2.30484e-06
4.51856e-06
3.37966e-09
-7.82003e-06
1.27989e-05
-2.92803e-09
-1.56495e-05
1.93297e-05
1.18805e-12
-2.50716e-05
2.39491e-05
2.32216e-10
-3.54533e-05
2.67686e-05
-1.18428e-10
-4.6207e-05
2.79333e-05
-1.6382e-10
-5.67619e-05
2.75559e-05
-2.03093e-10
-6.65584e-05
2.57293e-05
-2.96567e-10
-7.50751e-05
2.26007e-05
-4.69999e-10
1.84831e-05
-4.04761e-10
-8.19034e-05
-2.78375e-06
7.29825e-06
4.06641e-09
-9.28384e-06
1.93024e-05
-3.40141e-09
-1.83527e-05
2.83982e-05
3.71152e-10
-2.91368e-05
3.47324e-05
8.01863e-10
-4.09317e-05
3.8563e-05
4.53714e-10
-5.30957e-05
4.00968e-05
4.21035e-10
-6.49915e-05
3.94514e-05
3.63779e-10
-7.59616e-05
3.66992e-05
1.85978e-10
-8.53463e-05
3.19857e-05
-3.32474e-10
2.57086e-05
-5.76717e-10
-9.25713e-05
-3.03114e-06
1.0325e-05
4.38407e-09
-1.0061e-05
2.6336e-05
-3.73667e-09
-1.9806e-05
3.81427e-05
4.75828e-10
-3.13364e-05
4.62618e-05
1.00894e-09
-4.39101e-05
5.1136e-05
6.69514e-10
-5.68607e-05
5.30468e-05
6.56236e-10
-6.95119e-05
5.21019e-05
6.33617e-10
-8.11227e-05
4.83096e-05
4.93081e-10
-9.08719e-05
4.17354e-05
-5.44197e-10
3.2755e-05
-1.53719e-09
-9.79168e-05
-3.04659e-06
1.33673e-05
4.36882e-09
-1.01279e-05
3.34212e-05
-3.81022e-09
-1.99435e-05
4.79578e-05
5.03623e-10
-3.15501e-05
5.78674e-05
1.09849e-09
-4.42041e-05
6.37893e-05
8.1373e-10
-5.72462e-05
6.6088e-05
8.42569e-10
-6.99983e-05
6.48531e-05
9.34873e-10
-8.1672e-05
5.99821e-05
1.13226e-09
-9.12842e-05
5.13484e-05
-7.06426e-10
3.90481e-05
-3.83966e-09
-9.75735e-05
-2.83983e-06
1.62031e-05
4.02094e-09
-9.50108e-06
4.00861e-05
-3.6396e-09
-1.87701e-05
5.72264e-05
4.59435e-10
-2.97416e-05
6.88378e-05
1.0711e-09
-4.16951e-05
7.57419e-05
8.64477e-10
-5.4e-05
7.8392e-05
8.83674e-10
-6.60164e-05
7.68686e-05
9.99169e-10
-7.69747e-05
7.09386e-05
1.79042e-09
-8.58014e-05
6.0177e-05
-2.01187e-09
4.39264e-05
-1.34545e-08
-9.06661e-05
-2.43863e-06
1.86383e-05
3.36208e-09
-8.25731e-06
4.59081e-05
-3.2879e-09
-1.64035e-05
6.53723e-05
3.19563e-10
-2.60357e-05
7.84691e-05
9.09203e-10
-3.64515e-05
8.61568e-05
8.48726e-10
-4.70315e-05
8.89711e-05
9.58945e-10
-5.71751e-05
8.70109e-05
1.32958e-09
-6.61864e-05
7.99453e-05
4.52767e-09
-7.30718e-05
6.70612e-05
1.23296e-09
4.6326e-05
-3.0205e-08
-7.54412e-05
-1.89792e-06
2.4603e-09
2.05338e-05
-6.55927e-06
-2.8413e-09
5.05723e-05
-1.31304e-05
4.75266e-11
7.19434e-05
-2.08305e-05
5.21328e-10
8.61687e-05
-2.89288e-05
5.88549e-10
9.42545e-05
-3.67185e-05
9.41054e-10
9.67599e-05
-4.34902e-05
2.0676e-09
9.37805e-05
-4.84418e-05
1.16763e-08
8.48854e-05
-5.04675e-05
2.68623e-08
6.90601e-05
-8.23007e-09
-4.79503e-05
4.3817e-05
1.07655e-07
-1.0774e-07
-5.86163e-07
6.9218e-07
-2.04959e-06
1.46099e-06
-4.04431e-06
1.99159e-06
-6.35057e-06
2.30273e-06
-8.78954e-06
2.4353e-06
-1.12142e-05
2.42099e-06
-1.34968e-05
2.2791e-06
-1.55257e-05
2.02569e-06
1.68744e-06
-1.72158e-05
-7.19769e-07
6.13386e-07
-3.17009e-06
3.14215e-06
-7.11454e-06
5.40692e-06
-1.21528e-05
7.03218e-06
-1.78713e-05
8.02384e-06
-2.38871e-05
8.45399e-06
-2.9854e-05
8.39081e-06
-3.54591e-05
7.88692e-06
-4.04317e-05
7.00072e-06
5.83136e-06
-4.45736e-05
-1.60027e-06
2.21602e-06
-5.7347e-06
7.27448e-06
-1.18264e-05
1.14985e-05
-1.93216e-05
1.45275e-05
-2.7685e-05
1.63871e-05
-3.64107e-05
1.71796e-05
-4.50205e-05
1.70005e-05
-5.30651e-05
1.59314e-05
-6.01459e-05
1.40813e-05
1.16524e-05
-6.59671e-05
-2.29852e-06
4.51792e-06
-7.82106e-06
1.27941e-05
-1.56506e-05
1.93281e-05
-2.50719e-05
2.3949e-05
-3.54535e-05
2.67686e-05
-4.62072e-05
2.79331e-05
-5.67622e-05
2.75553e-05
-6.65588e-05
2.57277e-05
-7.50749e-05
2.25969e-05
1.84794e-05
-8.19024e-05
-2.77598e-06
7.29796e-06
-9.2851e-06
1.92998e-05
-1.83542e-05
2.83976e-05
-2.91372e-05
3.47328e-05
-4.09319e-05
3.85637e-05
-5.30958e-05
4.00975e-05
-6.49919e-05
3.94517e-05
-7.59624e-05
3.66983e-05
-8.53462e-05
3.19805e-05
2.57019e-05
-9.25693e-05
-3.02262e-06
1.0325e-05
-1.00623e-05
2.63358e-05
-1.98075e-05
3.81432e-05
-3.13366e-05
4.62629e-05
-4.39099e-05
5.11376e-05
-5.68603e-05
5.30485e-05
-6.95117e-05
5.21038e-05
-8.11235e-05
4.83106e-05
-9.08721e-05
4.17285e-05
3.27413e-05
-9.7913e-05
-3.03803e-06
1.33674e-05
-1.01292e-05
3.34231e-05
-1.99447e-05
4.79592e-05
-3.15497e-05
5.7869e-05
-4.42029e-05
6.37916e-05
-5.72444e-05
6.60909e-05
-6.99967e-05
6.48571e-05
-8.16725e-05
5.99875e-05
-9.12855e-05
5.13409e-05
3.90178e-05
-9.75658e-05
-2.8319e-06
1.62033e-05
-9.50216e-06
4.00897e-05
-1.87709e-05
5.72285e-05
-2.97405e-05
6.88397e-05
-4.16927e-05
7.57446e-05
-5.39966e-05
7.83957e-05
-6.60128e-05
7.68743e-05
-7.69753e-05
7.09518e-05
-8.58136e-05
6.01771e-05
4.38485e-05
-9.06578e-05
-2.43194e-06
1.86386e-05
-8.25829e-06
4.59128e-05
-1.6404e-05
6.53746e-05
-2.6034e-05
7.84705e-05
-3.64471e-05
8.61586e-05
-4.70238e-05
8.89733e-05
-5.71621e-05
8.7014e-05
-6.61689e-05
7.99631e-05
-7.30951e-05
6.71046e-05
4.62147e-05
-7.54915e-05
-1.89301e-06
2.05341e-05
-6.56052e-06
5.05774e-05
-1.31314e-05
7.19455e-05
-2.08296e-05
8.61692e-05
-2.89243e-05
9.4254e-05
-3.67073e-05
9.67572e-05
-4.3463e-05
9.37717e-05
-4.83593e-05
8.48711e-05
-5.03367e-05
6.91088e-05
-4.81645e-05
4.40343e-05
-1.85296e-05
1.31175e-06
1.97562e-09
-1.94881e-05
9.57143e-07
1.36822e-09
-2.01512e-05
6.62259e-07
8.94368e-10
-2.05919e-05
4.40127e-07
5.55002e-10
-2.08788e-05
2.86548e-07
3.32423e-10
-2.10685e-05
1.89482e-07
1.99186e-10
-2.12043e-05
1.35749e-07
1.29541e-10
-2.13188e-05
1.14336e-07
1.04442e-10
-2.1436e-05
1.17135e-07
1.10596e-10
-2.15744e-05
1.38201e-07
1.40406e-10
-2.17469e-05
1.72302e-07
1.88639e-10
-2.19602e-05
2.13096e-07
2.49761e-10
-2.22117e-05
2.51138e-07
3.15791e-10
-2.24839e-05
2.71912e-07
3.7298e-10
-2.27388e-05
2.54422e-07
3.99616e-10
-2.29106e-05
1.71499e-07
3.65779e-10
-2.29006e-05
-1.0269e-08
2.12584e-10
-2.2588e-05
-3.12485e-07
-1.03816e-10
-2.18372e-05
-7.50141e-07
-6.57522e-10
-1.29899e-06
-1.47494e-09
-2.05367e-05
-4.78038e-05
4.54355e-06
-1.8e-09
-5.01789e-05
3.33371e-06
-1.49697e-09
-5.18434e-05
2.32798e-06
-1.17494e-09
-5.29696e-05
1.56716e-06
-8.87573e-10
-5.37184e-05
1.03607e-06
-6.53083e-10
-5.42229e-05
6.94464e-07
-4.79897e-10
-5.45851e-05
4.98319e-07
-3.66963e-10
-5.48807e-05
4.10163e-07
-3.06135e-10
-5.51646e-05
4.01315e-07
-2.8709e-10
-5.54757e-05
4.4961e-07
-2.9828e-10
-5.58379e-05
5.34901e-07
-3.26454e-10
-5.6258e-05
6.33499e-07
-3.54709e-10
-5.67187e-05
7.12221e-07
-3.60187e-10
-5.71693e-05
7.22859e-07
-3.12505e-10
-5.75133e-05
5.98598e-07
-1.75092e-10
-5.75971e-05
2.55167e-07
8.5189e-11
-5.72086e-05
-3.99239e-07
5.04249e-10
-5.60828e-05
-1.43935e-06
1.06391e-09
-5.3947e-05
-2.88772e-06
1.73946e-09
-4.66536e-06
2.36657e-09
-5.0583e-05
-7.04185e-05
8.99487e-06
-2.25596e-10
-7.36207e-05
6.53631e-06
-3.87856e-10
-7.58201e-05
4.52778e-06
-4.19603e-10
-7.72834e-05
3.0309e-06
-3.95066e-10
-7.8244e-05
1.997e-06
-3.34545e-10
-7.8884e-05
1.33475e-06
-2.64514e-10
-7.93372e-05
9.51679e-07
-2.02116e-10
-7.96987e-05
7.71809e-07
-1.53249e-10
-8.00351e-05
7.37904e-07
-1.18095e-10
-8.03915e-05
8.06006e-07
-9.39712e-11
-8.0793e-05
9.36528e-07
-7.64664e-11
-8.12433e-05
1.08387e-06
-6.03245e-11
-8.17166e-05
1.18554e-06
-3.92837e-11
-8.21457e-05
1.15199e-06
-5.38143e-12
-8.24069e-05
8.59682e-07
5.09535e-11
-8.23039e-05
1.52112e-07
1.33011e-10
-8.15607e-05
-1.14271e-06
2.33572e-10
-7.98285e-05
-3.17186e-06
3.6013e-10
-7.67307e-05
-5.98604e-06
4.85775e-10
-9.44444e-06
4.04527e-10
-7.1952e-05
-8.6899e-05
1.39915e-05
-3.40971e-10
-9.03077e-05
9.94557e-06
-5.53967e-10
-9.25261e-05
6.74674e-06
-5.44565e-10
-9.39294e-05
4.43471e-06
-4.81631e-10
-9.481e-05
2.87793e-06
-3.81709e-10
-9.5374e-05
1.89899e-06
-2.81453e-10
-9.57596e-05
1.33753e-06
-1.99222e-10
-9.60581e-05
1.0704e-06
-1.37557e-10
-9.63292e-05
1.00917e-06
-9.38896e-11
-9.66117e-05
1.08847e-06
-6.42813e-11
-9.69264e-05
1.25135e-06
-4.45923e-11
-9.7276e-05
1.43352e-06
-3.11008e-11
-9.76377e-05
1.54723e-06
-2.01991e-11
-9.79512e-05
1.46546e-06
-6.20493e-12
-9.81006e-05
1.00911e-06
2.38115e-11
-9.78916e-05
-5.70188e-08
8.48589e-11
-9.703e-05
-2.00443e-06
1.50007e-10
-9.51112e-05
-5.09098e-06
2.69538e-10
-9.16484e-05
-9.44927e-06
4.88144e-10
-1.49178e-05
4.19494e-10
-8.61755e-05
-9.74207e-05
1.88435e-05
-9.45581e-10
-0.000100381
1.29066e-05
-1.05011e-09
-0.000102085
8.45176e-06
-8.36589e-10
-0.000103034
5.38481e-06
-6.50014e-10
-0.000103559
3.40322e-06
-4.55072e-10
-0.000103857
2.19688e-06
-2.97456e-10
-0.000104039
1.52017e-06
-1.89227e-10
-0.00010417
1.20083e-06
-1.19812e-10
-0.000104284
1.12368e-06
-7.83223e-11
-0.000104404
1.20882e-06
-5.59679e-11
-0.000104543
1.39023e-06
-4.67903e-11
-0.000104705
1.59525e-06
-4.68901e-11
-0.000104881
1.72376e-06
-5.29743e-11
-0.000105042
1.62639e-06
-5.91335e-11
-0.000105116
1.08279e-06
-4.7065e-11
-0.000104958
-2.14814e-07
6.08133e-12
-0.000104308
-2.65497e-06
9.38605e-11
-0.000102737
-6.66172e-06
2.7952e-10
-9.96297e-05
-1.25574e-05
8.51218e-10
-2.02897e-05
1.17341e-09
-9.4259e-05
-0.000101849
2.27808e-05
-2.07082e-09
-0.000103645
1.47045e-05
-1.72616e-09
-0.000104309
9.11692e-06
-1.05381e-09
-0.000104464
5.54016e-06
-7.02294e-10
-0.000104426
3.36584e-06
-4.11236e-10
-0.000104334
2.10513e-06
-2.15343e-10
-0.000104237
1.42357e-06
-1.06447e-10
-0.000104147
1.11093e-06
-4.92801e-11
-0.000104062
1.03904e-06
-2.16115e-11
-0.00010398
1.12628e-06
-1.11456e-11
-0.0001039
1.31018e-06
-1.1728e-11
-0.000103829
1.52418e-06
-2.10133e-11
-0.00010378
1.67465e-06
-3.90685e-11
-0.000103768
1.6148e-06
-6.40369e-11
-0.000103798
1.11298e-06
-7.15363e-11
-0.000103828
-1.84974e-07
-2.2809e-11
-0.000103703
-2.77984e-06
1.15548e-11
-0.000103044
-7.32062e-06
1.80207e-10
-0.000101113
-1.44897e-05
1.44596e-09
-2.46459e-05
2.95297e-09
-9.67602e-05
-9.96232e-05
2.48435e-05
-5.57116e-09
-9.94711e-05
1.45559e-05
-3.58969e-09
-9.8646e-05
8.29348e-06
-1.61493e-09
-9.78026e-05
4.69758e-06
-8.39937e-10
-9.71331e-05
2.6967e-06
-3.55415e-10
-9.66436e-05
1.61571e-06
-1.0798e-10
-9.6283e-05
1.06294e-06
-1.21897e-11
-9.59946e-05
8.22536e-07
1.88683e-11
-9.57326e-05
7.77023e-07
2.26785e-11
-9.54658e-05
8.59434e-07
1.4247e-11
-9.51792e-05
1.0236e-06
-1.3949e-12
-9.48775e-05
1.22257e-06
-2.40875e-11
-9.4591e-05
1.38812e-06
-5.55791e-11
-9.43813e-05
1.40525e-06
-9.69236e-11
-9.43435e-05
1.07527e-06
-1.14919e-10
-9.45828e-05
5.43988e-08
-1.08391e-11
-9.51497e-05
-2.21307e-06
1.24831e-10
-9.58625e-05
-6.6083e-06
4.73774e-10
-9.59864e-05
-1.43693e-05
3.44199e-09
-2.68689e-05
8.1158e-09
-9.37715e-05
-8.94588e-05
2.36539e-05
-9.51425e-09
-8.66016e-05
1.17025e-05
-3.7502e-09
-8.41164e-05
5.809e-06
-7.18736e-10
-8.23681e-05
2.94955e-06
-2.86647e-10
-8.12276e-05
1.55614e-06
3.03808e-11
-8.04913e-05
8.7929e-07
1.44132e-10
-7.99904e-05
5.61865e-07
1.34823e-10
-7.96047e-05
4.36771e-07
1.09251e-10
-7.92534e-05
4.25581e-07
8.94896e-11
-7.88838e-05
4.89754e-07
7.58048e-11
-7.84668e-05
6.06553e-07
6.45423e-11
-7.79988e-05
7.54573e-07
5.00371e-11
-7.75116e-05
9.00881e-07
2.38404e-11
-7.70899e-05
9.83536e-07
-3.74749e-11
-7.68952e-05
8.80707e-07
-1.35229e-10
-7.71888e-05
3.48052e-07
-9.02533e-11
-7.82942e-05
-1.10771e-06
7.25928e-11
-8.04796e-05
-4.42247e-06
-4.13876e-10
-8.34242e-05
-1.14279e-05
3.0882e-09
-2.54395e-05
1.30699e-08
-8.48666e-05
-6.85947e-05
1.6769e-05
-1.19655e-08
-6.28349e-05
5.93745e-06
5.23955e-09
-5.93161e-05
2.28444e-06
5.75725e-09
-5.73155e-05
9.46564e-07
2.38771e-09
-5.61865e-05
4.25957e-07
1.20762e-09
-5.55259e-05
2.18022e-07
7.16821e-10
-5.51012e-05
1.36657e-07
4.3261e-10
-5.47774e-05
1.12737e-07
3.13545e-10
-5.44729e-05
1.20789e-07
2.93844e-10
-5.41349e-05
1.51389e-07
3.28926e-10
-5.37296e-05
2.00814e-07
3.96399e-10
-5.32419e-05
2.66403e-07
4.77488e-10
-5.26846e-05
3.43022e-07
5.39429e-10
-5.21191e-05
4.17532e-07
4.96197e-10
-5.16949e-05
4.56323e-07
2.29633e-10
-5.1725e-05
3.78393e-07
-2.12515e-10
-5.27322e-05
-9.89798e-08
-1.581e-09
-5.56339e-05
-1.51371e-06
-7.03855e-09
-6.14119e-05
-5.64064e-06
-9.27284e-09
-1.77665e-05
1.4529e-08
-6.90994e-05
-3.13303e-05
-6.51983e-08
-2.53823e-05
-1.05308e-08
-2.30973e-05
-6.16487e-10
-2.2149e-05
-1.70445e-09
-2.17219e-05
-1.09382e-09
-2.15034e-05
-4.94611e-10
-2.13665e-05
-2.69693e-10
-2.12536e-05
-1.84189e-10
-2.11326e-05
-1.57461e-10
-2.09811e-05
-1.69969e-10
-2.07801e-05
-2.09715e-10
-2.05134e-05
-2.65173e-10
-2.017e-05
-3.19829e-10
-1.97522e-05
-3.44043e-10
-1.92956e-05
-2.26794e-10
-1.89176e-05
3.33342e-10
-1.90173e-05
8.05351e-10
-2.05288e-05
-2.21941e-09
-2.61745e-05
4.97732e-09
8.05183e-08
-4.40215e-05
-1.853e-05
1.31567e-06
6.05876e-12
-1.94884e-05
9.59768e-07
4.85476e-12
-2.01515e-05
6.63934e-07
3.93466e-12
-2.0592e-05
4.41137e-07
3.29717e-12
-2.08789e-05
2.87135e-07
2.48674e-12
-2.10685e-05
1.89831e-07
1.86695e-12
-2.12043e-05
1.35986e-07
1.19979e-12
-2.13188e-05
1.14548e-07
5.23177e-13
-2.14361e-05
1.17381e-07
-2.30708e-14
-2.15744e-05
1.38522e-07
-4.82857e-13
-2.1747e-05
1.72725e-07
-1.04051e-12
-2.19604e-05
2.13637e-07
-1.73622e-12
-2.22118e-05
2.51791e-07
-2.36772e-12
-2.24841e-05
2.7264e-07
-2.87377e-12
-2.27388e-05
2.55142e-07
-3.54174e-12
-2.29105e-05
1.72027e-07
-4.23653e-12
-2.29003e-05
-9.92967e-09
-4.9117e-12
-2.25876e-05
-3.12864e-07
-5.85798e-12
-2.18368e-05
-7.51447e-07
-6.93257e-12
-1.30182e-06
-7.78632e-12
-2.05364e-05
-4.78012e-05
4.54369e-06
6.51327e-12
-5.01763e-05
3.33332e-06
5.30147e-12
-5.1841e-05
2.32753e-06
4.24721e-12
-5.29676e-05
1.56678e-06
3.61803e-12
-5.37169e-05
1.0358e-06
2.81434e-12
-5.42218e-05
6.9429e-07
1.9988e-12
-5.45844e-05
4.98214e-07
1.22196e-12
-5.48803e-05
4.10093e-07
6.21613e-13
-5.51644e-05
4.01246e-07
3.18098e-14
-5.54757e-05
4.49511e-07
-5.37858e-13
-5.58381e-05
5.34742e-07
-1.23072e-12
-5.6258e-05
6.33249e-07
-1.87583e-12
-5.67185e-05
7.11861e-07
-2.5126e-12
-5.71685e-05
7.22396e-07
-3.1811e-12
-5.75116e-05
5.981e-07
-3.90093e-12
-5.75943e-05
2.54796e-07
-4.60413e-12
-5.72045e-05
-3.99208e-07
-5.47718e-12
-5.60777e-05
-1.43861e-06
-6.53825e-12
-5.39414e-05
-2.88598e-06
-7.58157e-12
-4.66323e-06
-8.41626e-12
-5.05777e-05
-7.04174e-05
8.9939e-06
6.43123e-12
-7.3619e-05
6.53451e-06
5.16467e-12
-7.58181e-05
4.52624e-06
3.99348e-12
-7.72815e-05
3.02979e-06
3.37356e-12
-7.82424e-05
1.99629e-06
2.73808e-12
-7.88827e-05
1.33435e-06
1.84225e-12
-7.93362e-05
9.51478e-07
1.08947e-12
-7.96979e-05
7.71704e-07
5.6468e-13
-8.00346e-05
7.3782e-07
-1.51903e-13
-8.03911e-05
8.05879e-07
-7.41207e-13
-8.07927e-05
9.36298e-07
-1.19245e-12
-8.1243e-05
1.08348e-06
-1.72e-12
-8.17161e-05
1.18495e-06
-2.39923e-12
-8.2145e-05
1.15121e-06
-3.15193e-12
-8.24056e-05
8.5879e-07
-3.88166e-12
-8.2302e-05
1.51381e-07
-4.58437e-12
-8.1558e-05
-1.14298e-06
-5.411e-12
-7.98253e-05
-3.17093e-06
-6.41255e-12
-7.67276e-05
-5.9832e-06
-7.46306e-12
-9.44087e-06
-8.38059e-12
-7.19496e-05
-8.68983e-05
1.39883e-05
6.0125e-12
-9.03058e-05
9.94144e-06
4.76845e-12
-9.25238e-05
6.74371e-06
3.70768e-12
-9.39272e-05
4.43271e-06
2.93825e-12
-9.48081e-05
2.87676e-06
2.15384e-12
-9.53724e-05
1.8984e-06
1.41902e-12
-9.57584e-05
1.33727e-06
9.35476e-13
-9.60571e-05
1.0703e-06
3.46987e-13
-9.63285e-05
1.00911e-06
-2.59356e-13
-9.66111e-05
1.08838e-06
-7.94307e-13
-9.69259e-05
1.25114e-06
-1.29317e-12
-9.72756e-05
1.43312e-06
-1.9519e-12
-9.76373e-05
1.54658e-06
-2.63043e-12
-9.79506e-05
1.46451e-06
-3.27925e-12
-9.80997e-05
1.00795e-06
-3.87228e-12
-9.78903e-05
-5.79698e-08
-4.4895e-12
-9.7028e-05
-2.00507e-06
-5.31621e-12
-9.51086e-05
-5.09003e-06
-6.35231e-12
-9.16463e-05
-9.445e-06
-7.36286e-12
-1.49122e-05
-8.26903e-12
-8.61746e-05
-9.74194e-05
1.88353e-05
5.33007e-12
-0.000100377
1.28985e-05
4.43929e-12
-0.000102082
8.44691e-06
3.58305e-12
-0.000103031
5.38199e-06
2.55749e-12
-0.000103557
3.40176e-06
1.7353e-12
-0.000103855
2.19623e-06
1.28178e-12
-0.000104038
1.51994e-06
5.76389e-13
-0.000104169
1.20078e-06
-2.18325e-13
-0.000104283
1.12367e-06
-7.01468e-13
-0.000104404
1.20876e-06
-1.05159e-12
-0.000104543
1.39004e-06
-1.49126e-12
-0.000104704
1.59485e-06
-2.05069e-12
-0.000104881
1.72305e-06
-2.67736e-12
-0.000105042
1.62529e-06
-3.30988e-12
-0.000105115
1.08135e-06
-3.85637e-12
-0.000104957
-2.16158e-07
-4.49527e-12
-0.000104306
-2.65623e-06
-5.38643e-12
-0.000102734
-6.66109e-06
-6.27043e-12
-9.96276e-05
-1.25509e-05
-7.04724e-12
-2.02794e-05
-8.12873e-12
-9.42592e-05
-0.000101846
2.27619e-05
4.97362e-12
-0.000103639
1.46904e-05
3.63286e-12
-0.000104304
9.11077e-06
2.82525e-12
-0.00010446
5.53732e-06
2.25881e-12
-0.000104423
3.36469e-06
1.65311e-12
-0.000104332
2.10482e-06
1.14896e-12
-0.000104236
1.42357e-06
5.23175e-13
-0.000104146
1.11102e-06
-1.99945e-13
-0.000104062
1.03911e-06
-7.95385e-13
-0.000103979
1.12628e-06
-1.20223e-12
-0.000103899
1.31005e-06
-1.58981e-12
-0.000103828
1.52383e-06
-2.12366e-12
-0.000103779
1.67397e-06
-2.75259e-12
-0.000103768
1.61364e-06
-3.25335e-12
-0.000103798
1.1113e-06
-3.64935e-12
-0.000103827
-1.86607e-07
-4.20781e-12
-0.000103701
-2.78217e-06
-5.00073e-12
-0.000103041
-7.32128e-06
-5.78519e-12
-0.000101111
-1.44799e-05
-6.59976e-12
-2.46245e-05
-7.65093e-12
-9.67624e-05
-9.9616e-05
2.47988e-05
4.20591e-12
-9.94614e-05
1.45322e-05
3.00945e-12
-9.86396e-05
8.28739e-06
2.49636e-12
-9.77991e-05
4.69597e-06
2.01206e-12
-9.71313e-05
2.69652e-06
1.46361e-12
-9.66426e-05
1.61599e-06
9.40792e-13
-9.62823e-05
1.06324e-06
3.61096e-13
-9.5994e-05
8.22754e-07
-1.63392e-13
-9.5732e-05
7.77148e-07
-5.67629e-13
-9.54652e-05
8.59456e-07
-1.00198e-12
-9.51786e-05
1.02349e-06
-1.60655e-12
-9.4877e-05
1.22226e-06
-2.24686e-12
-9.45906e-05
1.38748e-06
-2.77507e-12
-9.43811e-05
1.40407e-06
-3.18283e-12
-9.43432e-05
1.07328e-06
-3.61131e-12
-9.45824e-05
5.25981e-08
-4.25644e-12
-9.51478e-05
-2.21663e-06
-5.15777e-12
-9.5858e-05
-6.61067e-06
-5.94365e-12
-9.59818e-05
-1.43526e-05
-6.6757e-12
-2.68183e-05
-7.41816e-12
-9.37799e-05
-8.94454e-05
2.35684e-05
3.45763e-12
-8.65921e-05
1.16751e-05
2.53289e-12
-8.41132e-05
5.80779e-06
2.14298e-12
-8.23678e-05
2.95023e-06
1.64285e-12
-8.12279e-05
1.55673e-06
9.41997e-13
-8.04916e-05
8.79791e-07
4.03479e-13
-7.99904e-05
5.6218e-07
7.0798e-14
-7.96045e-05
4.36942e-07
-3.19604e-13
-7.92529e-05
4.25665e-07
-8.16872e-13
-7.88831e-05
4.89776e-07
-1.38463e-12
-7.84661e-05
6.0651e-07
-1.92405e-12
-7.79982e-05
7.54434e-07
-2.43305e-12
-7.75113e-05
9.0057e-07
-2.92831e-12
-7.70901e-05
9.82883e-07
-3.32188e-12
-7.68964e-05
8.79442e-07
-3.67694e-12
-7.71901e-05
3.46227e-07
-4.3758e-12
-7.82969e-05
-1.10983e-06
-5.20751e-12
-8.04811e-05
-4.42687e-06
-5.68744e-12
-8.3421e-05
-1.14096e-05
-6.19721e-12
-2.53457e-05
-6.88684e-12
-8.48806e-05
-6.85784e-05
1.66937e-05
3.13835e-12
-6.28423e-05
5.94425e-06
2.32103e-12
-5.93242e-05
2.29538e-06
1.88648e-12
-5.73213e-05
9.49741e-07
1.54005e-12
-5.61898e-05
4.26482e-07
1.13025e-12
-5.55275e-05
2.18148e-07
5.65981e-13
-5.51016e-05
1.36762e-07
-9.30292e-14
-5.47773e-05
1.12894e-07
-6.58666e-13
-5.44723e-05
1.21039e-07
-1.03014e-12
-5.4134e-05
1.51772e-07
-1.35337e-12
-5.37285e-05
2.01382e-07
-1.78372e-12
-5.32408e-05
2.67223e-07
-2.37521e-12
-5.26838e-05
3.44174e-07
-2.9002e-12
-5.21196e-05
4.19123e-07
-3.12246e-12
-5.16982e-05
4.58319e-07
-3.39491e-12
-5.17307e-05
3.78523e-07
-4.16108e-12
-5.27454e-05
-9.6776e-08
-5.01807e-12
-5.56571e-05
-1.52217e-06
-5.59656e-12
-6.14243e-05
-5.65165e-06
-6.22644e-12
-1.77049e-05
-6.55405e-12
-6.90505e-05
-3.13219e-05
2.66636e-12
-2.53882e-05
2.24868e-12
-2.30934e-05
2.16271e-12
-2.21454e-05
1.98577e-12
-2.172e-05
1.38676e-12
-2.15023e-05
5.34657e-13
-2.13658e-05
-1.88401e-13
-2.12531e-05
-6.34917e-13
-2.11322e-05
-8.85653e-13
-2.09806e-05
-1.28992e-12
-2.07795e-05
-1.89068e-12
-2.05125e-05
-2.496e-12
-2.01686e-05
-2.82503e-12
-1.97499e-05
-2.94806e-12
-1.92918e-05
-3.22803e-12
-1.89129e-05
-3.83699e-12
-1.90089e-05
-4.5644e-12
-2.05332e-05
-5.3331e-12
-2.61799e-05
-6.1449e-12
-6.65326e-12
-4.38043e-05
-1.853e-05
1.31567e-06
-1.96713e-09
-1.94884e-05
9.59768e-07
-1.36114e-09
-2.01514e-05
6.63934e-07
-8.88605e-10
-2.0592e-05
4.41136e-07
-5.50494e-10
-2.08788e-05
2.87135e-07
-3.28887e-10
-2.10684e-05
1.8983e-07
-1.96732e-10
-2.12043e-05
1.35985e-07
-1.28064e-10
-2.13187e-05
1.14548e-07
-1.03731e-10
-2.1436e-05
1.1738e-07
-1.10691e-10
-2.15744e-05
1.3852e-07
-1.41277e-10
-2.17469e-05
1.72724e-07
-1.90234e-10
-2.19603e-05
2.13636e-07
-2.52034e-10
-2.22118e-05
2.5179e-07
-3.18806e-10
-2.2484e-05
2.72639e-07
-3.7694e-10
-2.27388e-05
2.5514e-07
-4.04493e-10
-2.29104e-05
1.72026e-07
-3.71616e-10
-2.29003e-05
-9.93045e-09
-2.19459e-10
-2.25875e-05
-3.12865e-07
9.58008e-11
-2.18367e-05
-7.51448e-07
6.48224e-10
-1.30182e-06
1.46425e-09
-2.05364e-05
-4.78011e-05
4.54369e-06
1.80945e-09
-5.01762e-05
3.33332e-06
1.50473e-09
-5.18409e-05
2.32753e-06
1.18132e-09
-5.29675e-05
1.56677e-06
8.92568e-10
-5.37168e-05
1.0358e-06
6.569e-10
-5.42217e-05
6.94288e-07
4.82681e-10
-5.45843e-05
4.98212e-07
3.6878e-10
-5.48802e-05
4.1009e-07