/*--------------------------------*- C++ -*----------------------------------*\
| =========                 |                                                 |
| \\      /  F ield         | OpenFOAM: The Open Source CFD Toolbox           |
|  \\    /   O peration     | Version:  2.4.0                                 |
|   \\  /    A nd           | Web:      www.OpenFOAM.org                      |
|    \\/     M anipulation  |                                                 |
\*---------------------------------------------------------------------------*/
FoamFile
{
    version     2.0;
    format      ascii;
    class       volVectorField;
    location    "1.4";
    object      U;
}
// * * * * * * * * * * * * * * * * * * * * * * * * * * * * * * * * * * * * * //

dimensions      [0 1 -1 0 0 0 0];

internalField   nonuniform List<vector> 
4800
(
(0.00026424 -0.000267403 6.75465e-08)
(-7.27809e-05 0.000182382 0.000202796)
(-0.00188775 0.000655429 0.000401612)
(-0.00473197 0.00096852 0.000536755)
(-0.00823816 0.00114281 0.000567733)
(-0.0120918 0.00121497 0.000476146)
(-0.0160328 0.00121039 0.000256839)
(-0.0198424 0.00114166 -8.88357e-05)
(-0.023327 0.00101561 -0.000554125)
(-0.0263237 0.000843761 -0.00112568)
(-0.000205319 7.3332e-05 -0.000202209)
(-0.00243545 0.00235902 4.17607e-06)
(-0.00771521 0.00453006 0.000149252)
(-0.0150792 0.00607066 0.000221626)
(-0.0238355 0.00699598 0.000204893)
(-0.0333631 0.00739884 8.43501e-05)
(-0.043078 0.00735972 -0.000145726)
(-0.0524505 0.00693311 -0.000486601)
(-0.0610055 0.00616974 -0.000935717)
(-0.0683514 0.00515269 -0.00148542)
(-0.000751622 0.00199832 -0.000404799)
(-0.00491638 0.00773755 -0.000135095)
(-0.0133527 0.0127406 1.03766e-05)
(-0.0244768 0.0163537 6.30279e-05)
(-0.0373668 0.018576 3.04082e-05)
(-0.0512324 0.0195412 -9.60552e-05)
(-0.0652868 0.0193822 -0.000320056)
(-0.0787816 0.018209 -0.00064417)
(-0.0910234 0.0161544 -0.00106975)
(-0.101426 0.0134475 -0.00159461)
(-0.00117295 0.00519118 -0.000529127)
(-0.00692065 0.0156118 -0.000182556)
(-0.0179556 0.0240906 -1.60836e-05)
(-0.0320769 0.0301478 3.80176e-05)
(-0.0481584 0.0338654 6.66456e-06)
(-0.0652978 0.0354339 -0.000113524)
(-0.0825745 0.0350237 -0.000324784)
(-0.0990773 0.0327826 -0.000631939)
(-0.113921 0.0289236 -0.00104176)
(-0.126307 0.0238576 -0.00155956)
(-0.00145112 0.0093295 -0.000509193)
(-0.00830836 0.0253907 -9.66851e-05)
(-0.0212032 0.0378114 9.168e-05)
(-0.0374564 0.0465358 0.00015606)
(-0.0557825 0.0518396 0.000137035)
(-0.0752059 0.0539997 3.4177e-05)
(-0.0947184 0.0532057 -0.000155529)
(-0.113284 0.0496039 -0.000441677)
(-0.129829 0.043448 -0.000839785)
(-0.143274 0.0353261 -0.00136877)
(-0.00158873 0.0140525 -0.000303381)
(-0.00903201 0.0363978 0.000158012)
(-0.0229379 0.0530856 0.000364024)
(-0.0403583 0.0646311 0.000444683)
(-0.0599174 0.0715857 0.000448355)
(-0.0806069 0.0743374 0.000375175)
(-0.101378 0.0730728 0.000218499)
(-0.121113 0.0678756 -3.9478e-05)
(-0.138562 0.0589492 -0.000428025)
(-0.152248 0.0469712 -0.000993122)
(-0.00159102 0.0189851 0.000106892)
(-0.00908143 0.0478749 0.000598142)
(-0.0230936 0.0689695 0.000814948)
(-0.0406372 0.0834055 0.000916161)
(-0.0603225 0.0920497 0.000952721)
(-0.0811503 0.0954171 0.000923559)
(-0.102084 0.0936691 0.000815775)
(-0.121994 0.086748 0.000599834)
(-0.139534 0.0746473 0.000227307)
(-0.152687 0.0578717 -0.000402957)
(-0.00146652 0.023759 0.000720079)
(-0.00848171 0.0590478 0.00122265)
(-0.0216961 0.0844692 0.00144256)
(-0.0382814 0.101742 0.00156759)
(-0.0568919 0.112047 0.00164721)
(-0.076561 0.116037 0.00167876)
(-0.096303 0.113843 0.00164185)
(-0.115066 0.105197 0.00149328)
(-0.131622 0.0896738 0.00116438)
(-0.143377 0.067017 0.000446996)
(-0.00123304 0.028034 0.00151557)
(-0.00731317 0.0691824 0.00201357)
(-0.0189084 0.098606 0.00222907)
(-0.0335025 0.118484 0.00237962)
(-0.0498104 0.130267 0.00251065)
(-0.0668677 0.134756 0.00261925)
(-0.0837056 0.132097 0.00267833)
(-0.0993647 0.121848 0.00263015)
(-0.113099 0.103098 0.00239553)
(-0.122132 0.0740095 0.00157462)
(-0.000923946 0.0315334 0.00245576)
(-0.00573516 0.0776635 0.00293817)
(-0.0150878 0.110518 0.00314223)
(-0.0268592 0.132536 0.00331703)
(-0.0397915 0.145336 0.00350335)
(-0.0528086 0.149833 0.00370296)
(-0.0647496 0.146235 0.0038913)
(-0.0743866 0.134051 0.00400765)
(-0.0814447 0.112166 0.00402314)
(-0.084858 0.0777081 0.00335397)
(0.000268907 -0.000271683 7.75839e-08)
(-6.60723e-05 0.000176748 1.30201e-06)
(-0.00188422 0.000642111 1.92945e-06)
(-0.00472952 0.000949912 2.45879e-06)
(-0.00823681 0.00112138 2.7648e-06)
(-0.0120913 0.00119221 2.88338e-06)
(-0.016033 0.00118767 2.8791e-06)
(-0.0198434 0.0011202 2.75327e-06)
(-0.0233292 0.000996452 2.48776e-06)
(-0.0263268 0.00082748 2.06735e-06)
(-0.000198475 6.6454e-05 -1.0361e-06)
(-0.00243272 0.00235711 2.94983e-07)
(-0.00772221 0.00451952 -1.12712e-06)
(-0.0150834 0.0060554 -1.74954e-06)
(-0.0238374 0.00697914 -2.05182e-06)
(-0.0333636 0.0073813 -2.24304e-06)
(-0.043077 0.00734237 -2.24516e-06)
(-0.0524485 0.0069169 -2.0859e-06)
(-0.0610035 0.00615544 -1.82963e-06)
(-0.0683501 0.00514038 -1.5785e-06)
(-0.000736661 0.00199327 -1.81732e-06)
(-0.00490579 0.00774373 1.66822e-06)
(-0.013359 0.0127439 9.44429e-08)
(-0.0244786 0.0163572 -4.44121e-08)
(-0.0373666 0.0185812 1.14619e-07)
(-0.051232 0.0195474 1.10203e-07)
(-0.0652858 0.0193887 1.16599e-07)
(-0.0787803 0.0182157 1.53956e-07)
(-0.091023 0.0161612 1.95604e-07)
(-0.101428 0.013453 1.18794e-07)
(-0.00115174 0.00518696 -2.60524e-06)
(-0.00690538 0.0156154 2.30529e-06)
(-0.0179637 0.02409 2.61696e-08)
(-0.0320783 0.0301458 -1.54695e-07)
(-0.0481571 0.0338638 1.16626e-07)
(-0.0652967 0.0354327 1.50206e-07)
(-0.0825729 0.0350229 1.78828e-07)
(-0.0990752 0.0327828 2.49388e-07)
(-0.11392 0.0289256 3.81789e-07)
(-0.12631 0.0238597 3.28414e-07)
(-0.001426 0.00932695 -3.14002e-06)
(-0.00829119 0.0253927 2.67353e-06)
(-0.0212143 0.0378098 -2.6164e-07)
(-0.0374588 0.0465323 -5.98051e-07)
(-0.0557812 0.0518358 -3.28864e-07)
(-0.0752044 0.0539958 -3.05334e-07)
(-0.0947158 0.0532019 -2.62622e-07)
(-0.11328 0.0496012 -1.26716e-07)
(-0.129826 0.0434494 2.73794e-07)
(-0.143281 0.0353294 4.61085e-07)
(-0.00156155 0.0140518 -3.38787e-06)
(-0.00901402 0.0363989 2.93369e-06)
(-0.0229509 0.0530847 -3.43914e-07)
(-0.0403616 0.064629 -7.60114e-07)
(-0.0599165 0.071583 -4.97688e-07)
(-0.0806055 0.0743342 -4.89308e-07)
(-0.101375 0.0730691 -4.738e-07)
(-0.121105 0.0678725 -3.66986e-07)
(-0.138556 0.0589534 4.37039e-07)
(-0.152261 0.0469821 1.2067e-06)
(-0.00156371 0.0189862 -3.37744e-06)
(-0.00906376 0.0478749 2.98931e-06)
(-0.0231075 0.0689693 -3.67147e-07)
(-0.0406413 0.0834047 -8.31388e-07)
(-0.0603222 0.0920481 -6.11735e-07)
(-0.0811497 0.0954149 -6.36121e-07)
(-0.102081 0.0936656 -7.10076e-07)
(-0.121981 0.0867435 -8.66097e-07)
(-0.139517 0.0746571 5.6131e-07)
(-0.152715 0.0579071 2.99586e-06)
(-0.00144096 0.0237619 -3.1089e-06)
(-0.00846547 0.059047 2.8542e-06)
(-0.0217098 0.0844699 -3.35248e-07)
(-0.0382861 0.101743 -8.12542e-07)
(-0.0568924 0.112047 -6.53553e-07)
(-0.0765615 0.116035 -6.70431e-07)
(-0.096302 0.113837 -7.62456e-07)
(-0.115044 0.105181 -1.38026e-06)
(-0.131574 0.0896691 1.57471e-06)
(-0.143421 0.067073 1.04725e-05)
(-0.00121081 0.0280384 -2.59894e-06)
(-0.00729923 0.0691812 2.57747e-06)
(-0.0189209 0.0986079 -2.29474e-07)
(-0.0335075 0.118487 -6.8947e-07)
(-0.0498123 0.13027 -6.43987e-07)
(-0.066872 0.134758 -7.31509e-07)
(-0.0837159 0.132093 -1.02175e-06)
(-0.0993487 0.121816 -3.5113e-06)
(-0.113001 0.103026 -9.50725e-07)
(-0.122178 0.0739782 2.34994e-05)
(-0.000906089 0.0315386 -1.89998e-06)
(-0.00572386 0.0776622 2.22671e-06)
(-0.0150976 0.110521 -2.10368e-08)
(-0.0268629 0.132543 -3.90677e-07)
(-0.0397931 0.145347 -4.44258e-07)
(-0.0528155 0.149854 -7.19937e-07)
(-0.0647812 0.146275 -1.59779e-06)
(-0.0744259 0.134111 -9.07291e-06)
(-0.0813635 0.112224 -2.08855e-05)
(-0.0849332 0.0778166 6.40765e-06)
(0.000268908 -0.00027168 -4.64107e-08)
(-6.60662e-05 0.000176754 -1.27061e-06)
(-0.00188421 0.000642116 -1.8976e-06)
(-0.00472951 0.000949916 -2.42703e-06)
(-0.00823679 0.00112139 -2.73406e-06)
(-0.0120913 0.00119221 -2.85463e-06)
(-0.016033 0.00118767 -2.8528e-06)
(-0.0198434 0.00112021 -2.72962e-06)
(-0.0233291 0.000996455 -2.46687e-06)
(-0.0263268 0.000827482 -2.04929e-06)
(-0.00019847 6.64619e-05 1.07131e-06)
(-0.00243271 0.00235712 -2.59059e-07)
(-0.00772218 0.00451953 1.16268e-06)
(-0.0150833 0.00605541 1.78429e-06)
(-0.0238374 0.00697914 2.08524e-06)
(-0.0333635 0.00738131 2.27427e-06)
(-0.0430769 0.00734237 2.27383e-06)
(-0.0524484 0.0069169 2.11182e-06)
(-0.0610033 0.00615544 1.85261e-06)
(-0.06835 0.00514038 1.59835e-06)
(-0.000736652 0.00199328 1.85385e-06)
(-0.00490577 0.00774374 -1.63081e-06)
(-0.0133589 0.0127439 -5.76776e-08)
(-0.0244786 0.0163572 7.99912e-08)
(-0.0373665 0.0185813 -8.06992e-08)
(-0.0512319 0.0195474 -7.85467e-08)
(-0.0652857 0.0193887 -8.74445e-08)
(-0.0787802 0.0182157 -1.27625e-07)
(-0.0910228 0.0161612 -1.72448e-07)
(-0.101427 0.013453 -9.90174e-08)
(-0.00115173 0.00518696 2.6429e-06)
(-0.00690534 0.0156154 -2.26672e-06)
(-0.0179636 0.02409 1.14066e-08)
(-0.0320783 0.0301458 1.90694e-07)
(-0.048157 0.0338638 -8.25608e-08)
(-0.0652966 0.0354327 -1.18608e-07)
(-0.0825727 0.0350229 -1.49727e-07)
(-0.099075 0.0327827 -2.23286e-07)
(-0.11392 0.0289256 -3.59233e-07)
(-0.12631 0.0238597 -3.09561e-07)
(-0.00142599 0.00932695 3.17812e-06)
(-0.00829115 0.0253927 -2.63478e-06)
(-0.0212142 0.0378097 2.99089e-07)
(-0.0374587 0.0465322 6.33543e-07)
(-0.0557811 0.0518357 3.62253e-07)
(-0.0752043 0.0539958 3.36236e-07)
(-0.0947157 0.0532018 2.90771e-07)
(-0.113279 0.0496012 1.51619e-07)
(-0.129826 0.0434494 -2.52582e-07)
(-0.143281 0.0353294 -4.43736e-07)
(-0.00156154 0.0140518 3.42546e-06)
(-0.00901399 0.0363989 -2.89571e-06)
(-0.0229509 0.0530847 3.80277e-07)
(-0.0403615 0.064629 7.94358e-07)
(-0.0599163 0.071583 5.29562e-07)
(-0.0806054 0.0743342 5.18614e-07)
(-0.101375 0.0730691 5.00248e-07)
(-0.121105 0.0678724 3.8994e-07)
(-0.138556 0.0589534 -4.17971e-07)
(-0.152261 0.0469821 -1.19127e-06)
(-0.0015637 0.0189862 3.41314e-06)
(-0.00906372 0.0478749 -2.95338e-06)
(-0.0231074 0.0689693 4.01196e-07)
(-0.0406412 0.0834047 8.63207e-07)
(-0.060322 0.0920481 6.4118e-07)
(-0.0811496 0.0954148 6.62876e-07)
(-0.102081 0.0936656 7.33791e-07)
(-0.121981 0.0867434 8.86217e-07)
(-0.139517 0.0746571 -5.44894e-07)
(-0.152715 0.057907 -2.98268e-06)
(-0.00144095 0.0237619 3.14117e-06)
(-0.00846544 0.0590469 -2.82168e-06)
(-0.0217098 0.0844698 3.6591e-07)
(-0.038286 0.101743 8.41049e-07)
(-0.0568923 0.112047 6.79681e-07)
(-0.0765614 0.116035 6.93869e-07)
(-0.0963019 0.113837 7.82956e-07)
(-0.115044 0.105181 1.39741e-06)
(-0.131574 0.089669 -1.56089e-06)
(-0.143421 0.067073 -1.04615e-05)
(-0.0012108 0.0280384 2.62676e-06)
(-0.00729922 0.0691811 -2.54932e-06)
(-0.0189209 0.0986078 2.56023e-07)
(-0.0335074 0.118487 7.14064e-07)
(-0.0498122 0.13027 6.66323e-07)
(-0.0668719 0.134758 7.51422e-07)
(-0.0837158 0.132093 1.03899e-06)
(-0.0993486 0.121816 3.52556e-06)
(-0.113001 0.103026 9.62205e-07)
(-0.122178 0.0739782 -2.34901e-05)
(-0.000906085 0.0315386 1.9229e-06)
(-0.00572385 0.0776621 -2.20335e-06)
(-0.0150976 0.110521 4.3193e-08)
(-0.0268629 0.132543 4.11246e-07)
(-0.0397931 0.145347 4.62962e-07)
(-0.0528155 0.149854 7.36525e-07)
(-0.0647812 0.146275 1.61207e-06)
(-0.0744259 0.134111 9.08493e-06)
(-0.0813634 0.112224 2.08958e-05)
(-0.0849332 0.0778166 -6.39851e-06)
(0.000264248 -0.000267389 -1.00318e-07)
(-7.27611e-05 0.000182397 -0.000202829)
(-0.00188773 0.000655444 -0.000401646)
(-0.00473193 0.000968533 -0.000536789)
(-0.00823811 0.00114282 -0.000567765)
(-0.0120917 0.00121498 -0.000476176)
(-0.0160327 0.0012104 -0.000256867)
(-0.0198423 0.00114166 8.88107e-05)
(-0.0233269 0.00101562 0.000554103)
(-0.0263236 0.000843765 0.00112566)
(-0.000205305 7.33592e-05 0.000202172)
(-0.0024354 0.00235906 -4.21404e-06)
(-0.00771514 0.00453009 -0.00014929)
(-0.0150791 0.00607068 -0.000221663)
(-0.0238353 0.006996 -0.000204929)
(-0.0333629 0.00739885 -8.43831e-05)
(-0.0430778 0.00735973 0.000145696)
(-0.0524502 0.00693312 0.000486574)
(-0.0610052 0.00616974 0.000935693)
(-0.0683511 0.00515269 0.0014854)
(-0.000751602 0.00199834 0.000404761)
(-0.00491631 0.00773757 0.000135056)
(-0.0133525 0.0127406 -1.04154e-05)
(-0.0244766 0.0163537 -6.30655e-05)
(-0.0373665 0.018576 -3.0444e-05)
(-0.0512321 0.0195412 9.60217e-05)
(-0.0652865 0.0193821 0.000320025)
(-0.0787813 0.018209 0.000644142)
(-0.091023 0.0161544 0.00106973)
(-0.101425 0.0134475 0.00159459)
(-0.00117293 0.00519118 0.000529087)
(-0.00692057 0.0156118 0.000182515)
(-0.0179554 0.0240906 1.60439e-05)
(-0.0320767 0.0301478 -3.80557e-05)
(-0.0481581 0.0338653 -6.70058e-06)
(-0.0652975 0.0354339 0.000113491)
(-0.0825741 0.0350237 0.000324753)
(-0.0990769 0.0327826 0.000631911)
(-0.11392 0.0289236 0.00104173)
(-0.126306 0.0238575 0.00155954)
(-0.00145109 0.00932949 0.000509153)
(-0.00830827 0.0253907 9.66441e-05)
(-0.0212031 0.0378114 -9.17196e-05)
(-0.0374562 0.0465357 -0.000156098)
(-0.0557822 0.0518395 -0.00013707)
(-0.0752055 0.0539997 -3.42097e-05)
(-0.0947179 0.0532056 0.0001555)
(-0.113283 0.0496038 0.000441651)
(-0.129828 0.043448 0.000839763)
(-0.143274 0.0353261 0.00136875)
(-0.00158871 0.0140525 0.000303341)
(-0.00903193 0.0363978 -0.000158052)
(-0.0229378 0.0530855 -0.000364062)
(-0.0403581 0.064631 -0.00044472)
(-0.0599171 0.0715856 -0.000448389)
(-0.0806065 0.0743373 -0.000375206)
(-0.101378 0.0730727 -0.000218526)
(-0.121112 0.0678755 3.94538e-05)
(-0.138562 0.0589491 0.000428005)
(-0.152247 0.0469711 0.000993106)
(-0.00159099 0.018985 -0.00010693)
(-0.00908135 0.0478748 -0.00059818)
(-0.0230934 0.0689694 -0.000814984)
(-0.040637 0.0834053 -0.000916194)
(-0.0603222 0.0920495 -0.000952752)
(-0.0811499 0.095417 -0.000923587)
(-0.102084 0.093669 -0.0008158)
(-0.121993 0.0867479 -0.000599855)
(-0.139534 0.0746473 -0.000227324)
(-0.152687 0.0578716 0.000402943)
(-0.0014665 0.023759 -0.000720113)
(-0.00848165 0.0590477 -0.00122268)
(-0.021696 0.0844691 -0.00144259)
(-0.0382813 0.101742 -0.00156762)
(-0.0568917 0.112047 -0.00164724)
(-0.0765607 0.116037 -0.00167879)
(-0.0963028 0.113842 -0.00164188)
(-0.115065 0.105197 -0.00149329)
(-0.131622 0.0896737 -0.00116439)
(-0.143377 0.067017 -0.000447007)
(-0.00123302 0.0280339 -0.0015156)
(-0.00731312 0.0691822 -0.0020136)
(-0.0189083 0.0986058 -0.0022291)
(-0.0335024 0.118484 -0.00237965)
(-0.0498102 0.130267 -0.00251068)
(-0.0668675 0.134756 -0.00261927)
(-0.0837054 0.132097 -0.00267835)
(-0.0993646 0.121848 -0.00263017)
(-0.113099 0.103098 -0.00239554)
(-0.122132 0.0740095 -0.00157463)
(-0.000923935 0.0315333 -0.00245578)
(-0.00573513 0.0776633 -0.0029382)
(-0.0150877 0.110517 -0.00314226)
(-0.0268592 0.132536 -0.00331705)
(-0.0397915 0.145336 -0.00350337)
(-0.0528085 0.149833 -0.00370298)
(-0.0647495 0.146235 -0.00389132)
(-0.0743866 0.134051 -0.00400767)
(-0.0814447 0.112166 -0.00402315)
(-0.084858 0.0777081 -0.00335398)
(-0.0287289 0.000650169 -0.00178287)
(-0.0305315 0.000467015 -0.00250077)
(-0.0318047 0.000315741 -0.00325713)
(-0.0326624 0.000203425 -0.00403533)
(-0.0332221 0.000127536 -0.00482446)
(-0.0335855 8.12958e-05 -0.0056183)
(-0.0338325 5.75139e-05 -0.00641393)
(-0.0340228 5.04578e-05 -0.00721068)
(-0.0342008 5.62303e-05 -0.00800947)
(-0.0344 7.2328e-05 -0.00881258)
(-0.0346457 9.67823e-05 -0.00962362)
(-0.0349543 0.00012707 -0.0104477)
(-0.0353304 0.000158875 -0.0112913)
(-0.0357599 0.000184793 -0.0121624)
(-0.0362004 0.000193262 -0.0130695)
(-0.0365703 0.000168407 -0.0140202)
(-0.0367379 9.13663e-05 -0.0150189)
(-0.0365236 -5.86757e-05 -0.0160619)
(-0.0357138 -0.000288865 -0.017136)
(-0.0340979 -0.00058954 -0.0182126)
(-0.0742503 0.00402354 -0.00212135)
(-0.0786899 0.00295488 -0.00282366)
(-0.0818564 0.00206126 -0.00357408)
(-0.0840229 0.00138301 -0.00435772)
(-0.0854662 0.000909604 -0.00516333)
(-0.0864244 0.000606656 -0.00598312)
(-0.0870847 0.000435465 -0.00681229)
(-0.0875868 0.000362947 -0.00764836)
(-0.0880331 0.00036405 -0.00849074)
(-0.0884977 0.000419838 -0.00934043)
(-0.089031 0.00051333 -0.0101999)
(-0.089659 0.000624227 -0.0110728)
(-0.0903765 0.000723152 -0.0119641)
(-0.0911334 0.000766154 -0.0128795)
(-0.0918164 0.000690971 -0.0138247)
(-0.0922284 0.000417924 -0.0148043)
(-0.0920758 -0.000140854 -0.0158194)
(-0.0909679 -0.00106191 -0.0168664)
(-0.0884544 -0.00236809 -0.0179316)
(-0.0841106 -0.00399014 -0.0189904)
(-0.109635 0.0104697 -0.00220829)
(-0.115674 0.00767978 -0.00289038)
(-0.119887 0.00536593 -0.00362352)
(-0.122717 0.00361756 -0.00439351)
(-0.124575 0.00239669 -0.00518902)
(-0.125796 0.0016093 -0.00600184)
(-0.126627 0.00115367 -0.00682649)
(-0.127249 0.000943405 -0.00765978)
(-0.127787 0.000912069 -0.00850033)
(-0.128328 0.00100796 -0.00934834)
(-0.128929 0.00118395 -0.0102053)
(-0.129615 0.00138513 -0.0110738)
(-0.130371 0.00153564 -0.0119576)
(-0.13113 0.00152667 -0.012861)
(-0.131743 0.00120872 -0.0137885)
(-0.131962 0.000394486 -0.014744)
(-0.131407 -0.00111844 -0.0157293)
(-0.129571 -0.00349564 -0.0167423)
(-0.125847 -0.0067843 -0.0177738)
(-0.119632 -0.0108074 -0.0188048)
(-0.135732 0.018319 -0.00217801)
(-0.142309 0.0132335 -0.00286735)
(-0.146649 0.00911676 -0.00360752)
(-0.149414 0.00607448 -0.00438363)
(-0.151146 0.00398754 -0.00518388)
(-0.152237 0.00265674 -0.00600009)
(-0.152954 0.00188721 -0.0068269)
(-0.153474 0.00152193 -0.00766114)
(-0.153912 0.00144407 -0.00850126)
(-0.154343 0.0015647 -0.00934699)
(-0.154817 0.00180439 -0.0101991)
(-0.155352 0.00207242 -0.0110593)
(-0.155937 0.0022452 -0.0119302)
(-0.156511 0.00214591 -0.012815)
(-0.156941 0.00153006 -0.0137178)
(-0.156988 8.60867e-05 -0.0146431)
(-0.156269 -0.00253345 -0.0155952)
(-0.154224 -0.00663104 -0.0165767)
(-0.150114 -0.0123244 -0.017586)
(-0.143106 -0.0193483 -0.018613)
(-0.152852 0.0264623 -0.00202658)
(-0.158847 0.0185785 -0.00275544)
(-0.162344 0.0124517 -0.00352904)
(-0.164307 0.00809562 -0.00433157)
(-0.16539 0.00520439 -0.00515115)
(-0.165992 0.00340689 -0.00598063)
(-0.166345 0.0023834 -0.00681596)
(-0.166578 0.00189637 -0.0076549)
(-0.166764 0.00177954 -0.00849637)
(-0.166945 0.00191274 -0.00934004)
(-0.16715 0.00219322 -0.0101861)
(-0.167391 0.00250616 -0.0110353)
(-0.167668 0.00269464 -0.011889)
(-0.167958 0.00252957 -0.0127493)
(-0.168187 0.00168342 -0.0136196)
(-0.168198 -0.000281765 -0.0145053)
(-0.167685 -0.00388999 -0.0154145)
(-0.166117 -0.00965714 -0.0163568)
(-0.162654 -0.0178929 -0.0173421)
(-0.156118 -0.028361 -0.0183777)
(-0.160854 0.0338076 -0.00174907)
(-0.164998 0.0226636 -0.00256239)
(-0.166642 0.0145351 -0.00339996)
(-0.16713 0.00908748 -0.00424924)
(-0.167147 0.00565059 -0.00510074)
(-0.167014 0.00359901 -0.00595097)
(-0.166854 0.00246517 -0.00679908)
(-0.166705 0.00193548 -0.00764504)
(-0.166566 0.00180814 -0.00848893)
(-0.166433 0.00194805 -0.0093307)
(-0.166302 0.00224703 -0.0101701)
(-0.166177 0.00258756 -0.0110068)
(-0.166076 0.00280641 -0.0118405)
(-0.166023 0.00265513 -0.0126719)
(-0.166045 0.00175742 -0.0135029)
(-0.166129 -0.000430181 -0.0143394)
(-0.166152 -0.00462953 -0.0151927)
(-0.165744 -0.0116731 -0.016081)
(-0.164069 -0.0222833 -0.0170306)
(-0.159491 -0.0365522 -0.0180827)
(-0.158981 0.0390011 -0.00136371)
(-0.159752 0.0242764 -0.00232294)
(-0.158565 0.0145467 -0.00325457)
(-0.157104 0.00857531 -0.00416468)
(-0.155874 0.00507752 -0.00505315)
(-0.154961 0.00311142 -0.00592509)
(-0.154304 0.00207463 -0.00678557)
(-0.153805 0.00160973 -0.00763786)
(-0.153379 0.00150975 -0.00848366)
(-0.152964 0.00164951 -0.00932331)
(-0.152523 0.00193768 -0.010156)
(-0.152046 0.0022789 -0.0109801)
(-0.151558 0.00253682 -0.0117935)
(-0.151132 0.00249025 -0.0125942)
(-0.150896 0.00177513 -0.0133819)
(-0.151026 -0.00019353 -0.0141606)
(-0.151686 -0.00430903 -0.0149432)
(-0.152876 -0.011794 -0.0157565)
(-0.154067 -0.0240991 -0.0166462)
(-0.153203 -0.0422988 -0.0177184)
(-0.145371 0.0400363 -0.000920686)
(-0.140944 0.0219306 -0.00210055)
(-0.13629 0.0117873 -0.00314478)
(-0.132923 0.00635328 -0.00411527)
(-0.130691 0.00350152 -0.00503275)
(-0.129261 0.00203479 -0.00591794)
(-0.128324 0.00131471 -0.0067844)
(-0.127651 0.00101493 -0.00763896)
(-0.127085 0.000970039 -0.00848457)
(-0.126523 0.00109247 -0.00932157)
(-0.1259 0.00132637 -0.0101483)
(-0.125186 0.001617 -0.0109616)
(-0.124401 0.00188243 -0.0117569)
(-0.123628 0.00197645 -0.0125291)
(-0.123059 0.00162868 -0.0132735)
(-0.12303 0.000338223 -0.0139896)
(-0.124023 -0.00280374 -0.0146915)
(-0.126632 -0.00932533 -0.0154082)
(-0.131269 -0.0216899 -0.016201)
(-0.13614 -0.0432552 -0.0172787)
(-0.115782 0.0345459 -0.000686751)
(-0.104485 0.0147471 -0.00210633)
(-0.0970076 0.00644447 -0.00318695)
(-0.0928863 0.00293977 -0.00416026)
(-0.0905764 0.00142214 -0.00506849)
(-0.0892505 0.000757647 -0.00594335)
(-0.0884441 0.000473914 -0.00680249)
(-0.0878827 0.000375781 -0.00765259)
(-0.0874035 0.000382957 -0.00849544)
(-0.0869045 0.000461645 -0.00933011)
(-0.0863182 0.000595523 -0.0101535)
(-0.0856037 0.000771001 -0.0109604)
(-0.0847538 0.000965082 -0.0117436)
(-0.0838171 0.00112733 -0.0124936)
(-0.0829478 0.00114266 -0.0131992)
(-0.0824874 0.000746874 -0.0138512)
(-0.0830428 -0.00067483 -0.0144568)
(-0.0857759 -0.00458566 -0.0150245)
(-0.0929105 -0.0142534 -0.0155915)
(-0.105377 -0.0370268 -0.0165195)
(-0.0593654 0.0213133 -0.00129265)
(-0.0441888 0.0060946 -0.00267921)
(-0.038059 0.00183046 -0.00341531)
(-0.0358905 0.000570219 -0.00415606)
(-0.0349768 0.000184494 -0.00491599)
(-0.0345285 6.94582e-05 -0.00569034)
(-0.0342746 4.00958e-05 -0.00647618)
(-0.0340909 4.01253e-05 -0.00726816)
(-0.0339137 5.40708e-05 -0.00806146)
(-0.0337027 7.90278e-05 -0.00885159)
(-0.0334258 0.000115923 -0.00963328)
(-0.0330546 0.000166777 -0.0103993)
(-0.0325653 0.000233247 -0.0111395)
(-0.0319456 0.000313578 -0.0118387)
(-0.0312144 0.000392889 -0.0124753)
(-0.0304686 0.000413463 -0.0130184)
(-0.0300078 0.00016969 -0.0134275)
(-0.0307086 -0.00110792 -0.0136665)
(-0.03594 -0.00592789 -0.0136332)
(-0.0530315 -0.0235817 -0.0139197)
(-0.0287323 0.000636886 1.54323e-06)
(-0.0305343 0.00045678 1.06927e-06)
(-0.0318067 0.00030825 6.99501e-07)
(-0.0326636 0.000198146 4.34663e-07)
(-0.0332227 0.000123899 2.60726e-07)
(-0.0335858 7.87792e-05 1.56478e-07)
(-0.0338325 5.56823e-05 1.01747e-07)
(-0.0340226 4.89669e-05 8.17305e-08)
(-0.0342005 5.48182e-05 8.61327e-08)
(-0.0343996 7.08023e-05 1.09008e-07)
(-0.0346452 9.50172e-05 1.46181e-07)
(-0.0349537 0.000125019 1.93317e-07)
(-0.0353298 0.0001566 2.44313e-07)
(-0.0357593 0.000182507 2.88481e-07)
(-0.0361999 0.000191378 3.08758e-07)
(-0.0365702 0.000167568 2.81906e-07)
(-0.0367385 9.24992e-05 1.62081e-07)
(-0.0365253 -5.44996e-05 -8.50351e-08)
(-0.0357171 -0.00028053 -5.17088e-07)
(-0.0341027 -0.000576436 -1.15444e-06)
(-0.0742491 0.00401264 -1.39535e-06)
(-0.0786882 0.002946 -1.16052e-06)
(-0.0818542 0.00205455 -9.1079e-07)
(-0.0840207 0.00137815 -6.87783e-07)
(-0.0854642 0.000906212 -5.05972e-07)
(-0.0864228 0.000604317 -3.71838e-07)
(-0.0870834 0.000433814 -2.84539e-07)
(-0.0875859 0.000361686 -2.37668e-07)
(-0.0880325 0.000362949 -2.23277e-07)
(-0.0884972 0.000418721 -2.32394e-07)
(-0.0890305 0.000512071 -2.54766e-07)
(-0.0896584 0.000622754 -2.77191e-07)
(-0.0903755 0.000721466 -2.81904e-07)
(-0.0911318 0.000764363 -2.45299e-07)
(-0.0918139 0.000689342 -1.38935e-07)
(-0.092225 0.000416915 6.29967e-08)
(-0.0920715 -0.000140543 3.88319e-07)
(-0.0909631 -0.00105934 8.22877e-07)
(-0.0884503 -0.00236234 1.34756e-06)
(-0.0841081 -0.00398121 1.83469e-06)
(-0.109636 0.0104717 -1.70884e-07)
(-0.115674 0.00768029 -2.97972e-07)
(-0.119886 0.00536602 -3.23453e-07)
(-0.122715 0.00361754 -3.04882e-07)
(-0.124574 0.00239672 -2.58301e-07)
(-0.125794 0.00160943 -2.04418e-07)
(-0.126626 0.00115393 -1.56407e-07)
(-0.127248 0.000943789 -1.1881e-07)
(-0.127786 0.000912587 -9.1959e-08)
(-0.128327 0.00100862 -7.35995e-08)
(-0.128928 0.00118472 -6.03246e-08)
(-0.129614 0.00138594 -4.81646e-08)
(-0.13037 0.00153639 -3.22805e-08)
(-0.131128 0.00152719 -6.43062e-09)
(-0.131741 0.00120881 3.68756e-08)
(-0.131959 0.000393941 1.00188e-07)
(-0.131404 -0.00111985 1.77801e-07)
(-0.129568 -0.00349785 2.75514e-07)
(-0.125846 -0.00678724 3.72494e-07)
(-0.119634 -0.0108124 3.08651e-07)
(-0.135736 0.0183159 -2.60909e-07)
(-0.14231 0.01323 -4.27438e-07)
(-0.146647 0.0091145 -4.20863e-07)
(-0.149412 0.00607326 -3.7248e-07)
(-0.151143 0.00398708 -2.95307e-07)
(-0.152235 0.00265675 -2.17834e-07)
(-0.152952 0.00188746 -1.54295e-07)
(-0.153472 0.00152228 -1.06736e-07)
(-0.15391 0.00144446 -7.32452e-08)
(-0.154342 0.00156508 -5.0573e-08)
(-0.154816 0.00180473 -3.56108e-08)
(-0.155351 0.00207267 -2.55656e-08)
(-0.155936 0.00224527 -1.75608e-08)
(-0.156509 0.00214573 -7.13775e-09)
(-0.156939 0.0015296 1.57689e-08)
(-0.156986 8.54223e-05 6.27771e-08)
(-0.156267 -0.00253409 1.12842e-07)
(-0.15422 -0.00663091 2.05084e-07)
(-0.150113 -0.0123222 3.74397e-07)
(-0.143111 -0.0193457 3.20355e-07)
(-0.152859 0.026454 -7.31611e-07)
(-0.158846 0.0185715 -8.13609e-07)
(-0.16234 0.0124484 -6.48162e-07)
(-0.164304 0.00809438 -5.03716e-07)
(-0.165387 0.00520433 -3.52662e-07)
(-0.16599 0.00340737 -2.30455e-07)
(-0.166343 0.00238403 -1.46756e-07)
(-0.166576 0.00189696 -9.32944e-08)
(-0.166762 0.00178003 -6.13888e-08)
(-0.166944 0.00191313 -4.42721e-08)
(-0.167148 0.00219349 -3.74537e-08)
(-0.16739 0.00250628 -3.79287e-08)
(-0.167667 0.00269457 -4.30964e-08)
(-0.167956 0.00252926 -4.83259e-08)
(-0.168185 0.00168292 -3.93489e-08)
(-0.168195 -0.000282244 1.51322e-09)
(-0.167681 -0.00389003 6.91672e-08)
(-0.166111 -0.00965521 2.12934e-07)
(-0.16265 -0.0178852 6.57006e-07)
(-0.156126 -0.0283495 9.06888e-07)
(-0.160869 0.0337904 -1.60713e-06)
(-0.164993 0.0226521 -1.33994e-06)
(-0.166635 0.0145316 -8.17589e-07)
(-0.167124 0.00908717 -5.44625e-07)
(-0.167143 0.00565154 -3.18681e-07)
(-0.167011 0.00360026 -1.66704e-07)
(-0.166852 0.00246629 -8.24375e-08)
(-0.166703 0.00193637 -3.84637e-08)
(-0.166565 0.00180881 -1.73485e-08)
(-0.166432 0.00194856 -9.51097e-09)
(-0.166301 0.00224741 -1.02694e-08)
(-0.166176 0.00258781 -1.78709e-08)
(-0.166075 0.00280649 -3.23382e-08)
(-0.166022 0.00265498 -5.21308e-08)
(-0.166043 0.00175706 -5.82901e-08)
(-0.166126 -0.000430413 -2.08044e-08)
(-0.166147 -0.0046291 5.36575e-09)
(-0.165733 -0.0116698 1.35974e-07)
(-0.164059 -0.0222686 1.11987e-06)
(-0.159506 -0.0365275 2.29129e-06)
(-0.15901 0.0389771 -4.33017e-06)
(-0.159737 0.0242686 -2.7898e-06)
(-0.15855 0.0145499 -1.25429e-06)
(-0.157096 0.00857914 -6.51882e-07)
(-0.155869 0.00508062 -2.75428e-07)
(-0.154959 0.0031137 -8.33506e-08)
(-0.154302 0.00207617 -9.24413e-09)
(-0.153803 0.0016108 1.45446e-08)
(-0.153378 0.00151057 1.71731e-08)
(-0.152963 0.00165023 1.02775e-08)
(-0.152523 0.00193837 -2.27875e-09)
(-0.152046 0.00227959 -2.03439e-08)
(-0.151558 0.00253744 -4.52125e-08)
(-0.151131 0.00249058 -7.76833e-08)
(-0.150894 0.00177488 -9.19963e-08)
(-0.151023 -0.000194423 -1.14798e-08)
(-0.151679 -0.00431077 9.34467e-08)
(-0.152857 -0.0117964 3.64307e-07)
(-0.154043 -0.0240886 2.67239e-06)
(-0.153233 -0.0422664 6.30702e-06)
(-0.145426 0.0399966 -7.39753e-06)
(-0.140913 0.02194 -2.91497e-06)
(-0.136272 0.0118074 -5.57495e-07)
(-0.132918 0.00636445 -2.21776e-07)
(-0.130689 0.00350711 2.43794e-08)
(-0.12926 0.00203775 1.12483e-07)
(-0.128323 0.00131634 1.04919e-07)
(-0.12765 0.001016 8.47206e-08)
(-0.127085 0.00097099 6.90058e-08)
(-0.126522 0.00109355 5.79873e-08)
(-0.125899 0.00132769 4.88565e-08)
(-0.125186 0.00161862 3.72089e-08)
(-0.124401 0.00188427 1.64768e-08)
(-0.123629 0.00197811 -3.1507e-08)
(-0.123059 0.00162932 -1.07816e-07)
(-0.12303 0.000336435 -7.32922e-08)
(-0.124021 -0.00281172 5.28331e-08)
(-0.126612 -0.00934586 -3.25911e-07)
(-0.131227 -0.0217013 2.39751e-06)
(-0.136195 -0.0432032 1.01606e-05)
(-0.115849 0.0343604 -9.30428e-06)
(-0.10442 0.0146922 4.07691e-06)
(-0.0969966 0.00643461 4.47927e-06)
(-0.0928949 0.00293333 1.85822e-06)
(-0.0905811 0.00141741 9.40053e-07)
(-0.0892526 0.000754771 5.57925e-07)
(-0.0884451 0.000472081 3.36424e-07)
(-0.0878828 0.000374454 2.43429e-07)
(-0.0874031 0.000381841 2.27827e-07)
(-0.0869039 0.000460543 2.54862e-07)
(-0.0863174 0.000594315 3.07021e-07)
(-0.0856031 0.000769649 3.69682e-07)
(-0.0847538 0.000963678 4.17494e-07)
(-0.0838184 0.0011262 3.83659e-07)
(-0.0829508 0.00114256 1.76107e-07)
(-0.082495 0.000748741 -1.68249e-07)
(-0.0830595 -0.000671191 -1.23317e-06)
(-0.0857714 -0.00457851 -5.47835e-06)
(-0.0928274 -0.0141938 -7.21659e-06)
(-0.105426 -0.0367915 1.12956e-05)
(-0.0594021 0.0211767 -5.07842e-05)
(-0.0440381 0.00603108 -8.20131e-06)
(-0.0380175 0.0018052 -4.78704e-07)
(-0.0358867 0.000556067 -1.32632e-06)
(-0.034974 0.000176384 -8.51087e-07)
(-0.0345264 6.50148e-05 -3.8489e-07)
(-0.0342737 3.74889e-05 -2.10175e-07)
(-0.0340905 3.83039e-05 -1.43884e-07)
(-0.0339135 5.24689e-05 -1.23292e-07)
(-0.0337027 7.73135e-05 -1.33329e-07)
(-0.0334259 0.000113897 -1.64696e-07)
(-0.0330548 0.000164364 -2.08305e-07)
(-0.0325655 0.00023057 -2.51138e-07)
(-0.0319454 0.000311166 -2.70136e-07)
(-0.0312132 0.00039199 -1.79022e-07)
(-0.0304676 0.000416133 2.56875e-07)
(-0.0300098 0.000178834 6.24054e-07)
(-0.0306696 -0.00108591 -1.7326e-06)
(-0.035742 -0.00585995 3.87271e-06)
(-0.0530217 -0.0234037 6.27147e-05)
(-0.0287322 0.000636886 -1.52796e-06)
(-0.0305343 0.00045678 -1.05676e-06)
(-0.0318066 0.00030825 -6.89341e-07)
(-0.0326636 0.000198146 -4.26461e-07)
(-0.0332227 0.000123899 -2.544e-07)
(-0.0335857 7.87789e-05 -1.51921e-07)
(-0.0338324 5.56819e-05 -9.89131e-08)
(-0.0340226 4.89665e-05 -8.0426e-08)
(-0.0342004 5.48177e-05 -8.6238e-08)
(-0.0343996 7.08015e-05 -1.10408e-07)
(-0.0346452 9.50163e-05 -1.48941e-07)
(-0.0349537 0.000125018 -1.97554e-07)
(-0.0353297 0.000156599 -2.50005e-07)
(-0.0357592 0.000182506 -2.95667e-07)
(-0.0361999 0.000191377 -3.176e-07)
(-0.0365702 0.000167567 -2.92486e-07)
(-0.0367384 9.24977e-05 -1.74457e-07)
(-0.0365252 -5.45012e-05 7.04556e-08)
(-0.0357171 -0.000280532 5.0002e-07)
(-0.0341026 -0.000576438 1.13504e-06)
(-0.074249 0.00401264 1.412e-06)
(-0.078688 0.002946 1.17413e-06)