/*--------------------------------*- C++ -*----------------------------------*\
| =========                 |                                                 |
| \\      /  F ield         | OpenFOAM: The Open Source CFD Toolbox           |
|  \\    /   O peration     | Version:  2.4.0                                 |
|   \\  /    A nd           | Web:      www.OpenFOAM.org                      |
|    \\/     M anipulation  |                                                 |
\*---------------------------------------------------------------------------*/
FoamFile
{
    version     2.0;
    format      ascii;
    class       volScalarField;
    location    "1.1";
    object      p;
}
// * * * * * * * * * * * * * * * * * * * * * * * * * * * * * * * * * * * * * //

dimensions      [0 2 -2 0 0 0 0];

internalField   nonuniform List<scalar> 
4800
(
-2.3715e-06
-0.00142184
-0.00274856
-0.00358687
-0.00365449
-0.00282441
-0.00106303
0.00161657
0.00516211
0.00947401
0.00141379
-2.56977e-05
-0.000944077
-0.00133059
-0.00108193
-0.000102376
0.0016445
0.00416302
0.00743014
0.0113876
0.00275967
0.000856491
-6.36435e-05
-0.000317688
3.81286e-05
0.00105906
0.00276967
0.00518302
0.0083012
0.0121005
0.00351653
0.001086
2.72032e-05
-0.000234647
0.000117225
0.00110384
0.00274108
0.00505644
0.00808644
0.011854
0.00323854
0.000405975
-0.000794852
-0.00112041
-0.00084151
4.36482e-05
0.00155643
0.00375481
0.00673176
0.0105951
0.00165325
-0.001404
-0.00271599
-0.00314152
-0.00299962
-0.00229177
-0.000973117
0.00106696
0.00401223
0.00814331
-0.00135433
-0.0044434
-0.00582048
-0.00637244
-0.00643232
-0.00599318
-0.00497022
-0.00317788
-0.00030131
0.00430096
-0.00576595
-0.00869963
-0.0100919
-0.0107921
-0.0111214
-0.0110617
-0.0104806
-0.00910613
-0.00647388
-0.00121721
-0.0114387
-0.0140546
-0.0154147
-0.0162776
-0.0169366
-0.0173719
-0.0174093
-0.0166917
-0.0146575
-0.00855946
-0.0181178
-0.0202975
-0.021583
-0.0226062
-0.0236315
-0.0246715
-0.0255746
-0.0259944
-0.0257255
-0.0205574
-4.53356e-06
-0.00144113
-0.0027771
-0.00362326
-0.0036953
-0.00286689
-0.00110538
0.00157614
0.00512566
0.00944382
0.00142919
-2.9401e-05
-0.000927291
-0.00130522
-0.00105249
-7.03613e-05
0.00167647
0.0041927
0.0074562
0.0114101
0.00278704
0.000833268
-6.45377e-05
-0.00031666
3.68688e-05
0.00105782
0.00276832
0.00518113
0.00829873
0.0120991
0.00355541
0.00105422
2.71389e-05
-0.000232284
0.000115722
0.0011018
0.0027386
0.00505297
0.00808115
0.0118495
0.00328491
0.000369399
-0.000790956
-0.00111199
-0.000836929
4.78119e-05
0.00155993
0.00375639
0.0067278
0.0105887
0.00170294
-0.00144396
-0.00271103
-0.00313099
-0.0029928
-0.00228516
-0.000966808
0.00107173
0.00400588
0.00812638
-0.00130493
-0.00448397
-0.00581525
-0.00636099
-0.00642397
-0.00598455
-0.00496068
-0.00316628
-0.000309537
0.00425905
-0.00572046
-0.00873825
-0.0100871
-0.0107809
-0.0111124
-0.0110524
-0.0104702
-0.00908755
-0.00649696
-0.00136472
-0.0114006
-0.0140894
-0.0154113
-0.0162679
-0.0169275
-0.0173613
-0.0173945
-0.0166423
-0.0146448
-0.0088906
-0.0180897
-0.0203277
-0.0215824
-0.0226006
-0.0236249
-0.0246606
-0.0255503
-0.0258641
-0.0254288
-0.0206417
-4.75714e-06
-0.00144127
-0.00277718
-0.00362332
-0.00369534
-0.00286691
-0.0011054
0.00157612
0.00512565
0.00944381
0.00142905
-2.95014e-05
-0.000927361
-0.00130527
-0.00105252
-7.03854e-05
0.00167645
0.00419269
0.00745618
0.0114101
0.00278696
0.000833197
-6.4592e-05
-0.000316704
3.68353e-05
0.0010578
0.00276829
0.00518111
0.00829872
0.0120991
0.00355537
0.00105417
2.70991e-05
-0.00023232
0.000115694
0.00110178
0.00273858
0.00505295
0.00808113
0.0118495
0.00328488
0.000369362
-0.000790989
-0.00111202
-0.000836955
4.77893e-05
0.00155991
0.00375638
0.00672778
0.0105886
0.00170292
-0.00144399
-0.00271106
-0.00313102
-0.00299283
-0.00228518
-0.000966828
0.00107172
0.00400587
0.00812637
-0.00130495
-0.00448399
-0.00581527
-0.00636101
-0.00642399
-0.00598457
-0.0049607
-0.0031663
-0.000309552
0.00425904
-0.00572048
-0.00873828
-0.0100871
-0.0107809
-0.0111124
-0.0110525
-0.0104702
-0.00908756
-0.00649698
-0.00136474
-0.0114006
-0.0140894
-0.0154113
-0.0162679
-0.0169275
-0.0173614
-0.0173945
-0.0166423
-0.0146448
-0.00889061
-0.0180897
-0.0203277
-0.0215824
-0.0226006
-0.0236249
-0.0246606
-0.0255503
-0.0258641
-0.0254288
-0.0206417
-3.95166e-06
-0.00142242
-0.00274883
-0.00358702
-0.00365459
-0.00282448
-0.00106308
0.00161653
0.00516208
0.00947398
0.00141319
-2.60333e-05
-0.000944288
-0.00133072
-0.00108202
-0.000102448
0.00164445
0.00416298
0.0074301
0.0113876
0.00275939
0.000856275
-6.38046e-05
-0.000317807
3.80395e-05
0.00105899
0.00276962
0.00518298
0.00830116
0.0121004
0.00351636
0.00108586
2.70826e-05
-0.000234746
0.000117145
0.00110377
0.00274102
0.0050564
0.0080864
0.011854
0.00323843
0.000405869
-0.000794947
-0.00112049
-0.000841581
4.35873e-05
0.00155638
0.00375477
0.00673172
0.0105951
0.00165317
-0.00140409
-0.00271606
-0.00314159
-0.00299968
-0.00229182
-0.000973164
0.00106692
0.0040122
0.00814328
-0.00135439
-0.00444347
-0.00582054
-0.0063725
-0.00643238
-0.00599323
-0.00497027
-0.00317792
-0.000301341
0.00430093
-0.00576601
-0.00869968
-0.0100919
-0.0107921
-0.0111214
-0.0110617
-0.0104806
-0.00910616
-0.0064739
-0.00121723
-0.0114388
-0.0140546
-0.0154148
-0.0162776
-0.0169367
-0.0173719
-0.0174094
-0.0166918
-0.0146575
-0.00855948
-0.0181179
-0.0202976
-0.021583
-0.0226062
-0.0236315
-0.0246716
-0.0255746
-0.0259944
-0.0257255
-0.0205574
0.0144015
0.0197647
0.0254028
0.0311959
0.0370655
0.0429671
0.0488799
0.0547991
0.0607306
0.0666892
0.0726984
0.078791
0.085009
0.0914033
0.098028
0.104931
0.112139
0.119626
0.127297
0.134957
0.0159325
0.0209272
0.0262451
0.0317838
0.0374664
0.0432407
0.0490743
0.0549506
0.0608654
0.0668244
0.0728421
0.0789413
0.0851518
0.0915078
0.098044
0.104787
0.111741
0.118878
0.126109
0.133273
0.0165023
0.0213661
0.0265707
0.0320188
0.0376336
0.0433601
0.049162
0.0550179
0.0609187
0.0668648
0.0728651
0.0789354
0.0850977
0.091378
0.0978033
0.104396
0.111165
0.118091
0.125113
0.132104
0.0162973
0.021216
0.0264702
0.0319586
0.037603
0.0433492
0.0491623
0.0550217
0.0609173
0.0668471
0.0728157
0.0788332
0.0849151
0.0910816
0.0973568
0.103767
0.110338
0.11708
0.123979
0.130961
0.0153094
0.0204962
0.0259721
0.031632
0.0373991
0.0432275
0.0490917
0.0549778
0.0608791
0.0667938
0.0727232
0.0786718
0.084648
0.0906652
0.0967445
0.102919
0.109237
0.115755
0.122532
0.129601
0.0135121
0.0192621
0.0251571
0.0311175
0.0370864
0.0430434
0.0489849
0.0549117
0.0608252
0.0667255
0.0726117
0.078482
0.0843357
0.0901765
0.0960185
0.101898
0.107885
0.114094
0.120687
0.127915
0.0110128
0.0177326
0.0242424
0.0305926
0.0367943
0.042885
0.0489003
0.054863
0.060785
0.0666693
0.0725119
0.0783031
0.0840305
0.0896833
0.0952603
0.100789
0.106354
0.112122
0.118393
0.125836
0.00814184
0.0163288
0.0235678
0.0302985
0.0366785
0.0428468
0.0488944
0.0548669
0.0607842
0.0666491
0.0724523
0.0781743
0.0837882
0.089263
0.0945719
0.0997166
0.104785
0.109965
0.115675
0.123276
0.00667252
0.0164739
0.0239112
0.0306246
0.0369261
0.0430168
0.0490103
0.0549496
0.0608459
0.0666935
0.0724731
0.0781533
0.0836892
0.0890226
0.094084
0.0988186
0.10327
0.107491
0.11176
0.118581
0.0109971
0.0212392
0.0266861
0.0321391
0.0377513
0.0434736
0.0492804
0.0551336
0.0609992
0.0668463
0.07264
0.0783332
0.0838588
0.0891183
0.0939678
0.0982029
0.101552
0.103738
0.104161
0.107349
0.0143791
0.0197493
0.0253929
0.0311898
0.0370619
0.042965
0.0488786
0.0547981
0.0607295
0.0666878
0.0726966
0.0787885
0.0850059
0.0913996
0.0980241
0.104928
0.112137
0.119628
0.127305
0.134974
0.0159524
0.0209437
0.026258
0.0317934
0.0374735
0.0432458
0.0490781
0.0549537
0.0608682
0.0668272
0.0728452
0.0789447
0.0851551
0.0915105
0.0980452
0.104785
0.111735
0.118867
0.12609
0.133247
0.016505
0.0213705
0.0265754
0.0320232
0.0376373
0.043363
0.0491641
0.0550195
0.0609199
0.0668658
0.0728658
0.078936
0.085098
0.0913779
0.0978026
0.104394
0.111162
0.118087
0.125108
0.1321
0.0163011
0.0212221
0.0264761
0.0319638
0.0376071
0.0433522
0.0491644
0.0550232
0.0609183
0.0668478
0.0728161
0.0788335
0.0849153
0.0910815
0.0973564
0.103766
0.110336
0.117077
0.123973
0.130956
0.0153198
0.0205076
0.0259811
0.031639
0.0374039
0.0432306
0.0490937
0.054979
0.0608799
0.0667944
0.0727236
0.0786723
0.0846485
0.0906656
0.0967448
0.102919
0.109235
0.115752
0.122522
0.129588
0.013535
0.019281
0.0251684
0.031125
0.0370908
0.0430457
0.0489861
0.0549123
0.0608254
0.0667256
0.0726118
0.0784822
0.084336
0.090177
0.0960192
0.101898
0.107885
0.114091
0.120671
0.127883
0.0110748
0.0177719
0.0242598
0.0306016
0.0367982
0.0428861
0.0489004
0.0548628
0.0607847
0.0666691
0.0725118
0.0783033
0.084031
0.0896842
0.0952614
0.100789
0.106352
0.112116
0.118356
0.125749
0.00824799
0.0163699
0.0235754
0.0303016
0.0366782
0.0428453
0.0488929
0.0548658
0.0607833
0.0666483
0.0724516
0.0781738
0.0837879
0.0892633
0.0945732
0.0997172
0.104784
0.10997
0.115641
0.123135
0.0068066
0.0164158
0.023848
0.0305989
0.0369132
0.0430093
0.0490059
0.0549465
0.0608431
0.0666903
0.0724693
0.0781487
0.083684
0.0890179
0.0940822
0.0988216
0.103288
0.107568
0.111859
0.11842
0.0117585
0.0213581
0.026692
0.0321585
0.0377637
0.0434791
0.0492833
0.0551356
0.0610008
0.066848
0.072642
0.0783358
0.0838619
0.0891215
0.0939695
0.0981981
0.101542
0.103762
0.104101
0.106423
0.0143791
0.0197493
0.0253928
0.0311898
0.0370619
0.042965
0.0488786
0.0547981
0.0607295
0.0666878
0.0726966
0.0787885
0.0850059
0.0913996
0.0980241
0.104928
0.112137
0.119628
0.127305
0.134974
0.0159524
0.0209437
0.026258
0.0317934
0.0374735
0.0432458
0.0490781
0.0549537
0.0608682
0.0668272
0.0728452
0.0789447
0.0851551
0.0915105
0.0980452
0.104785
0.111735
0.118867
0.12609
0.133247
0.016505
0.0213705
0.0265754
0.0320232
0.0376373
0.043363
0.0491641
0.0550195
0.0609199
0.0668658
0.0728658
0.078936
0.085098
0.0913779
0.0978026
0.104394
0.111162
0.118087
0.125108
0.1321
0.0163011
0.0212221
0.0264761
0.0319638
0.0376071
0.0433522
0.0491644
0.0550232
0.0609183
0.0668478
0.0728161
0.0788335
0.0849153
0.0910815
0.0973564
0.103766
0.110336
0.117077
0.123973
0.130956
0.0153198
0.0205076
0.0259811
0.031639
0.0374039
0.0432306
0.0490937
0.054979
0.0608799
0.0667944
0.0727236
0.0786723
0.0846485
0.0906656
0.0967448
0.102919
0.109235
0.115752
0.122522
0.129588
0.013535
0.019281
0.0251684
0.031125
0.0370908
0.0430457
0.0489861
0.0549123
0.0608254
0.0667256
0.0726118
0.0784822
0.084336
0.090177
0.0960192
0.101898
0.107885
0.114091
0.120671
0.127883
0.0110748
0.0177719
0.0242598
0.0306016
0.0367982
0.0428861
0.0489004
0.0548628
0.0607847
0.0666691
0.0725118
0.0783033
0.084031
0.0896842
0.0952614
0.100789
0.106352
0.112116
0.118356
0.125749
0.00824798
0.0163699
0.0235754
0.0303016
0.0366782
0.0428453
0.0488929
0.0548658
0.0607833
0.0666483
0.0724516
0.0781738
0.0837879
0.0892633
0.0945732
0.0997172
0.104784
0.10997
0.115641
0.123135
0.00680659
0.0164158
0.023848
0.0305989
0.0369132
0.0430093
0.0490059
0.0549465
0.0608431
0.0666903
0.0724693
0.0781487
0.083684
0.0890179
0.0940822
0.0988216
0.103288
0.107568
0.111859
0.11842
0.0117585
0.0213581
0.026692
0.0321585
0.0377637
0.0434791
0.0492833
0.0551355
0.0610008
0.066848
0.072642
0.0783358
0.0838619
0.0891215
0.0939695
0.0981981
0.101542
0.103762
0.104101
0.106423
0.0144015
0.0197647
0.0254028
0.0311959
0.0370655
0.0429671
0.0488799
0.0547991
0.0607306
0.0666892
0.0726984
0.078791
0.085009
0.0914033
0.098028
0.104931
0.112139
0.119626
0.127297
0.134957
0.0159325
0.0209272
0.0262451
0.0317837
0.0374664
0.0432407
0.0490743
0.0549506
0.0608654
0.0668244
0.0728421
0.0789413
0.0851518
0.0915078
0.098044
0.104787
0.111741
0.118878
0.126109
0.133273
0.0165023
0.0213661
0.0265707
0.0320188
0.0376336
0.0433601
0.049162
0.0550179
0.0609187
0.0668648
0.0728651
0.0789354
0.0850977
0.091378
0.0978033
0.104396
0.111165
0.118091
0.125113
0.132104
0.0162973
0.0212159
0.0264702
0.0319586
0.037603
0.0433492
0.0491623
0.0550217
0.0609173
0.0668471
0.0728157
0.0788332
0.0849151
0.0910816
0.0973567
0.103767
0.110338
0.11708
0.123979
0.130961
0.0153094
0.0204962
0.0259721
0.031632
0.0373991
0.0432275
0.0490917
0.0549778
0.0608791
0.0667938
0.0727232
0.0786718
0.084648
0.0906652
0.0967445
0.102919
0.109237
0.115755
0.122532
0.129601
0.013512
0.0192621
0.025157
0.0311175
0.0370864
0.0430434
0.0489849
0.0549117
0.0608252
0.0667255
0.0726117
0.078482
0.0843357
0.0901765
0.0960185
0.101898
0.107885
0.114094
0.120687
0.127915
0.0110128
0.0177326
0.0242424
0.0305926
0.0367943
0.042885
0.0489003
0.054863
0.060785
0.0666693
0.0725119
0.0783031
0.0840305
0.0896833
0.0952603
0.100789
0.106354
0.112122
0.118393
0.125836
0.00814182
0.0163288
0.0235678
0.0302985
0.0366785
0.0428468
0.0488944
0.0548669
0.0607842
0.0666491
0.0724523
0.0781743
0.0837882
0.089263
0.0945719
0.0997166
0.104785
0.109965
0.115675
0.123276
0.0066725
0.0164738
0.0239112
0.0306246
0.0369261
0.0430168
0.0490103
0.0549496
0.0608459
0.0666934
0.0724731
0.0781533
0.0836892
0.0890226
0.094084
0.0988187
0.10327
0.107491
0.11176
0.118581
0.0109971
0.0212392
0.0266861
0.0321391
0.0377513
0.0434736
0.0492804
0.0551336
0.0609992
0.0668463
0.07264
0.0783332
0.0838588
0.0891183
0.0939678
0.0982029
0.101552
0.103738
0.104161
0.107349
0.142306
0.148986
0.15466
0.159074
0.162083
0.16367
0.16395
0.163193
0.161847
0.160429
0.140127
0.146371
0.151727
0.155985
0.159026
0.160837
0.161519
0.16129
0.160407
0.15901
0.138841
0.14501
0.150334
0.154607
0.157714
0.159637
0.16046
0.16037
0.159489
0.157684
0.137818
0.144147
0.149634
0.154055
0.157288
0.159311
0.160199
0.160116
0.159104
0.156846
0.136792
0.143487
0.149304
0.153995
0.15743
0.159591
0.160551
0.160474
0.159354
0.15678
0.135751
0.14305
0.149362
0.154433
0.158138
0.160476
0.161539
0.161497
0.160336
0.157612
0.134846
0.143011
0.149941
0.155455
0.159456
0.16199
0.163179
0.16321
0.162086
0.159377
0.134424
0.143726
0.151313
0.157245
0.161496
0.16419
0.165497
0.165628
0.16461
0.162063
0.13469
0.145755
0.153941
0.160119
0.164441
0.167169
0.168531
0.168753
0.167885
0.165618
0.139852
0.151845
0.15919
0.164717
0.168571
0.171035
0.172305
0.17256
0.171854
0.169943
0.142334
0.149024
0.154706
0.159123
0.162133
0.163717
0.163989
0.163221
0.161863
0.160428
0.140097
0.146336
0.151688
0.155944
0.158986
0.160801
0.161487
0.161266
0.160404
0.158991
0.138842
0.145014
0.150339
0.154613
0.157719
0.15964
0.16046
0.160369
0.159506
0.157655
0.137823
0.144157
0.149645
0.154067
0.157299
0.15932
0.160201
0.160117
0.159129
0.15681
0.136798
0.143496
0.149313
0.154003
0.157437
0.159595
0.16055
0.160472
0.159383
0.156739
0.135761
0.143061
0.149371
0.154442
0.158144
0.160481
0.161537
0.161495
0.160368
0.15757
0.13487
0.143026
0.149952
0.155464
0.159463
0.161994
0.163176
0.163209
0.162118
0.159335
0.134554
0.143775
0.151331
0.157257
0.161501
0.164192
0.165494
0.165626
0.16464
0.162022
0.134987
0.145768
0.153918
0.160111
0.164434
0.167165
0.168526
0.16875
0.167912
0.165581
0.139768
0.151514
0.159043
0.164675
0.168554
0.171028
0.1723
0.172559
0.171876
0.169912
0.142334
0.149024
0.154706
0.159123
0.162133
0.163717
0.163989
0.163221
0.161863
0.160428
0.140097
0.146336
0.151688
0.155944
0.158986
0.160801
0.161487
0.161266
0.160404
0.158991
0.138842
0.145014
0.150339
0.154613
0.157719
0.15964
0.16046
0.160369
0.159506
0.157655
0.137823
0.144157
0.149645
0.154067
0.157299
0.15932
0.160201
0.160117
0.159129
0.15681
0.136798
0.143496
0.149313
0.154003
0.157437
0.159595
0.16055
0.160472
0.159383
0.156739
0.135761
0.143061
0.149371
0.154442
0.158144
0.160481
0.161537
0.161495
0.160368
0.15757
0.13487
0.143026
0.149952
0.155464
0.159463
0.161994
0.163176
0.163209
0.162118
0.159335
0.134554
0.143775
0.151331
0.157257
0.161501
0.164192
0.165494
0.165626
0.16464
0.162022
0.134987
0.145768
0.153918
0.160111
0.164434
0.167165
0.168526
0.16875
0.167912
0.165581
0.139768
0.151514
0.159043
0.164675
0.168554
0.171028
0.1723
0.172559
0.171876
0.169912
0.142306
0.148986
0.15466
0.159074
0.162083
0.16367
0.16395
0.163193
0.161847
0.160429
0.140127
0.146371
0.151727
0.155985
0.159026
0.160837
0.161518
0.16129
0.160407
0.15901
0.138841
0.14501
0.150334
0.154607
0.157714
0.159636
0.16046
0.16037
0.159489
0.157684
0.137818
0.144147
0.149634
0.154055
0.157288
0.159311
0.160199
0.160116
0.159104
0.156846
0.136792
0.143487
0.149304
0.153995
0.15743
0.159591
0.160551
0.160474
0.159354
0.15678
0.135751
0.14305
0.149362
0.154433
0.158138
0.160476
0.161539
0.161497
0.160336
0.157612
0.134846
0.143011
0.149941
0.155455
0.159456
0.16199
0.163179
0.16321
0.162086
0.159377
0.134424
0.143726
0.151313
0.157245
0.161496
0.16419
0.165497
0.165628
0.16461
0.162063
0.13469
0.145755
0.153941
0.160119
0.164441
0.167169
0.168531
0.168753
0.167885
0.165617
0.139852
0.151845
0.15919
0.164717
0.168571
0.171035
0.172305
0.17256
0.171854
0.169943
0.17138
0.167059
0.168537
0.171422
0.173938
0.175752
0.176755
0.176973
0.176413
0.174889
0.181589
0.176838
0.17671
0.178134
0.179685
0.180942
0.181682
0.18185
0.181426
0.180278
0.187
0.184251
0.183933
0.184634
0.185578
0.186421
0.186945
0.187069
0.186765
0.185949
0.192411
0.190941
0.19065
0.190977
0.191536
0.192083
0.19244
0.19253
0.192326
0.191782
0.197979
0.197224
0.197023
0.197177
0.197505
0.197851
0.198087
0.198151
0.198026
0.197694
0.203663
0.203311
0.2032
0.203276
0.203465
0.203676
0.203826
0.20387
0.203804
0.203633
0.209452
0.20933
0.209284
0.20932
0.209418
0.209531
0.209611
0.209636
0.209612
0.209563
0.215328
0.215357
0.215345
0.215344
0.215367
0.215395
0.215411
0.215408
0.215408
0.215457
0.221308
0.221432
0.22143
0.221381
0.22132
0.221256
0.221195
0.221149
0.221153
0.221276
0.227423
0.227609
0.227584
0.227457
0.227285
0.227101
0.226937
0.22682
0.226803
0.226977
0.233735
0.233942
0.233852
0.233599
0.23327
0.23292
0.232607
0.232382
0.23231
0.232501
0.240334
0.240497
0.240277
0.239834
0.239279
0.238698
0.23818
0.237793
0.237619
0.237775
0.247341
0.247347
0.246904
0.24618
0.245314
0.244424
0.243628
0.243015
0.242672
0.242709
0.254914
0.254562
0.253763
0.252642
0.25137
0.250085
0.248933
0.248018
0.247423
0.24721
0.263249
0.262172
0.26083
0.259204
0.257424
0.255668
0.254092
0.252805
0.251855
0.25119
0.272539
0.270159
0.268018
0.26576
0.263414
0.261158
0.259128
0.257409
0.255972
0.254627
0.282882
0.27825
0.275007
0.272068
0.269193
0.266515
0.26409
0.261933
0.259889
0.257527
0.293893
0.285648
0.28109
0.277624
0.274465
0.271639
0.269044
0.266554
0.263813
0.260035
0.305252
0.291412
0.285146
0.281533
0.278657
0.276288
0.274037
0.271528
0.268097
0.262466
0.318361
0.293113
0.284241
0.281696
0.280528
0.279894
0.279016
0.277181
0.273286
0.265386
0.172141
0.167193
0.168644
0.171484
0.173961
0.175762
0.176759
0.176976
0.176433
0.174867
0.181708
0.17678
0.176751
0.178173
0.179704
0.180953
0.181688
0.181854
0.181442
0.180262
0.187005
0.184189
0.18394
0.184652
0.185589
0.18643
0.18695
0.187073
0.186778
0.185939
0.19243
0.190916
0.190653
0.190986
0.191544
0.19209
0.192445
0.192534
0.192335
0.191776
0.197991
0.197213
0.197023
0.197181
0.197509
0.197856
0.198091
0.198154
0.198032
0.197691
0.203667
0.203305
0.203199
0.203277
0.203468
0.20368
0.203828
0.203872
0.203807
0.203632
0.209454
0.209329
0.209284
0.20932
0.209419
0.209533
0.209613
0.209638
0.209613
0.209563
0.215327
0.215358
0.215345
0.215344
0.215367
0.215396
0.215412
0.215409
0.215407
0.215458
0.221306
0.221435
0.22143
0.22138
0.22132
0.221256
0.221196
0.221149
0.22115
0.221278
0.22742
0.227613
0.227584
0.227456
0.227285
0.227101
0.226937
0.22682
0.226799
0.22698
0.23373
0.233947
0.233851
0.233598
0.233269
0.232919
0.232608
0.232382
0.232306
0.232506
0.240328
0.240502
0.240276
0.239832
0.239278
0.238698
0.23818
0.237793
0.237614
0.23778
0.247336
0.24735
0.246902
0.246178
0.245313
0.244423
0.243628
0.243016
0.242669
0.242714
0.25491
0.254558
0.253758
0.252639
0.251368
0.250084
0.248934
0.24802
0.247424
0.247215
0.263248
0.262157
0.260823
0.2592
0.257421
0.255667
0.254093
0.252808
0.251862
0.251193
0.27255
0.270124
0.268009
0.265757
0.26341
0.261157
0.259129
0.257414
0.255991
0.254624
0.282937
0.278188
0.275001
0.272067
0.269188
0.266514
0.264092
0.261941
0.259925
0.257515
0.293999
0.285491
0.281067
0.277622
0.274458
0.271639
0.269047
0.266567
0.263873
0.260008
0.305398
0.291064
0.285128
0.28157
0.278669
0.276299
0.274045
0.271549
0.268191
0.26242
0.319704
0.293188
0.284524
0.281886
0.280598
0.279928
0.279032
0.277212
0.273424
0.265312
0.172141
0.167193
0.168644
0.171484
0.173961
0.175762
0.176759
0.176976
0.176433
0.174867
0.181708
0.17678
0.176751
0.178173
0.179704
0.180953
0.181688
0.181854
0.181442
0.180262
0.187005
0.184189
0.18394
0.184652
0.185589
0.18643
0.18695
0.187073
0.186778
0.185939
0.19243
0.190916
0.190653
0.190986
0.191544
0.19209
0.192445
0.192534
0.192335
0.191776
0.197991
0.197213
0.197023
0.197181
0.197509
0.197856
0.198091
0.198154
0.198032
0.197691
0.203667
0.203305
0.203199
0.203277
0.203468
0.20368
0.203828
0.203872
0.203807
0.203632
0.209454
0.209329
0.209284
0.20932
0.209419
0.209533
0.209613
0.209638
0.209613
0.209563
0.215327
0.215358
0.215345
0.215344
0.215367
0.215396
0.215412
0.215409
0.215407
0.215458
0.221306
0.221435
0.22143
0.22138
0.22132
0.221256
0.221196
0.221149
0.22115
0.221278
0.22742
0.227613
0.227584
0.227456
0.227285
0.227101
0.226937
0.22682
0.226799
0.22698
0.23373
0.233947
0.233851
0.233598
0.233269
0.232919
0.232608
0.232382
0.232306
0.232506
0.240328
0.240502
0.240276
0.239832
0.239278
0.238698
0.23818
0.237793
0.237614
0.23778
0.247336
0.24735
0.246902
0.246178
0.245313
0.244423
0.243628
0.243016
0.242669
0.242714
0.25491
0.254558
0.253758
0.252639
0.251368
0.250084
0.248934
0.24802
0.247424
0.247215
0.263248
0.262157
0.260823
0.2592
0.257421
0.255667
0.254093
0.252808
0.251862
0.251193
0.27255
0.270124
0.268009
0.265757
0.26341
0.261157
0.259129
0.257414
0.255991
0.254624
0.282937
0.278188
0.275001
0.272067
0.269188
0.266514
0.264092
0.261941
0.259925
0.257515
0.293999
0.285491
0.281067
0.277622
0.274458
0.271639
0.269047
0.266567
0.263873
0.260008
0.305398
0.291064
0.285128
0.28157
0.278669
0.276299
0.274045
0.271549
0.268191
0.26242
0.319704
0.293188
0.284524
0.281886
0.280598
0.279928
0.279032
0.277212
0.273424
0.265312
0.17138
0.167059
0.168537
0.171422
0.173938
0.175752
0.176755
0.176973
0.176413
0.174889
0.181589
0.176838
0.17671
0.178134
0.179685
0.180942
0.181682
0.18185
0.181426
0.180278
0.187
0.184251
0.183933
0.184634
0.185578
0.186421
0.186945
0.187069
0.186765
0.185949
0.192411
0.190941
0.19065
0.190977
0.191536
0.192083
0.19244
0.19253
0.192326
0.191782
0.197979
0.197224
0.197023
0.197177
0.197505
0.197851
0.198087
0.198151
0.198026
0.197694
0.203663
0.203311
0.2032
0.203276
0.203465
0.203676
0.203826
0.20387
0.203804
0.203633
0.209452
0.20933
0.209284
0.20932
0.209418
0.209531
0.209611
0.209636
0.209612
0.209563
0.215328
0.215357
0.215345
0.215344
0.215367
0.215395
0.215411
0.215408
0.215408
0.215457
0.221308
0.221432
0.22143
0.221381
0.22132
0.221256
0.221195
0.221149
0.221153
0.221276
0.227423
0.227609
0.227584
0.227457
0.227285
0.227101
0.226937
0.22682
0.226803
0.226977
0.233735
0.233942
0.233852
0.233599
0.23327
0.23292
0.232607
0.232382
0.23231
0.232501
0.240334
0.240497
0.240277
0.239834
0.239279
0.238698
0.23818
0.237793
0.237619
0.237775
0.247341
0.247347
0.246904
0.24618
0.245314
0.244424
0.243628
0.243015
0.242672
0.242709
0.254914
0.254561
0.253763
0.252642
0.25137
0.250085
0.248933
0.248018
0.247423
0.24721
0.263249
0.262172
0.26083
0.259204
0.257424
0.255668
0.254092
0.252805
0.251855
0.25119
0.272539
0.270159
0.268018
0.26576
0.263414
0.261158
0.259128
0.257409
0.255972
0.254627
0.282882
0.27825
0.275007
0.272068
0.269193
0.266515
0.26409
0.261933
0.259889
0.257527
0.293893
0.285648
0.28109
0.277624
0.274465
0.271639
0.269044
0.266554
0.263813
0.260035
0.305252
0.291412
0.285146
0.281533
0.278657
0.276288
0.274037
0.271528
0.268097
0.262466
0.318361
0.293113
0.284241
0.281696
0.280528
0.279894
0.279016
0.277181
0.273286
0.265386
0.255492
0.264033
0.27037
0.274835
0.278513
0.281777
0.283921
0.283964
0.280193
0.269737
0.226689
0.243123
0.254861
0.264589
0.273661
0.282183
0.289042
0.292598
0.290036
0.277036
0.209657
0.225476
0.239097
0.252611
0.26691
0.281613
0.294931
0.304132
0.304585
0.289689
0.196269
0.210313
0.224525
0.240752
0.259848
0.281281
0.302743
0.320215
0.326473
0.311615
0.186271
0.198812
0.213181
0.231456
0.254883
0.283303
0.314472
0.343359
0.359647
0.349312
0.180021
0.191929
0.206789
0.227074
0.254677
0.290323
0.332753
0.376933
0.409749
0.413018
0.17748
0.189884
0.20608
0.228904
0.261022
0.304485
0.360059
0.42444
0.483492
0.517273
0.177904
0.191651
0.209862
0.235765
0.272928
0.325159
0.396319
0.486625
0.586224
0.68951
0.179684
0.194585
0.214226
0.242162
0.282913
0.342517
0.429449
0.552075
0.720501
1.00017
0.181241
0.195663
0.21418
0.240197
0.27849
0.336539
0.428484
0.581975
0.86788
1.48474
0.255807
0.263536
0.270244
0.274817
0.278507
0.281783
0.283925
0.283998
0.280386
0.269626
0.227142
0.243081
0.254816
0.264559
0.27364
0.282178
0.289036
0.292636
0.290298
0.276884
0.209927
0.225502
0.239076
0.252577
0.266875
0.28159
0.294904
0.304169
0.304929
0.289494
0.196364
0.210303
0.224481
0.24069
0.25978
0.281218
0.302672
0.320236
0.326892
0.311375
0.186301
0.198784
0.213118
0.231364
0.254773
0.283183
0.314335
0.34334
0.360095
0.349052
0.180028
0.191894
0.206716
0.226958
0.254518
0.290121
0.332507
0.376817
0.410123
0.412961
0.177492
0.189862
0.206013
0.22878
0.260821
0.304165
0.359612
0.4241
0.483489
0.517752
0.177947
0.191683
0.209881
0.235762
0.272868
0.324946
0.395922
0.486248
0.584953
0.689186
0.179754
0.194694
0.214405
0.242446
0.283336
0.343067
0.430178
0.552662
0.717274
0.997862
0.181295
0.195709
0.214206
0.240208
0.27851
0.336619
0.428847
0.582421
0.864205
1.49399
0.255807
0.263536
0.270244
0.274817
0.278507
0.281783
0.283925
0.283998
0.280386
0.269626
0.227142
0.243081
0.254816
0.264559
0.27364
0.282178
0.289036
0.292636
0.290298
0.276884
0.209927
0.225502
0.239076
0.252577
0.266875
0.28159
0.294904
0.304169
0.304929
0.289494
0.196364
0.210303
0.224481
0.24069
0.25978
0.281218
0.302672
0.320236
0.326893
0.311375
0.186301
0.198784
0.213118
0.231364
0.254773
0.283183
0.314335
0.34334
0.360095
0.349052
0.180028
0.191894
0.206716
0.226958
0.254518
0.290121
0.332507
0.376817
0.410123
0.412961
0.177492
0.189862
0.206013
0.22878
0.260821
0.304165
0.359612
0.4241
0.483489
0.517752
0.177947
0.191683
0.209881
0.235762
0.272868
0.324946
0.395922
0.486248
0.584953
0.689186
0.179754
0.194694
0.214405
0.242446
0.283336
0.343067
0.430178
0.552662
0.717274
0.997862
0.181295
0.195709
0.214206
0.240208
0.27851
0.336619
0.428847
0.582421
0.864205
1.49399
0.255492
0.264033
0.27037
0.274835
0.278513
0.281777
0.283921
0.283964
0.280193
0.269737
0.226689
0.243123
0.254861
0.264589
0.273661
0.282183
0.289042
0.292598
0.290036
0.277036
0.209657
0.225476
0.239097
0.252611
0.26691
0.281613
0.294931
0.304132
0.304586
0.289689
0.196269
0.210313
0.224525
0.240752
0.259848
0.281281
0.302743
0.320215
0.326473
0.311615
0.186271
0.198812
0.213181
0.231456
0.254883
0.283303
0.314472
0.343359
0.359647
0.349312
0.180021
0.191929
0.206789
0.227074
0.254677
0.290323
0.332753
0.376933
0.409749
0.413018
0.17748
0.189884
0.20608
0.228904
0.261022
0.304485
0.360059
0.42444
0.483492
0.517273
0.177904
0.191651
0.209862
0.235765
0.272928
0.325159
0.396319
0.486625
0.586224
0.68951
0.179684
0.194585
0.214226
0.242162
0.282913
0.342517
0.429449
0.552075
0.720501
1.00017
0.181241
0.195663
0.21418
0.240197
0.27849
0.336539
0.428484
0.581975
0.86788
1.48474
-0.148579
-0.128193
-0.110617
-0.0942875
-0.0778744
-0.0612158
-0.0443299
-0.0272682
-0.0101014
0.00709292
0.0242336
0.0412389
0.0580255
0.0745464
0.0908079
0.106977
0.123513
0.141411
0.163912
0.20128
-0.135707
-0.122233
-0.107824
-0.0926634
-0.0768202
-0.060503
-0.0438448
-0.0269447
-0.00988954
0.0072424
0.02438
0.0414607
0.0584445
0.0753186
0.0921514
0.109146
0.126703
0.145454
0.16695
0.194955
-0.133029
-0.120908
-0.107171
-0.0923143
-0.0766499
-0.0604281
-0.0438134
-0.0269241
-0.00985303
0.00732439
0.024545
0.0417564
0.0589226
0.0760329
0.0931253
0.110321
0.127848
0.146029
0.165484
0.187286
-0.134535
-0.122036
-0.108055
-0.0930168
-0.0772126
-0.0608673
-0.0441394
-0.0271425
-0.00996068
0.00734113
0.02471
0.0420998
0.0594689
0.0767816
0.0940124
0.111156
0.128228
0.145251
0.162322
0.17961
-0.137662
-0.124372
-0.109809
-0.0943278
-0.078187
-0.0615811
-0.0446462
-0.0274764
-0.0101381
0.00731983
0.024856
0.0424282
0.0599845
0.0774547
0.0947425
0.111719
0.128218
0.144039
0.159016
0.173113
-0.14066
-0.126604
-0.111456
-0.0955282
-0.0790517
-0.0621931
-0.0450646
-0.0277395
-0.0102666
0.00731859
0.0249831
0.0426845
0.0603575
0.0778991
0.0951539
0.111904
0.127871
0.142748
0.156307
0.168583
-0.141799
-0.127359
-0.111955
-0.0958521
-0.0792557
-0.0623134
-0.0451232
-0.0277484
-0.0102301
0.00740028
0.0251099
0.0428505
0.0605433
0.0780618
0.0952164
0.111748
0.127343
0.141691
0.154614
0.166285
-0.140106
-0.125915
-0.110788
-0.0949408
-0.0785594
-0.0617873
-0.0447262
-0.0274463
-0.00999679
0.00758246
0.0252491
0.0429442
0.0605769
0.0780088
0.0950411
0.111415
0.126839
0.141058
0.153995
0.165962
-0.135558
-0.122418
-0.108174
-0.0930281
-0.0771813
-0.0608048
-0.0440309
-0.0269576
-0.0096578
0.00780975
0.0253883
0.0430063
0.0605647
0.0779237
0.0948911
0.111227
0.126676
0.141038
0.154306
0.166857
-0.12789
-0.116938
-0.104335
-0.0903831
-0.0753834
-0.0595963
-0.0432272
-0.0264306
-0.00931973
0.00801883
0.0255108
0.0430811
0.0606325
0.0780303
0.0950941
0.111597
0.127291
0.141967
0.155574
0.16839
-0.148873
-0.128056
-0.1106
-0.0943073
-0.0778857
-0.0612227
-0.0443349
-0.0272714
-0.010103
0.00709259
0.0242341
0.0412396
0.0580256
0.0745438
0.0907985
0.106957
0.12349
0.141366
0.163576
0.200585
-0.135652
-0.122079
-0.107756
-0.0926294
-0.0767951
-0.0604852
-0.0438327
-0.0269364
-0.00988429
0.0072455
0.0243821
0.0414631
0.0584493
0.0753289
0.0921703
0.109178
0.126764
0.145534
0.166858
0.194681
-0.133083
-0.120883
-0.107147
-0.0922961
-0.0766354
-0.0604178
-0.0438062
-0.0269191
-0.00984956
0.00732672
0.0245465
0.0417574
0.0589232
0.076033
0.0931237
0.110316
0.127842
0.146012
0.165391
0.18719
-0.13457
-0.122031
-0.108044
-0.0930064