/*--------------------------------*- C++ -*----------------------------------*\
| =========                 |                                                 |
| \\      /  F ield         | OpenFOAM: The Open Source CFD Toolbox           |
|  \\    /   O peration     | Version:  2.4.0                                 |
|   \\  /    A nd           | Web:      www.OpenFOAM.org                      |
|    \\/     M anipulation  |                                                 |
\*---------------------------------------------------------------------------*/
FoamFile
{
    version     2.0;
    format      ascii;
    class       surfaceScalarField;
    location    "1.1";
    object      phi;
}
// * * * * * * * * * * * * * * * * * * * * * * * * * * * * * * * * * * * * * //

dimensions      [0 3 -1 0 0 0 0];

internalField   nonuniform List<scalar> 
12720
(
7.76997e-08
-7.72782e-08
1.53642e-10
-6.10998e-07
6.87112e-07
1.58713e-09
-2.02802e-06
1.41467e-06
2.34856e-09
-3.94135e-06
1.91034e-06
2.99493e-09
-6.1426e-06
2.19789e-06
3.3585e-09
-8.46399e-06
2.31789e-06
3.4952e-09
-1.07677e-05
2.30025e-06
3.48481e-09
-1.29337e-05
2.16269e-06
3.32698e-09
-1.48566e-05
1.91985e-06
2.9991e-09
1.59675e-06
2.484e-09
-1.64558e-05
-7.11965e-07
6.35953e-07
-1.26789e-09
-3.07833e-06
3.05316e-06
3.21718e-10
-6.84655e-06
5.18435e-06
-1.4582e-09
-1.16333e-05
6.6993e-06
-2.20375e-09
-1.70489e-05
7.61602e-06
-2.55747e-09
-2.27355e-05
8.00733e-06
-2.78124e-09
-2.83702e-05
7.93767e-06
-2.77744e-09
-3.36599e-05
7.45494e-06
-2.57883e-09
-3.83499e-05
6.61219e-06
-2.26367e-09
5.5016e-06
-1.95459e-09
-4.22528e-05
-1.5364e-06
2.17461e-06
-2.25233e-09
-5.46768e-06
6.98242e-06
2.01741e-09
-1.12298e-05
1.09464e-05
7.76794e-11
-1.82971e-05
1.37667e-05
-8.92681e-11
-2.61691e-05
1.54879e-05
1.09446e-10
-3.43754e-05
1.62136e-05
1.07659e-10
-4.24716e-05
1.60337e-05
1.17773e-10
-5.00379e-05
1.5021e-05
1.64199e-10
-5.66988e-05
1.32729e-05
2.14447e-10
1.09762e-05
1.20702e-10
-6.21736e-05
-2.17443e-06
4.35224e-06
-3.20012e-09
-7.37234e-06
1.21776e-05
2.76143e-09
-1.47209e-05
1.82949e-05
5.58415e-12
-2.35496e-05
2.25956e-05
-2.05286e-10
-3.32729e-05
2.52111e-05
1.30559e-10
-4.33477e-05
2.62882e-05
1.76744e-10
-5.32452e-05
2.5931e-05
2.149e-10
-6.24425e-05
2.4218e-05
3.01475e-10
-7.04468e-05
2.12767e-05
4.5998e-10
1.73964e-05
3.9149e-10
-7.68673e-05
-2.60078e-06
6.95683e-06
-3.81649e-09
-8.68226e-06
1.82559e-05
3.17742e-09
-1.71439e-05
2.67568e-05
-3.3843e-10
-2.72009e-05
3.26534e-05
-7.31224e-10
-3.8208e-05
3.62186e-05
-3.97926e-10
-4.95761e-05
3.76566e-05
-3.61708e-10
-6.07168e-05
3.70721e-05
-3.04199e-10
-7.10155e-05
3.45168e-05
-1.37217e-10
-7.98448e-05
3.01057e-05
3.44531e-10
2.42024e-05
5.64153e-10
-8.66514e-05
-2.81377e-06
9.7747e-06
-4.08965e-09
-9.35717e-06
2.47958e-05
3.47138e-09
-1.84112e-05
3.58113e-05
-4.30344e-10
-2.9129e-05
4.33721e-05
-9.15237e-10
-4.08368e-05
4.79269e-05
-5.91972e-10
-5.29274e-05
4.97479e-05
-5.74199e-10
-6.47793e-05
4.89245e-05
-5.48082e-10
-7.5699e-05
4.54369e-05
-4.15112e-10
-8.4901e-05
3.93072e-05
5.51692e-10
3.08668e-05
1.47039e-09
-9.15669e-05
-2.8176e-06
1.25964e-05
-4.06497e-09
-9.38777e-06
3.13625e-05
3.5247e-09
-1.84832e-05
4.49072e-05
-4.5452e-10
-2.92509e-05
5.41408e-05
-9.95119e-10
-4.1022e-05
5.96987e-05
-7.25701e-10
-5.32014e-05
6.1928e-05
-7.49191e-10
-6.51693e-05
6.08933e-05
-8.29169e-10
-7.61881e-05
5.64567e-05
-1.00769e-09
-8.53125e-05
4.84308e-05
7.14683e-10
3.68584e-05
3.64057e-09
-9.13077e-05
-2.62299e-06
1.52231e-05
-3.7432e-09
-8.79465e-06
3.75308e-05
3.35576e-09
-1.7373e-05
5.34859e-05
-4.17489e-10
-2.75436e-05
6.43124e-05
-9.74707e-10
-3.86637e-05
7.08196e-05
-7.8206e-10
-5.017e-05
7.34351e-05
-8.00366e-10
-6.14826e-05
7.22068e-05
-8.99414e-10
-7.18844e-05
6.68602e-05
-1.61405e-09
-8.03431e-05
5.68876e-05
2.00561e-09
4.15393e-05
1.28151e-08
-8.50369e-05
-2.25502e-06
1.74813e-05
-3.14122e-09
-7.64781e-06
4.29205e-05
3.02619e-09
-1.51874e-05
6.10258e-05
-2.9516e-10
-2.41176e-05
7.32435e-05
-8.37559e-10
-3.38135e-05
8.05162e-05
-7.91812e-10
-4.37253e-05
8.33478e-05
-9.15911e-10
-5.33114e-05
8.17942e-05
-1.28802e-09
-6.19265e-05
7.54796e-05
-4.29505e-09
-6.86493e-05
6.36115e-05
-1.0992e-09
4.39399e-05
2.87668e-08
-7.10787e-05
-1.76236e-06
-2.31619e-09
1.92459e-05
-6.09276e-06
2.61879e-09
4.72483e-05
-1.21833e-05
-4.62732e-11
6.71164e-05
-1.93287e-05
-4.85847e-10
8.03893e-05
-2.68733e-05
-5.68335e-10
8.80614e-05
-3.41825e-05
-9.47472e-10
9.0658e-05
-4.06075e-05
-2.10866e-09
8.82212e-05
-4.53729e-05
-1.13168e-08
8.02563e-05
-4.74564e-05
-2.57714e-08
6.57208e-05
7.32385e-09
-4.56024e-05
4.20785e-05
7.97208e-08
-7.95834e-08
1.70409e-11
-6.1138e-07
6.92678e-07
9.75861e-12
-2.02867e-06
1.41963e-06
6.96865e-12
-3.94147e-06
1.91579e-06
5.25962e-12
-6.14248e-06
2.20437e-06
3.36848e-12
-8.46385e-06
2.32486e-06
2.42764e-12
-1.07677e-05
2.3073e-06
2.05537e-12
-1.29338e-05
2.16948e-06
1.33696e-12
-1.48569e-05
1.92605e-06
1.19876e-12
1.60189e-06
1.16424e-12
-1.64563e-05
-7.17155e-07
6.36292e-07
9.98078e-12
-3.08322e-06
3.05905e-06
7.62963e-12
-6.85078e-06
5.18573e-06
5.78586e-12
-1.16362e-05
6.69901e-06
5.04726e-12
-1.70502e-05
7.61581e-06
3.23372e-12
-2.27355e-05
8.00738e-06
2.07692e-12
-2.83691e-05
7.93807e-06
2.09454e-12
-3.3658e-05
7.45581e-06
1.50323e-12
-3.83477e-05
6.61356e-06
1.11414e-12
5.50282e-06
1.10187e-12
-4.22506e-05
-1.54148e-06
2.17552e-06
5.83713e-12
-5.46846e-06
6.98805e-06
5.92114e-12
-1.12305e-05
1.09478e-05
4.6841e-12
-1.8298e-05
1.37664e-05
4.13856e-12
-2.61695e-05
1.54874e-05
3.14075e-12
-3.43754e-05
1.62134e-05
2.41899e-12
-4.24712e-05
1.6034e-05
2.16114e-12
-5.00372e-05
1.5022e-05
1.57203e-12
-5.66984e-05
1.32749e-05
1.36864e-12
1.0978e-05
1.35833e-12
-6.21734e-05
-2.18044e-06
4.35275e-06
3.32043e-12
-7.37146e-06
1.21818e-05
3.63611e-12
-1.47199e-05
1.82963e-05
3.33436e-12
-2.35494e-05
2.25957e-05
3.28746e-12
-3.32728e-05
2.5211e-05
2.59693e-12
-4.33476e-05
2.62883e-05
2.07002e-12
-5.32449e-05
2.59315e-05
1.95272e-12
-6.24422e-05
2.42195e-05
1.59842e-12
-7.0447e-05
2.12802e-05
1.4567e-12
1.73998e-05
1.32556e-12
-7.68684e-05
-2.6081e-06
6.95703e-06
2.48238e-12
-8.6812e-06
1.82581e-05
3.30878e-12
-1.71426e-05
2.67573e-05
2.8466e-12
-2.72007e-05
3.2653e-05
2.91929e-12
-3.8208e-05
3.62179e-05
2.46234e-12
-4.9576e-05
3.7656e-05
2.10481e-12
-6.07166e-05
3.70718e-05
1.98698e-12
-7.10149e-05
3.45177e-05
1.70918e-12
-7.9845e-05
3.01107e-05
1.48842e-12
2.42088e-05
1.22169e-12
-8.66534e-05
-2.82176e-06
9.7747e-06
2.14264e-12
-9.3561e-06
2.47959e-05
2.98797e-12
-1.841e-05
3.58108e-05
2.49572e-12
-2.9129e-05
4.33711e-05
2.62787e-12
-4.08371e-05
4.79255e-05
2.35171e-12
-5.2928e-05
4.97463e-05
2.0793e-12
-6.47796e-05
4.89228e-05
1.90297e-12
-7.56984e-05
4.54361e-05
1.69154e-12
-8.4901e-05
3.93139e-05
1.4804e-12
3.088e-05
1.14863e-12
-9.15708e-05
-2.8256e-06
1.25962e-05
1.6549e-12
-9.38681e-06
3.13606e-05
2.18358e-12
-1.84823e-05
4.49058e-05
2.05144e-12
-2.92514e-05
5.41392e-05
2.24607e-12
-4.10232e-05
5.96965e-05
2.09756e-12
-5.32031e-05
6.19254e-05
1.86605e-12
-6.51708e-05
6.08897e-05
1.64661e-12
-7.61877e-05
5.6452e-05
1.55581e-12
-8.53114e-05
4.84383e-05
1.48057e-12
3.68875e-05
1.15954e-12
-9.13153e-05
-2.63041e-06
1.52229e-05
1.6467e-12
-8.79385e-06
3.75274e-05
1.9915e-12
-1.73725e-05
5.3484e-05
2.03585e-12
-2.75448e-05
6.43106e-05
2.12189e-12
-3.86661e-05
7.0817e-05
1.99779e-12
-5.01733e-05
7.34318e-05
1.76308e-12
-6.14859e-05
7.22015e-05
1.4872e-12
-7.18836e-05
6.68481e-05
1.41351e-12
-8.03316e-05
5.68883e-05
1.39533e-12
4.1614e-05
1.20247e-12
-8.50453e-05
-2.2613e-06
1.74811e-05
1.35459e-12
-7.6471e-06
4.29163e-05
1.81804e-12
-1.51872e-05
6.10238e-05
1.82295e-12
-2.41196e-05
7.32422e-05
1.82271e-12
-3.38179e-05
8.05146e-05
1.79057e-12
-4.37328e-05
8.33458e-05
1.70123e-12
-5.33239e-05
8.17912e-05
1.44704e-12
-6.19429e-05
7.54628e-05
1.20879e-12
-6.86268e-05
6.3571e-05
1.09493e-12
4.40472e-05
1.07061e-12
-7.10312e-05
-1.76701e-06
1.18461e-12
1.92457e-05
-6.09178e-06
1.55401e-12
4.72436e-05
-1.21826e-05
1.50917e-12
6.71145e-05
-1.93298e-05
1.46954e-12
8.03889e-05
-2.68778e-05
1.55199e-12
8.8062e-05
-3.41936e-05
1.69175e-12
9.06606e-05
-4.06338e-05
1.54819e-12
8.82294e-05
-4.5452e-05
1.21815e-12
8.02697e-05
-4.75811e-05
8.64449e-13
6.56744e-05
9.13322e-13
-4.53975e-05
4.18708e-05
7.96919e-08
-7.96121e-08
-6.29678e-11
-6.11403e-07
6.92658e-07
-1.55163e-09
-2.02868e-06
1.41961e-06
-2.33349e-09
-3.94148e-06
1.91578e-06
-2.98732e-09
-6.14249e-06
2.20437e-06
-3.3537e-09
-8.46386e-06
2.32486e-06
-3.49175e-09
-1.07677e-05
2.3073e-06
-3.48238e-09
-1.29338e-05
2.16948e-06
-3.32499e-09
-1.48569e-05
1.92605e-06
-2.99758e-09
1.60189e-06
-2.48265e-09
-1.64563e-05
-7.17176e-07
6.36267e-07
1.30498e-09
-3.08324e-06
3.05903e-06
-3.01283e-10
-6.8508e-06
5.18571e-06
1.47053e-09
-1.16362e-05
6.69899e-06
2.21106e-09
-1.70502e-05
7.61581e-06
2.56266e-09
-2.27355e-05
8.00738e-06
2.78537e-09
-2.83691e-05
7.93807e-06
2.78016e-09
-3.3658e-05
7.45581e-06
2.5811e-09
-3.83477e-05
6.61356e-06
2.26567e-09
5.50282e-06
1.95615e-09
-4.22506e-05
-1.54149e-06
2.1755e-06
2.26925e-09
-5.46848e-06
6.98802e-06
-2.00484e-09
-1.12305e-05
1.09478e-05
-6.84038e-11
-1.8298e-05
1.37664e-05
9.57733e-11
-2.61695e-05
1.54874e-05
-1.0461e-10
-3.43754e-05
1.62134e-05
-1.03758e-10
-4.24712e-05
1.6034e-05
-1.1485e-10
-5.00372e-05
1.5022e-05
-1.61801e-10
-5.66984e-05
1.32749e-05
-2.12481e-10
1.0978e-05
-1.19039e-10
-6.21734e-05
-2.18045e-06
4.35274e-06
3.20968e-09
-7.37147e-06
1.21818e-05
-2.7527e-09
-1.47199e-05
1.82963e-05
1.42762e-12
-2.35494e-05
2.25956e-05
2.10738e-10
-3.32728e-05
2.5211e-05
-1.26058e-10
-4.33476e-05
2.62883e-05
-1.72993e-10
-5.32449e-05
2.59315e-05
-2.1207e-10
-6.24422e-05
2.42195e-05
-2.99135e-10
-7.0447e-05
2.12802e-05
-4.57972e-10
1.73998e-05
-3.89745e-10
-7.68684e-05
-2.6081e-06
6.95702e-06
3.82269e-09
-8.6812e-06
1.82581e-05
-3.17139e-09
-1.71426e-05
2.67573e-05
3.4385e-10
-2.72007e-05
3.2653e-05
7.35673e-10
-3.8208e-05
3.62179e-05
4.01793e-10
-4.9576e-05
3.7656e-05
3.65038e-10
-6.07166e-05
3.70718e-05
3.06812e-10
-7.10149e-05
3.45177e-05
1.39392e-10
-7.9845e-05
3.01107e-05
-3.42644e-10
2.42088e-05
-5.6248e-10
-8.66534e-05
-2.82176e-06
9.77469e-06
4.09419e-09
-9.3561e-06
2.47959e-05
-3.46698e-09
-1.841e-05
3.58108e-05
4.34553e-10
-2.9129e-05
4.3371e-05
9.18888e-10
-4.08371e-05
4.79254e-05
5.95255e-10
-5.2928e-05
4.97463e-05
5.77093e-10
-6.47796e-05
4.89228e-05
5.50431e-10
-7.56983e-05
4.54361e-05
4.17016e-10
-8.4901e-05
3.93139e-05
-5.50081e-10
3.088e-05
-1.46891e-09
-9.15708e-05
-2.8256e-06
1.25962e-05
4.06871e-09
-9.38681e-06
3.13606e-05
-3.52087e-09
-1.84823e-05
4.49058e-05
4.58042e-10
-2.92514e-05
5.41392e-05
9.98369e-10
-4.10232e-05
5.96965e-05
7.28654e-10
-5.32031e-05
6.19254e-05
7.51805e-10
-6.51708e-05
6.08897e-05
8.3137e-10
-7.61877e-05
5.6452e-05
1.00945e-09
-8.53114e-05
4.84383e-05
-7.13287e-10
3.68875e-05
-3.63932e-09
-9.13153e-05
-2.63041e-06
1.52229e-05
3.74625e-09
-8.79384e-06
3.75274e-05
-3.35269e-09
-1.73725e-05
5.3484e-05
4.20384e-10
-2.75448e-05
6.43106e-05
9.77465e-10
-3.86661e-05
7.0817e-05
7.8455e-10
-5.01733e-05
7.34318e-05
8.02607e-10
-6.14859e-05
7.22014e-05
9.01436e-10
-7.18836e-05
6.68481e-05
1.61575e-09
-8.03316e-05
5.68883e-05
-2.00431e-09
4.1614e-05
-1.2814e-08
-8.50453e-05
-2.2613e-06
1.7481e-05
3.14377e-09
-7.6471e-06
4.29162e-05
-3.02373e-09
-1.51872e-05
6.10238e-05
2.97616e-10
-2.41196e-05
7.32422e-05
8.399e-10
-3.38179e-05
8.05145e-05
7.93876e-10
-4.37328e-05
8.33458e-05
9.1776e-10
-5.33239e-05
8.17912e-05
1.28981e-09
-6.19429e-05
7.54628e-05
4.29673e-09
-6.86268e-05
6.3571e-05
1.10064e-09
4.40472e-05
-2.87658e-08
-7.10312e-05
-1.76701e-06
2.3182e-09
1.92457e-05
-6.09178e-06
-2.61665e-09
4.72436e-05
-1.21826e-05
4.83643e-11
6.71145e-05
-1.93298e-05
4.8787e-10
8.03889e-05
-2.68778e-05
5.70135e-10
8.8062e-05
-3.41936e-05
9.4902e-10
9.06606e-05
-4.06338e-05
2.11011e-09
8.82294e-05
-4.5452e-05
1.13183e-08
8.02696e-05
-4.75812e-05
2.57729e-08
6.56744e-05
-7.32253e-09
-4.53975e-05
4.18708e-05
7.74553e-08
-7.75181e-08
-6.11109e-07
6.87021e-07
-2.02807e-06
1.41463e-06
-3.94138e-06
1.91032e-06
-6.14262e-06
2.19788e-06
-8.46399e-06
2.31788e-06
-1.07677e-05
2.30025e-06
-1.29337e-05
2.16269e-06
-1.48566e-05
1.91985e-06
1.59674e-06
-1.64558e-05
-7.12061e-07
6.35839e-07
-3.07842e-06
3.05307e-06
-6.84661e-06
5.1843e-06
-1.16333e-05
6.69926e-06
-1.70489e-05
7.616e-06
-2.27355e-05
8.00732e-06
-2.83702e-05
7.93766e-06
-3.36598e-05
7.45493e-06
-3.83499e-05
6.61219e-06
5.5016e-06
-4.22528e-05
-1.53644e-06
2.17455e-06
-5.46773e-06
6.98235e-06
-1.12298e-05
1.09463e-05
-1.82971e-05
1.37667e-05
-2.61691e-05
1.54878e-05
-3.43754e-05
1.62136e-05
-4.24716e-05
1.60337e-05
-5.00378e-05
1.5021e-05
-5.66988e-05
1.32729e-05
1.09762e-05
-6.21735e-05
-2.17445e-06
4.35221e-06
-7.37237e-06
1.21775e-05
-1.47209e-05
1.82948e-05
-2.35496e-05
2.25956e-05
-3.32729e-05
2.52111e-05
-4.33477e-05
2.62882e-05
-5.32452e-05
2.5931e-05
-6.24425e-05
2.4218e-05
-7.04467e-05
2.12767e-05
1.73964e-05
-7.68673e-05
-2.60078e-06
6.95681e-06
-8.68227e-06
1.82558e-05
-1.71439e-05
2.67568e-05
-2.72009e-05
3.26534e-05
-3.8208e-05
3.62186e-05
-4.95761e-05
3.76566e-05
-6.07168e-05
3.70721e-05
-7.10155e-05
3.45168e-05
-7.98448e-05
3.01057e-05
2.42024e-05
-8.66513e-05
-2.81377e-06
9.77468e-06
-9.35717e-06
2.47958e-05
-1.84112e-05
3.58113e-05
-2.9129e-05
4.33721e-05
-4.08367e-05
4.79269e-05
-5.29274e-05
4.97479e-05
-6.47793e-05
4.89245e-05
-7.5699e-05
4.54369e-05
-8.4901e-05
3.93072e-05
3.08668e-05
-9.15669e-05
-2.8176e-06
1.25963e-05
-9.38777e-06
3.13624e-05
-1.84832e-05
4.49071e-05
-2.92509e-05
5.41408e-05
-4.1022e-05
5.96987e-05
-5.32013e-05
6.1928e-05
-6.51693e-05
6.08933e-05
-7.61881e-05
5.64567e-05
-8.53125e-05
4.84308e-05
3.68584e-05
-9.13076e-05
-2.62299e-06
1.52231e-05
-8.79465e-06
3.75307e-05
-1.7373e-05
5.34859e-05
-2.75436e-05
6.43124e-05
-3.86637e-05
7.08195e-05
-5.017e-05
7.34351e-05
-6.14825e-05
7.22067e-05
-7.18844e-05
6.68602e-05
-8.03431e-05
5.68876e-05
4.15393e-05
-8.50368e-05
-2.25502e-06
1.74812e-05
-7.6478e-06
4.29205e-05
-1.51874e-05
6.10258e-05
-2.41176e-05
7.32435e-05
-3.38135e-05
8.05162e-05
-4.37252e-05
8.33478e-05
-5.33114e-05
8.17941e-05
-6.19265e-05
7.54796e-05
-6.86493e-05
6.36115e-05
4.39399e-05
-7.10787e-05
-1.76236e-06
1.92459e-05
-6.09275e-06
4.72483e-05
-1.21833e-05
6.71164e-05
-1.93286e-05
8.03893e-05
-2.68733e-05
8.80614e-05
-3.41825e-05
9.0658e-05
-4.06075e-05
8.82212e-05
-4.53729e-05
8.02563e-05
-4.74564e-05
6.57207e-05
-4.56024e-05
4.20785e-05
-1.76959e-05
1.23828e-06
1.84386e-09
-1.85975e-05
9.00273e-07
1.26754e-09
-1.92179e-05
6.19568e-07
8.20764e-10
-1.96269e-05
4.08473e-07
5.02897e-10
-1.98899e-05
2.6273e-07
2.95535e-10
-2.00606e-05
1.70524e-07
1.72159e-10
-2.01796e-05
1.18935e-07
1.08055e-10
-2.02769e-05
9.71648e-08
8.43433e-11
-2.03742e-05
9.72901e-08
8.84072e-11
-2.0488e-05
1.13599e-07
1.12809e-10
-2.06294e-05
1.41243e-07
1.52976e-10
-2.08041e-05
1.74556e-07
2.0441e-10
-2.10096e-05
2.05183e-07
2.6025e-10
-2.12301e-05
2.20236e-07
3.08101e-10
-2.14314e-05
2.00927e-07
3.27506e-10
-2.15544e-05
1.22737e-07
2.90517e-10
-2.15107e-05
-4.38104e-08
1.54598e-10
-2.11897e-05
-3.20863e-07
-1.41324e-10
-2.04691e-05
-7.19952e-07
-6.4754e-10
-1.22048e-06
-1.39746e-09
-1.92473e-05
-4.52913e-05
4.2785e-06
-1.7275e-09
-4.75193e-05
3.12967e-06
-1.43425e-09
-4.90738e-05
2.17525e-06
-1.12144e-09
-5.01185e-05
1.45392e-06
-8.41885e-10
-5.08058e-05
9.50677e-07
-6.1364e-10
-5.12612e-05
6.26366e-07
-4.44469e-10
-5.15801e-05
4.38196e-07
-3.32474e-10
-5.18324e-05
3.49748e-07
-2.69751e-10
-5.20682e-05
3.33297e-07
-2.46178e-10
-5.23221e-05
3.67785e-07
-2.50336e-10
-5.26153e-05
4.3467e-07
-2.69213e-10
-5.29532e-05
5.12768e-07
-2.87494e-10
-5.33204e-05
5.72686e-07
-2.85062e-10
-5.36715e-05
5.71585e-07
-2.34765e-10
-5.39202e-05
4.49644e-07
-1.03366e-10
-5.39283e-05
1.3077e-07
1.39961e-10
-5.3504e-05
-4.68676e-07
5.17447e-10
-5.24079e-05
-1.41803e-06
1.03307e-09
-5.03904e-05
-2.73903e-06
1.64494e-09
-4.3615e-06
2.21069e-09
-4.72516e-05
-6.6355e-05
8.46015e-06
-2.326e-10
-6.93561e-05
6.13115e-06
-3.82325e-10
-7.14091e-05
4.22871e-06
-4.06294e-10
-7.27665e-05
2.81163e-06
-3.78089e-10
-7.36485e-05
1.83305e-06
-3.17344e-10
-7.42268e-05
1.20494e-06
-2.49064e-10
-7.46265e-05
8.38012e-07
-1.88713e-10
-7.49355e-05
6.58882e-07
-1.41525e-10
-7.52146e-05
6.12561e-07
-1.0753e-10
-7.55043e-05
6.57507e-07
-8.39445e-11
-7.58269e-05
7.57382e-07
-6.62739e-11
-7.61855e-05
8.71412e-07
-4.94767e-11
-7.6557e-05
9.442e-07
-2.75938e-11
-7.68815e-05
8.96066e-07
6.8028e-12
-7.70481e-05
6.16162e-07
6.2341e-11
-7.68802e-05
-3.72676e-08
1.43334e-10
-7.61272e-05
-1.22192e-06
2.41893e-10
-7.44713e-05
-3.07429e-06
3.61344e-10
-7.15664e-05
-5.64439e-06
4.76171e-10
-8.80733e-06
3.97346e-10
-6.71209e-05
-8.15627e-05
1.31558e-05
-3.32852e-10
-8.47594e-05
9.3284e-06
-5.30207e-10
-8.68319e-05
6.30173e-06
-5.14512e-10
-8.81348e-05
4.11492e-06
-4.52022e-10
-8.89441e-05
2.64276e-06
-3.56588e-10
-8.94543e-05
1.71537e-06
-2.6192e-10
-8.97948e-05
1.17867e-06
-1.8483e-10
-9.00501e-05
9.14273e-07
-1.27132e-10
-9.02749e-05
8.37521e-07
-8.63313e-11
-9.05042e-05
8.86792e-07
-5.86538e-11
-9.07566e-05
1.00984e-06
-3.98162e-11
-9.10343e-05
1.14919e-06
-2.60163e-11
-9.13171e-05
1.22697e-06
-1.33927e-11
-9.15509e-05
1.12992e-06
3.44054e-12
-9.16317e-05
6.96894e-07
3.39358e-11
-9.13835e-05
-2.8558e-07
8.74351e-11
-9.05372e-05
-2.0684e-06
1.65108e-10
-8.8721e-05
-4.89078e-06
2.85212e-10
-8.54846e-05
-8.88125e-06
4.89862e-10
-1.38982e-05
4.20484e-10
-8.03941e-05
-9.12219e-05
1.77273e-05
-9.0612e-10
-9.40056e-05
1.21131e-05
-9.94792e-10
-9.56023e-05
7.89923e-06
-7.82288e-10
-9.64862e-05
4.99943e-06
-6.04827e-10
-9.69698e-05
3.12678e-06
-4.21756e-10
-9.72396e-05
1.98539e-06
-2.74148e-10
-9.74008e-05
1.34012e-06
-1.73513e-10
-9.75123e-05
1.02584e-06
-1.09234e-10
-9.76072e-05
9.32528e-07
-7.05919e-11
-9.77053e-05
9.84884e-07
-4.9471e-11
-9.78177e-05
1.12234e-06
-4.00252e-11
-9.79484e-05
1.27986e-06
-3.83388e-11
-9.80899e-05
1.36853e-06
-4.0955e-11
-9.82148e-05
1.25485e-06
-4.1966e-11
-9.82578e-05
7.39922e-07
-2.5298e-11
-9.80867e-05
-4.56726e-07
3.11954e-11
-9.74601e-05
-2.69505e-06
1.22045e-10
-9.59816e-05
-6.36963e-06
3.04708e-10
-9.30763e-05
-1.17874e-05
8.38981e-10
-1.89101e-05
1.12511e-09
-8.80656e-05
-9.52966e-05
2.14589e-05
-1.99724e-09
-9.6999e-05
1.38172e-05
-1.63884e-09
-9.76287e-05
8.52984e-06
-9.83243e-10
-9.77763e-05
5.1477e-06
-6.52776e-10
-9.7743e-05
3.09385e-06
-3.81284e-10
-9.766e-05
1.90266e-06
-1.98726e-10
-9.75744e-05
1.2546e-06
-9.77432e-11
-9.74971e-05
9.48573e-07
-4.48531e-11
-9.74268e-05
8.62276e-07
-1.91343e-11
-9.73607e-05
9.18749e-07
-9.01797e-12
-9.72989e-05
1.06057e-06
-8.77154e-12
-9.72472e-05
1.22815e-06
-1.62506e-11
-9.72169e-05
1.33825e-06
-3.08268e-11
-9.72214e-05
1.25938e-06
-5.02777e-11
-9.7263e-05
7.81666e-07
-5.54239e-11
-9.73013e-05
-4.18443e-07
-1.06668e-11
-9.71894e-05
-2.807e-06
4.09496e-11
-9.65713e-05
-6.98793e-06
2.1575e-10
-9.47545e-05
-1.36056e-05
1.40308e-09
-2.30068e-05
2.78359e-09
-9.06605e-05
-9.3291e-05
2.34476e-05
-5.38638e-09
-9.31711e-05
1.37007e-05
-3.41758e-09
-9.24091e-05
7.7694e-06
-1.51086e-09
-9.16285e-05
4.36784e-06
-7.85145e-10
-9.10129e-05
2.47858e-06
-3.3202e-10
-9.0569e-05
1.45887e-06
-1.00225e-10
-9.02494e-05
9.35039e-07
-1.09503e-11
-9.00018e-05
7.0092e-07
1.84505e-11
-8.9784e-05
6.44508e-07
2.29361e-11
-8.95679e-05
7.02569e-07
1.62908e-11
-8.93399e-05
8.32602e-07
3.00319e-12
-8.91043e-05
9.92614e-07
-1.66932e-11
-8.8888e-05
1.12194e-06
-4.37882e-11
-8.87459e-05
1.11736e-06
-7.90354e-11
-8.87622e-05
7.9805e-07
-9.45922e-11
-8.90307e-05
-1.49911e-07
1.34637e-12
-8.959e-05
-2.2479e-06
1.45791e-10
-9.02639e-05
-6.31452e-06
4.91947e-10
-9.03566e-05
-1.35161e-05
3.28166e-09
-2.515e-05
7.61198e-09
-8.82211e-05
-8.39599e-05
2.23799e-05
-9.22154e-09
-8.12917e-05
1.1036e-05
-3.56791e-09
-7.89699e-05
5.44832e-06
-6.58607e-10
-7.73442e-05
2.74234e-06
-2.71629e-10
-7.62932e-05
1.42761e-06
2.41122e-11
-7.56252e-05
7.90718e-07
1.31894e-10
-7.51816e-05
4.91313e-07
1.23016e-10
-7.48508e-05
3.70056e-07
9.95544e-11
-7.45586e-05
3.52248e-07
8.18299e-11
-7.42576e-05
4.01466e-07
6.97648e-11
-7.39218e-05
4.96776e-07
5.99566e-11
-7.35484e-05
6.19152e-07
4.71415e-11
-7.3166e-05
7.39461e-07
2.32039e-11
-7.28507e-05
8.02097e-07
-3.24938e-11
-7.27485e-05
6.95977e-07
-1.13252e-10
-7.30939e-05
1.95539e-07
-5.02839e-11
-7.41834e-05
-1.15841e-06
7.50803e-11
-7.62536e-05
-4.24397e-06
-3.66506e-10
-7.89904e-05
-1.07823e-05
2.97279e-09
-2.39e-05
1.23083e-08
-8.02527e-05
-6.45942e-05
1.5907e-05
-1.16484e-08
-5.91724e-05
5.60916e-06
5.0463e-09
-5.58728e-05
2.14322e-06
5.49104e-09
-5.401e-05
8.77337e-07
2.238e-09
-5.29707e-05
3.87213e-07
1.11785e-09
-5.23734e-05
1.92743e-07
6.55524e-10
-5.19993e-05
1.1683e-07
3.85863e-10
-5.17233e-05
9.37327e-08
2.7152e-10
-5.14705e-05
9.92541e-08
2.49569e-10
-5.11938e-05
1.24495e-07
2.77375e-10
-5.08635e-05
1.6607e-07
3.34119e-10
-5.04665e-05
2.21758e-07
4.02919e-10
-5.00147e-05
2.87207e-07
4.53817e-10
-4.95637e-05
3.50759e-07
4.08053e-10
-4.92498e-05
3.81838e-07
1.58686e-10
-4.9358e-05
3.04077e-07
-2.54934e-10
-5.03743e-05
-1.40685e-07
-1.5105e-09
-5.31409e-05
-1.47074e-06
-6.63205e-09
-5.85683e-05
-5.34631e-06
-8.56419e-09
-1.67688e-05
1.39269e-08
-6.57134e-05
-2.96326e-05
-6.2662e-08
-2.40137e-05
-9.78664e-09
-2.187e-05
-4.83915e-10
-2.09911e-05
-1.59524e-09
-2.06028e-05
-1.01578e-09
-2.04096e-05
-4.48122e-10
-2.02926e-05
-2.37881e-10
-2.01987e-05
-1.57321e-10
-2.00993e-05
-1.29798e-10
-1.99747e-05
-1.3701e-10
-1.98084e-05
-1.67612e-10
-1.95865e-05
-2.10842e-10
-1.9299e-05
-2.51695e-10
-1.8948e-05
-2.63036e-10
-1.8566e-05
-1.40106e-10
-1.82623e-05
3.99236e-10
-1.84038e-05
8.22067e-10
-1.98726e-05
-2.00573e-09
-2.52238e-05
4.91328e-09
7.62281e-08
-4.20689e-05
-1.76964e-05
1.24195e-06
7.65041e-13
-1.85978e-05
9.02714e-07
5.6166e-13
-1.92181e-05
6.21118e-07
6.21005e-13
-1.9627e-05
4.09399e-07
5.4454e-13
-1.989e-05
2.63262e-07
3.90943e-13
-2.00607e-05
1.70831e-07
4.15271e-13
-2.01797e-05
1.19136e-07
3.32777e-13
-2.02769e-05
9.73385e-08
4.44267e-15
-2.03743e-05
9.74889e-08
-1.87189e-13
-2.04881e-05
1.13859e-07
-2.99624e-14
-2.06295e-05
1.4159e-07
2.032e-13
-2.08043e-05
1.75002e-07
2.37814e-13
-2.10098e-05
2.05721e-07
1.88948e-13
-2.12303e-05
2.20833e-07
1.06558e-13
-2.14315e-05
2.01508e-07
3.2416e-14
-2.15543e-05
1.23133e-07
-1.04406e-14
-2.15106e-05
-4.36072e-08
-3.39295e-14
-2.11894e-05
-3.21286e-07
-4.81998e-14
-2.04688e-05
-7.2124e-07
-6.74806e-14
-1.22317e-06
-4.33438e-14
-1.92471e-05
-4.5289e-05
4.27856e-06
9.24894e-13
-4.75169e-05
3.12924e-06
7.33004e-13
-4.90718e-05
2.17481e-06
6.6073e-13
-5.01168e-05
1.45356e-06
5.15483e-13
-5.08045e-05
9.50424e-07
2.18427e-13
-5.12604e-05
6.2621e-07
1.39851e-13
-5.15797e-05
4.38105e-07
1.50876e-13
-5.18323e-05
3.4969e-07
1.44597e-13
-5.20683e-05
3.33242e-07
2.0167e-13
-5.23224e-05
3.67707e-07
3.70298e-13
-5.26156e-05
4.34541e-07
4.59663e-13
-5.29534e-05
5.12561e-07
3.18124e-13
-5.33204e-05
5.72384e-07
9.0487e-14
-5.3671e-05
5.71196e-07
4.0165e-14
-5.39188e-05
4.49226e-07
7.79793e-14
-5.3926e-05
1.30464e-07
1.60155e-13
-5.35005e-05
-4.68617e-07
2.48596e-13
-5.24034e-05
-1.41732e-06
3.12135e-13
-5.03856e-05
-2.73742e-06
3.77655e-13
-4.35958e-06
4.4668e-13
-4.7247e-05
-6.63542e-05
8.45915e-06
1.09222e-12
-6.93548e-05
6.1294e-06
7.73457e-13
-7.14076e-05
4.22725e-06
6.80723e-13
-7.2765e-05
2.8106e-06
6.23997e-13
-7.36473e-05
1.83241e-06
3.58563e-13
-7.4226e-05
1.20459e-06
2.83772e-13
-7.46259e-05
8.37842e-07
4.28717e-13
-7.49352e-05
6.58798e-07
4.07803e-13
-7.52145e-05
6.12496e-07
2.59341e-13
-7.55043e-05
6.57402e-07
2.82419e-13
-7.5827e-05
7.57188e-07
2.86902e-13
-7.61856e-05
8.71082e-07
9.71625e-14
-7.65569e-05
9.43699e-07
-2.9202e-14
-7.68811e-05
8.95394e-07
-4.94609e-14
-7.70472e-05
6.15401e-07
1.345e-14
-7.68787e-05
-3.7886e-08
7.84447e-14
-7.6125e-05
-1.22208e-06
1.48485e-13
-7.44687e-05
-3.07333e-06
1.89292e-13
-7.15639e-05
-5.6417e-06
1.51192e-13
-8.80406e-06
8.07066e-14
-6.7119e-05
-8.15624e-05
1.31528e-05
1.01817e-12
-8.4758e-05
9.32448e-06
7.12041e-13
-8.68302e-05
6.29892e-06
6.64032e-13
-8.81332e-05
4.11309e-06
7.46214e-13
-8.89428e-05
2.64171e-06
6.77494e-13
-8.94533e-05
1.71485e-06
5.39255e-13
-8.97941e-05
1.17845e-06
5.10221e-13
-9.00497e-05
9.14191e-07
3.57886e-13
-9.02747e-05
8.37478e-07
5.71782e-14
-9.05041e-05
8.86713e-07
-3.92794e-14
-9.07566e-05
1.00966e-06
-5.84361e-14
-9.10344e-05
1.14884e-06
-1.40435e-13
-9.13171e-05
1.2264e-06
-1.76763e-13
-9.15508e-05
1.12911e-06
-6.61907e-14
-9.16313e-05
6.9591e-07
1.25501e-13
-9.13826e-05
-2.86489e-07
3.21021e-13
-9.05357e-05
-2.06884e-06
4.37724e-13
-8.8719e-05
-4.88973e-06
4.56527e-13
-8.54831e-05
-8.87714e-06
3.87224e-13
-1.3893e-05
2.81268e-13
-8.03937e-05
-9.12211e-05
1.77195e-05
9.49506e-13
-9.40031e-05
1.21055e-05
7.46552e-13
-9.55997e-05
7.89474e-06
6.265e-13
-9.64841e-05
4.99687e-06
6.36686e-13
-9.69682e-05
3.12548e-06
6.3166e-13
-9.72385e-05
1.98484e-06
4.55156e-13
-9.74002e-05
1.33994e-06
4.22309e-13
-9.75119e-05
1.02581e-06
3.29809e-13
-9.7607e-05
9.32528e-07
1.54825e-13
-9.77052e-05
9.84837e-07
8.57312e-14
-9.78178e-05
1.12217e-06
4.67776e-15
-9.79485e-05
1.27951e-06
-1.51509e-13
-9.809e-05
1.3679e-06
-2.26031e-13
-9.82148e-05
1.25389e-06
-1.24773e-13
-9.82576e-05
7.38681e-07
5.60652e-14
-9.80861e-05
-4.58008e-07
1.69326e-13
-9.74588e-05
-2.69603e-06
1.89844e-13
-9.59794e-05
-6.36879e-06
2.11157e-13
-9.30747e-05
-1.1781e-05
2.82093e-13
-1.89004e-05
3.47264e-13
-8.80661e-05
-9.52941e-05
2.14409e-05
8.71983e-13
-9.69943e-05
1.3804e-05
7.30177e-13
-9.76247e-05
8.52419e-06
5.35826e-13
-9.77736e-05
5.14514e-06
3.44464e-13
-9.77414e-05
3.09284e-06
2.60651e-13
-9.76591e-05
1.90241e-06
1.30487e-13
-9.75739e-05
1.25462e-06
1.30276e-13
-9.74968e-05
9.48671e-07
1.06399e-13
-9.74267e-05
8.62357e-07
1.05003e-13
-9.73606e-05
9.18759e-07
1.53956e-13
-9.72989e-05
1.06046e-06
7.49299e-14
-9.72473e-05
1.22785e-06
-8.84671e-14
-9.7217e-05
1.33765e-06
-1.37007e-13
-9.72216e-05
1.25836e-06
-4.10812e-14
-9.72631e-05
7.80204e-07
1.91999e-14
-9.7301e-05
-4.20124e-07
-3.88265e-14
-9.71881e-05
-2.80897e-06
-6.25428e-14
-9.65684e-05
-6.98823e-06
8.45855e-14
-9.4752e-05
-1.3596e-05
2.74435e-13
-2.29866e-05
2.79347e-13
-9.06631e-05
-9.32847e-05
2.34049e-05
8.9153e-13
-9.31625e-05
1.36783e-05
6.68924e-13
-9.24036e-05
7.76385e-06
4.56316e-13
-9.16257e-05
4.36643e-06
3.53925e-13
-9.10117e-05
2.47847e-06
3.63187e-13
-9.05685e-05
1.45917e-06
2.88725e-13
-9.02493e-05
9.35344e-07
2.48555e-13
-9.00017e-05
7.01135e-07
1.50258e-13
-8.9784e-05
6.44631e-07
1.30894e-13
-8.95678e-05
7.02597e-07
1.58183e-13
-8.93398e-05
8.32509e-07
9.3256e-14
-8.91043e-05
9.92341e-07
3.31573e-14
-8.88881e-05
1.12138e-06
7.64609e-14
-8.87461e-05
1.11632e-06
1.24782e-13
-8.87624e-05
7.96347e-07
5.90645e-14
-8.90306e-05
-1.51949e-07
-3.15832e-14
-8.95884e-05
-2.25099e-06
1.06393e-15
-9.02597e-05
-6.31643e-06
1.35268e-13
-9.03525e-05
-1.34999e-05
1.1803e-13
-2.51022e-05
-5.76898e-14
-8.82293e-05
-8.39478e-05
2.22981e-05
9.54432e-13
-8.12832e-05
1.10102e-05
7.49809e-13
-7.89673e-05
5.44733e-06
7.42256e-13
-7.73442e-05
2.74303e-06
5.43501e-13
-7.62939e-05
1.42817e-06
4.15195e-13
-7.56258e-05
7.91202e-07
5.08625e-13
-7.51819e-05
4.91616e-07
5.28384e-13
-7.48509e-05
3.70221e-07
4.14731e-13
-7.45585e-05
3.52331e-07
2.98859e-13
-7.42574e-05
4.01493e-07
1.9487e-13
-7.39215e-05
4.96747e-07
9.90912e-14
-7.35482e-05
6.19039e-07
6.83862e-14
-7.3166e-05
7.39193e-07
4.21749e-14
-7.28512e-05
8.01515e-07
-8.94759e-14
-7.27498e-05
6.94803e-07
-2.79165e-13
-7.30956e-05
1.93815e-07
-3.48417e-13
-7.4186e-05
-1.16048e-06
-3.08057e-13
-7.62548e-05
-4.24799e-06
-3.23507e-13
-7.89872e-05
-1.07646e-05
-4.23797e-13
-2.3811e-05
-3.77411e-13
-8.02661e-05
-6.45796e-05
1.58349e-05
1.02447e-12
-5.918e-05
5.61569e-06
9.06733e-13
-5.58808e-05
2.15355e-06
7.26738e-13
-5.40158e-05
8.80261e-07
4.98564e-13
-5.29741e-05
3.87649e-07
4.14978e-13
-5.23751e-05
1.92818e-07
3.2401e-13
-5.2e-05
1.16894e-07
2.47165e-13
-5.17233e-05
9.38469e-08
1.73335e-13
-5.14702e-05
9.94515e-08
1.26897e-13
-5.11932e-05
1.24808e-07
9.68198e-14
-5.08627e-05
1.66543e-07
9.90123e-14
-5.04657e-05
2.22452e-07
1.02632e-13
-5.00142e-05
2.88193e-07
3.80781e-15
-4.95645e-05
3.52129e-07
-1.69586e-13
-4.9253e-05
3.83521e-07
-2.47184e-13
-4.93636e-05
3.04159e-07
-3.00616e-13
-5.03866e-05
-1.38994e-07
-6.03561e-13
-5.31623e-05
-1.4789e-06
-7.59354e-13
-5.85789e-05
-5.35654e-06
-4.96765e-13
-1.67089e-05
-5.81593e-13
-6.56671e-05
-2.96253e-05
7.43336e-13
-2.40194e-05
4.86285e-13
-2.18663e-05
6.73207e-13
-2.09877e-05
6.23852e-13
-2.0601e-05
5.34849e-13
-2.04086e-05
4.11483e-13
-2.0292e-05
2.51117e-13
-2.01983e-05
1.2878e-13
-2.0099e-05
8.53145e-14
-1.99743e-05
1.12247e-13
-1.98079e-05
1.79003e-13
-1.95857e-05
2.04596e-13
-1.92978e-05
1.42307e-13
-1.89459e-05
8.55218e-14
-1.85625e-05
6.8315e-14
-1.82579e-05
-2.90203e-14
-1.83961e-05
-2.01935e-13
-1.9877e-05
-2.47121e-13
-2.52287e-05
-3.87913e-13
-1.05644e-12
-4.18613e-05
-1.76964e-05
1.24195e-06
-1.84261e-09
-1.85978e-05
9.02714e-07
-1.26651e-09
-1.92181e-05
6.21118e-07
-8.19776e-10
-1.9627e-05
4.09399e-07
-5.01985e-10
-1.989e-05
2.63261e-07
-2.94902e-10
-2.00607e-05
1.70831e-07
-1.71822e-10
-2.01797e-05
1.19135e-07
-1.07728e-10
-2.02769e-05
9.73388e-08
-8.38656e-11
-2.03743e-05
9.74897e-08
-8.7886e-11
-2.04881e-05
1.1386e-07
-1.12547e-10
-2.06295e-05
1.4159e-07
-1.53088e-10
-2.08043e-05
1.75002e-07
-2.04715e-10
-2.10098e-05
2.05721e-07
-2.60388e-10
-2.12303e-05
2.20833e-07
-3.07928e-10
-2.14315e-05
2.01508e-07
-3.27195e-10
-2.15543e-05
1.23133e-07
-2.90207e-10
-2.15106e-05
-4.36064e-08
-1.54186e-10
-2.11894e-05
-3.21285e-07
1.41983e-10
-2.04688e-05
-7.21238e-07
6.48464e-10
-1.22317e-06
1.39853e-09
-1.92471e-05
-4.5289e-05
4.27856e-06
1.72883e-09
-4.75169e-05
3.12924e-06
1.43551e-09
-4.90717e-05
2.17481e-06
1.12257e-09
-5.01167e-05
1.45356e-06
8.42803e-10
-5.08045e-05
9.50424e-07
6.14416e-10
-5.12603e-05
6.26211e-07
4.45172e-10
-5.15796e-05
4.38105e-07
3.33154e-10
-5.18323e-05
3.4969e-07
2.7026e-10
-5.20683e-05
3.33242e-07
2.46311e-10
-5.23224e-05
3.67706e-07
2.50083e-10
-5.26156e-05
4.3454e-07
2.68998e-10
-5.29534e-05
5.1256e-07