/*--------------------------------*- C++ -*----------------------------------*\
| =========                 |                                                 |
| \\      /  F ield         | OpenFOAM: The Open Source CFD Toolbox           |
|  \\    /   O peration     | Version:  2.4.0                                 |
|   \\  /    A nd           | Web:      www.OpenFOAM.org                      |
|    \\/     M anipulation  |                                                 |
\*---------------------------------------------------------------------------*/
FoamFile
{
    version     2.0;
    format      ascii;
    class       volVectorField;
    location    "1.1";
    object      U;
}
// * * * * * * * * * * * * * * * * * * * * * * * * * * * * * * * * * * * * * //

dimensions      [0 1 -1 0 0 0 0];

internalField   nonuniform List<vector> 
4800
(
(0.000237954 -0.000240527 4.42632e-07)
(-0.00012666 0.000195995 0.000193444)
(-0.00190444 0.000645816 0.000373355)
(-0.00464283 0.000939118 0.000487171)
(-0.00799575 0.00110024 0.000496607)
(-0.0116675 0.0011652 0.000384547)
(-0.0154145 0.00115798 0.000146514)
(-0.0190313 0.00109014 -0.000215723)
(-0.0223359 0.000967972 -0.00069512)
(-0.0251739 0.00080239 -0.00127823)
(-0.000217007 0.000128706 -0.000192093)
(-0.00239233 0.00232477 3.93562e-06)
(-0.00746082 0.00437415 0.000133669)
(-0.0144738 0.00581198 0.000188272)
(-0.0227766 0.00666695 0.000152458)
(-0.0317889 0.00703187 1.23384e-05)
(-0.0409659 0.00698292 -0.000237212)
(-0.0498129 0.0065701 -0.000596837)
(-0.0578841 0.0058398 -0.00106331)
(-0.06481 0.00486972 -0.0016284)
(-0.00073078 0.00200416 -0.000374778)
(-0.0047094 0.00747931 -0.000120697)
(-0.012709 0.0121822 9.1558e-06)
(-0.0232123 0.0155481 4.53105e-05)
(-0.0353523 0.0176026 -5.35696e-06)
(-0.0483949 0.0184819 -0.000151206)
(-0.0616097 0.0183117 -0.000395571)
(-0.0742999 0.0171918 -0.000740296)
(-0.0858152 0.0152422 -0.00118571)
(-0.0956014 0.0126756 -0.00172854)
(-0.00111637 0.00504469 -0.000477834)
(-0.00654005 0.0149278 -0.000152873)
(-0.0169104 0.0228766 -3.88157e-06)
(-0.0301509 0.0285149 3.33522e-05)
(-0.0452129 0.0319576 -1.66391e-05)
(-0.0612644 0.0333984 -0.000157545)
(-0.0774551 0.0329966 -0.000391406)
(-0.0929385 0.0308823 -0.000722101)
(-0.106883 0.0272445 -0.00115483)
(-0.118531 0.0224614 -0.00169311)
(-0.00136436 0.00893846 -0.000440774)
(-0.00778029 0.024095 -5.53839e-05)
(-0.0198177 0.0357132 0.000113272)
(-0.0349755 0.0438323 0.000159457)
(-0.052068 0.048758 0.000119888)
(-0.070203 0.0507661 -6.53286e-06)
(-0.0884548 0.0500294 -0.000222597)
(-0.105862 0.0466677 -0.000536515)
(-0.121414 0.0408969 -0.000961397)
(-0.13408 0.0332519 -0.00151313)
(-0.00148249 0.0133471 -0.00022677)
(-0.0084066 0.0343484 0.000203426)
(-0.0213263 0.0499295 0.000387644)
(-0.0375106 0.060677 0.000448037)
(-0.055702 0.0671601 0.00042803)
(-0.0749868 0.0697577 0.000326924)
(-0.0944084 0.0686317 0.000138566)
(-0.112931 0.0638285 -0.000152764)
(-0.129375 0.0554985 -0.000572723)
(-0.14232 0.044245 -0.00116212)
(-0.00147855 0.0179281 0.00017968)
(-0.00842237 0.0449949 0.000637669)
(-0.0214018 0.0646625 0.000831124)
(-0.0376619 0.0781085 0.000909531)
(-0.0559428 0.0862015 0.000918306)
(-0.0753486 0.0894359 0.000855552)
(-0.0949418 0.0879382 0.00070935)
(-0.113678 0.0816012 0.000453155)
(-0.130283 0.0703507 4.36319e-05)
(-0.142812 0.0546002 -0.000611429)
(-0.0013615 0.0223507 0.000776109)
(-0.00785597 0.0553355 0.00124556)
(-0.0200795 0.0790117 0.00144135)
(-0.0354346 0.0951116 0.00154092)
(-0.0527096 0.104802 0.00158812)
(-0.0710471 0.108703 0.00157958)
(-0.0895645 0.106897 0.00149648)
(-0.107295 0.0990543 0.00129955)
(-0.123074 0.0846663 0.000926488)
(-0.134391 0.0633839 0.000184424)
(-0.00114727 0.0263105 0.0015432)
(-0.00678025 0.0647105 0.00201029)
(-0.0175076 0.0920921 0.00220186)
(-0.0310194 0.110633 0.00232468)
(-0.0461621 0.121759 0.00241887)
(-0.0620845 0.126227 0.00248094)
(-0.0779251 0.12412 0.00248599)
(-0.0928108 0.114914 0.002381)
(-0.106033 0.0975923 0.00209302)
(-0.114891 0.0702397 0.00124643)
(-0.000865219 0.0295599 0.00244646)
(-0.00533702 0.0725663 0.0029018)
(-0.0140057 0.103122 0.00308324)
(-0.0249156 0.123668 0.00322905)
(-0.036933 0.135797 0.00337545)
(-0.0490992 0.140373 0.00352373)
(-0.0603709 0.137525 0.00365178)
(-0.0696242 0.126654 0.00370418)
(-0.0766008 0.106503 0.00365387)
(-0.0802137 0.0740838 0.00294279)
(0.000242173 -0.000244803 1.45466e-07)
(-0.000120575 0.000190509 1.24536e-06)
(-0.00190115 0.000632959 1.83511e-06)
(-0.00464056 0.000921274 2.33666e-06)
(-0.00799455 0.00107979 2.6185e-06)
(-0.0116672 0.00114356 2.72431e-06)
(-0.0154148 0.00113642 2.71591e-06)
(-0.0190325 0.00106981 2.59251e-06)
(-0.022338 0.000949843 2.33698e-06)
(-0.025177 0.000787007 1.93572e-06)
(-0.000210658 0.000121858 -9.7835e-07)
(-0.00239006 0.00232282 2.5701e-07)
(-0.00746764 0.00436403 -1.12945e-06)
(-0.0144778 0.00579742 -1.71044e-06)
(-0.0227785 0.00665094 -1.98679e-06)
(-0.0317894 0.00701526 -2.16155e-06)
(-0.0409651 0.00696653 -2.15877e-06)
(-0.0498112 0.00655481 -2.00467e-06)
(-0.0578824 0.00582634 -1.7598e-06)
(-0.0648091 0.00485815 -1.51946e-06)
(-0.000716616 0.0019993 -1.74918e-06)
(-0.00469948 0.0074851 1.57389e-06)
(-0.0127151 0.0121855 6.40876e-08)
(-0.0232141 0.0155516 -6.6433e-08)
(-0.0353523 0.0176078 8.73883e-08)
(-0.0483947 0.018488 8.54994e-08)
(-0.0616092 0.0183182 9.31205e-08)
(-0.0742991 0.0171983 1.28842e-07)
(-0.0858153 0.0152488 1.67765e-07)
(-0.0956034 0.012681 9.48211e-08)
(-0.0010964 0.00504078 -2.48974e-06)
(-0.00652569 0.0149311 2.15089e-06)
(-0.0169181 0.0228762 7.03286e-09)
(-0.0301524 0.0285132 -1.57252e-07)
(-0.045212 0.0319563 1.0348e-07)
(-0.0612637 0.0333975 1.39035e-07)
(-0.0774541 0.0329961 1.68535e-07)
(-0.0929371 0.0308827 2.35621e-07)
(-0.106883 0.0272466 3.5879e-07)
(-0.118535 0.0224636 3.05421e-07)
(-0.00134089 0.00893619 -2.9707e-06)
(-0.00776423 0.0240968 2.47384e-06)
(-0.0198281 0.0357117 -2.61031e-07)
(-0.0349779 0.0438292 -5.66631e-07)
(-0.0520671 0.0487546 -3.07714e-07)
(-0.070202 0.0507625 -2.798e-07)
(-0.088453 0.050026 -2.35208e-07)
(-0.105859 0.0466654 -1.05534e-07)
(-0.121413 0.0408983 2.69005e-07)
(-0.134087 0.0332551 4.39648e-07)
(-0.00145723 0.0133466 -3.18388e-06)
(-0.00838986 0.0343494 2.7021e-06)
(-0.0213384 0.0499288 -3.32869e-07)
(-0.0375138 0.0606752 -7.09995e-07)
(-0.0557014 0.0671577 -4.5876e-07)
(-0.074986 0.0697548 -4.4513e-07)
(-0.0944062 0.0686284 -4.24966e-07)
(-0.112925 0.0638257 -3.21703e-07)
(-0.12937 0.0555026 4.30107e-07)
(-0.142334 0.0442553 1.14444e-06)
(-0.00145326 0.0179292 -3.16502e-06)
(-0.00840597 0.0449949 2.74307e-06)
(-0.0214147 0.0646624 -3.51992e-07)
(-0.0376659 0.0781078 -7.72383e-07)
(-0.0559428 0.0862 -5.62949e-07)
(-0.0753486 0.0894337 -5.81383e-07)
(-0.0949399 0.0879348 -6.43753e-07)
(-0.113667 0.0815969 -7.82688e-07)
(-0.130268 0.07036 5.56867e-07)
(-0.142839 0.0546338 2.83234e-06)
(-0.00133786 0.0223533 -2.91449e-06)
(-0.00784091 0.0553348 2.61147e-06)
(-0.0200922 0.0790123 -3.2327e-07)
(-0.0354391 0.0951123 -7.56623e-07)
(-0.0527104 0.104802 -6.06881e-07)
(-0.0710481 0.108701 -6.21279e-07)
(-0.089564 0.106892 -6.98497e-07)
(-0.107275 0.0990394 -1.2544e-06)
(-0.123028 0.0846614 1.56086e-06)
(-0.134434 0.0634367 9.96809e-06)
(-0.00112669 0.0263146 -2.4458e-06)
(-0.00676731 0.0647095 2.35498e-06)
(-0.0175193 0.0920939 -2.28288e-07)
(-0.0310243 0.110636 -6.50163e-07)
(-0.0461644 0.121762 -6.14622e-07)
(-0.0620892 0.126229 -7.11211e-07)
(-0.0779355 0.124115 -1.00079e-06)
(-0.0927963 0.114882 -3.33974e-06)
(-0.10594 0.0975224 -8.5417e-07)
(-0.114936 0.0702081 2.23749e-05)
(-0.000848624 0.0295648 -1.80331e-06)
(-0.00532648 0.0725652 2.03793e-06)
(-0.0140148 0.103125 -3.49245e-08)
(-0.0249193 0.123675 -3.76844e-07)
(-0.0369351 0.135808 -4.40969e-07)
(-0.0491066 0.140393 -7.3578e-07)
(-0.0604018 0.137562 -1.63902e-06)
(-0.0696624 0.126711 -8.80111e-06)
(-0.0765252 0.106558 -2.00438e-05)
(-0.0802866 0.0741858 5.69698e-06)
(0.000242149 -0.000244827 -3.54822e-08)
(-0.000120621 0.000190489 -1.19958e-06)
(-0.00190118 0.000632947 -1.81196e-06)
(-0.00464058 0.000921268 -2.3232e-06)
(-0.00799456 0.00107979 -2.60995e-06)
(-0.0116672 0.00114356 -2.71816e-06)
(-0.0154148 0.00113642 -2.71116e-06)
(-0.0190325 0.00106981 -2.58903e-06)
(-0.022338 0.000949843 -2.33411e-06)
(-0.025177 0.000787006 -1.93305e-06)
(-0.000210677 0.00012181 1.02578e-06)
(-0.0023901 0.00232278 -2.27546e-07)
(-0.00746767 0.004364 1.14844e-06)
(-0.0144778 0.0057974 1.7233e-06)
(-0.0227786 0.00665093 1.99554e-06)
(-0.0317895 0.00701525 2.16803e-06)
(-0.0409651 0.00696653 2.16381e-06)
(-0.0498112 0.00655481 2.0086e-06)
(-0.0578824 0.00582634 1.76303e-06)
(-0.0648091 0.00485815 1.52223e-06)
(-0.000716626 0.00199926 1.77289e-06)
(-0.00469951 0.00748507 -1.55452e-06)
(-0.0127152 0.0121855 -4.95327e-08)
(-0.0232141 0.0155516 7.74881e-08)
(-0.0353523 0.0176078 -7.90994e-08)
(-0.0483947 0.018488 -7.8936e-08)
(-0.0616092 0.0183182 -8.78085e-08)
(-0.0742991 0.0171983 -1.24714e-07)
(-0.0858153 0.0152488 -1.6429e-07)
(-0.0956034 0.012681 -9.1644e-08)
(-0.0010964 0.00504076 2.50316e-06)
(-0.0065257 0.0149311 -2.13788e-06)
(-0.0169181 0.0228761 3.8e-09)
(-0.0301524 0.0285131 1.66323e-07)
(-0.045212 0.0319563 -9.61102e-08)
(-0.0612637 0.0333975 -1.32983e-07)
(-0.0774541 0.0329961 -1.63553e-07)
(-0.0929371 0.0308826 -2.31519e-07)
(-0.106883 0.0272466 -3.55173e-07)
(-0.118535 0.0224636 -3.02206e-07)
(-0.00134089 0.00893617 2.97982e-06)
(-0.00776424 0.0240967 -2.46413e-06)
(-0.0198281 0.0357116 2.69632e-07)
(-0.0349779 0.0438292 5.74289e-07)
(-0.0520671 0.0487545 3.1429e-07)
(-0.070202 0.0507625 2.85446e-07)
(-0.088453 0.050026 2.40022e-07)
(-0.105859 0.0466654 1.09607e-07)
(-0.121413 0.0408983 -2.65464e-07)
(-0.134087 0.0332551 -4.36623e-07)
(-0.00145723 0.0133466 3.19089e-06)
(-0.00838986 0.0343494 -2.69441e-06)
(-0.0213384 0.0499287 3.39828e-07)
(-0.0375138 0.0606751 7.16546e-07)
(-0.0557014 0.0671577 4.64638e-07)
(-0.074986 0.0697548 4.50319e-07)
(-0.0944062 0.0686284 4.29433e-07)
(-0.112925 0.0638257 3.25507e-07)
(-0.12937 0.0555026 -4.26827e-07)
(-0.142334 0.0442553 -1.14168e-06)
(-0.00145326 0.0179292 3.17069e-06)
(-0.00840596 0.0449949 -2.73682e-06)
(-0.0214147 0.0646623 3.57778e-07)
(-0.0376659 0.0781078 7.78107e-07)
(-0.0559428 0.0862 5.68216e-07)
(-0.0753486 0.0894337 5.86057e-07)
(-0.0949399 0.0879348 6.47777e-07)
(-0.113667 0.0815969 7.86196e-07)
(-0.130268 0.0703599 -5.53776e-07)
(-0.142839 0.0546338 -2.82979e-06)
(-0.00133786 0.0223533 2.91939e-06)
(-0.0078409 0.0553348 -2.60621e-06)
(-0.0200922 0.0790123 3.28409e-07)
(-0.0354391 0.0951123 7.61733e-07)
(-0.0527104 0.104802 6.11593e-07)
(-0.0710481 0.108701 6.25478e-07)
(-0.089564 0.106892 7.02164e-07)
(-0.107275 0.0990393 1.25767e-06)
(-0.123028 0.0846614 -1.55796e-06)
(-0.134434 0.0634367 -9.96566e-06)
(-0.00112669 0.0263146 2.44987e-06)
(-0.00676731 0.0647094 -2.35051e-06)
(-0.0175193 0.0920939 2.3276e-07)
(-0.0310243 0.110636 6.54527e-07)
(-0.0461644 0.121762 6.18692e-07)
(-0.0620892 0.126229 7.14978e-07)
(-0.0779355 0.124115 1.00419e-06)
(-0.0927963 0.114882 3.34275e-06)
(-0.10594 0.0975224 8.56818e-07)
(-0.114936 0.0702081 -2.23726e-05)
(-0.000848623 0.0295648 1.80664e-06)
(-0.00532647 0.0725652 -2.03408e-06)
(-0.0140148 0.103125 3.86824e-08)
(-0.0249192 0.123675 3.80491e-07)
(-0.0369351 0.135808 4.44507e-07)
(-0.0491066 0.140393 7.39269e-07)
(-0.0604018 0.137562 1.64225e-06)
(-0.0696624 0.126711 8.80396e-06)
(-0.0765252 0.106558 2.00463e-05)
(-0.0802866 0.0741858 -5.69465e-06)
(0.000237746 -0.000240731 -5.58256e-07)
(-0.00012698 0.000195907 -0.000193492)
(-0.00190457 0.000645778 -0.000373379)
(-0.0046429 0.000939102 -0.000487186)
(-0.00799579 0.00110023 -0.000496616)
(-0.0116675 0.0011652 -0.000384554)
(-0.0154145 0.00115798 -0.000146519)
(-0.0190313 0.00109014 0.00021572)
(-0.0223359 0.000967972 0.000695117)
(-0.0251739 0.000802389 0.00127823)
(-0.000217099 0.000128389 0.000192043)
(-0.0023925 0.0023246 -3.96677e-06)
(-0.00746093 0.00437407 -0.000133689)
(-0.0144739 0.00581194 -0.000188285)
(-0.0227767 0.00666693 -0.000152467)
(-0.0317889 0.00703186 -1.23453e-05)
(-0.0409659 0.00698291 0.000237207)
(-0.0498128 0.00657009 0.000596833)
(-0.057884 0.00583979 0.00106331)
(-0.06481 0.00486972 0.0016284)
(-0.000730819 0.00200402 0.000374753)
(-0.00470948 0.00747919 0.000120677)
(-0.0127091 0.0121821 -9.17119e-06)
(-0.0232123 0.0155481 -4.53222e-05)
(-0.0353523 0.0176026 5.34819e-06)
(-0.0483949 0.0184819 0.000151199)
(-0.0616097 0.0183117 0.000395565)
(-0.0742999 0.0171918 0.000740292)
(-0.0858152 0.0152422 0.00118571)
(-0.0956013 0.0126756 0.00172853)
(-0.00111639 0.00504462 0.000477819)
(-0.00654009 0.0149277 0.000152859)
(-0.0169104 0.0228765 3.87012e-06)
(-0.030151 0.0285148 -3.33618e-05)
(-0.0452129 0.0319575 1.66313e-05)
(-0.0612644 0.0333984 0.000157539)
(-0.0774551 0.0329966 0.0003914)
(-0.0929385 0.0308823 0.000722096)
(-0.106883 0.0272445 0.00115482)
(-0.118531 0.0224614 0.00169311)
(-0.00136437 0.00893842 0.000440764)
(-0.0077803 0.0240949 5.53736e-05)
(-0.0198177 0.0357131 -0.000113281)
(-0.0349755 0.0438323 -0.000159465)
(-0.052068 0.048758 -0.000119895)
(-0.070203 0.0507661 6.52689e-06)
(-0.0884548 0.0500294 0.000222592)
(-0.105862 0.0466677 0.000536511)
(-0.121414 0.0408968 0.000961393)
(-0.13408 0.0332519 0.00151313)
(-0.00148249 0.0133471 0.000226762)
(-0.0084066 0.0343484 -0.000203434)
(-0.0213263 0.0499295 -0.000387652)
(-0.0375106 0.0606769 -0.000448044)
(-0.055702 0.0671601 -0.000428036)
(-0.0749868 0.0697576 -0.000326929)
(-0.0944084 0.0686317 -0.000138571)
(-0.112931 0.0638285 0.00015276)
(-0.129375 0.0554985 0.000572719)
(-0.14232 0.0442449 0.00116212)
(-0.00147855 0.017928 -0.000179685)
(-0.00842237 0.0449949 -0.000637676)
(-0.0214018 0.0646625 -0.00083113)
(-0.0376619 0.0781084 -0.000909537)
(-0.0559427 0.0862014 -0.000918312)
(-0.0753486 0.0894358 -0.000855557)
(-0.0949418 0.0879382 -0.000709354)
(-0.113678 0.0816012 -0.000453159)
(-0.130283 0.0703506 -4.36352e-05)
(-0.142812 0.0546002 0.000611426)
(-0.0013615 0.0223506 -0.000776114)
(-0.00785596 0.0553355 -0.00124557)
(-0.0200795 0.0790116 -0.00144136)
(-0.0354346 0.0951115 -0.00154093)
(-0.0527096 0.104802 -0.00158813)
(-0.0710471 0.108703 -0.00157958)
(-0.0895644 0.106897 -0.00149649)
(-0.107295 0.0990543 -0.00129955)
(-0.123074 0.0846663 -0.000926491)
(-0.134391 0.0633839 -0.000184426)
(-0.00114727 0.0263105 -0.0015432)
(-0.00678025 0.0647104 -0.00201029)
(-0.0175076 0.092092 -0.00220186)
(-0.0310194 0.110633 -0.00232468)
(-0.0461621 0.121759 -0.00241887)
(-0.0620845 0.126227 -0.00248095)
(-0.0779251 0.12412 -0.00248599)
(-0.0928108 0.114914 -0.00238101)
(-0.106033 0.0975923 -0.00209302)
(-0.114891 0.0702397 -0.00124644)
(-0.000865216 0.0295599 -0.00244646)
(-0.00533702 0.0725662 -0.00290181)
(-0.0140057 0.103122 -0.00308325)
(-0.0249155 0.123668 -0.00322906)
(-0.036933 0.135797 -0.00337546)
(-0.0490992 0.140373 -0.00352373)
(-0.0603709 0.137525 -0.00365178)
(-0.0696242 0.126654 -0.00370418)
(-0.0766008 0.106503 -0.00365388)
(-0.0802137 0.0740838 -0.00294279)
(-0.0274474 0.000616388 -0.00194464)
(-0.0291462 0.000440786 -0.00266987)
(-0.0303408 0.000296093 -0.00343214)
(-0.0311401 0.000188968 -0.00421525)
(-0.0316565 0.000116798 -0.00500861)
(-0.0319868 7.28622e-05 -0.00580623)
(-0.0322061 5.00415e-05 -0.00660531)
(-0.03237 4.26434e-05 -0.00740521)
(-0.0325191 4.67882e-05 -0.00820676)
(-0.0326834 6.00044e-05 -0.00901196)
(-0.0328849 8.04324e-05 -0.00982399)
(-0.0331378 0.000105813 -0.0106473)
(-0.0334458 0.000132332 -0.0114875)
(-0.033796 0.000153411 -0.0123515)
(-0.0341503 0.000158679 -0.0132468)
(-0.0344354 0.000133741 -0.0141797)
(-0.0345333 6.15063e-05 -0.0151538)
(-0.0342813 -7.58193e-05 -0.0161659)
(-0.0334853 -0.000286048 -0.0172029)
(-0.0319542 -0.000560358 -0.0182385)
(-0.0703647 0.00379386 -0.00227749)
(-0.074536 0.00277656 -0.00299078)
(-0.0775002 0.00192695 -0.00375022)
(-0.079517 0.00128306 -0.00454123)
(-0.080849 0.000834155 -0.00535285)
(-0.0817215 0.000546517 -0.0061776)
(-0.0823102 0.000382284 -0.00701088)
(-0.0827451 0.000309108 -0.00785031)
(-0.0831201 0.000302608 -0.00869526)
(-0.0835017 0.000344663 -0.00954654)
(-0.0839347 0.000419577 -0.0104062)
(-0.0844416 0.000509185 -0.0112776)
(-0.0850172 0.000587477 -0.0121648)
(-0.0856167 0.000615412 -0.0130727)
(-0.0861388 0.000537275 -0.0140064)
(-0.086407 0.000281148 -0.0149694)
(-0.0861564 -0.000232847 -0.0159626)
(-0.0850341 -0.00107401 -0.0169818)
(-0.082631 -0.00226525 -0.0180142)
(-0.0785579 -0.00374471 -0.0190372)
(-0.103319 0.00985117 -0.00235767)
(-0.108987 0.00720501 -0.00305261)
(-0.112928 0.00501145 -0.00379615)
(-0.115562 0.00335523 -0.00457443)
(-0.117277 0.00219913 -0.00537649)
(-0.118389 0.00145199 -0.00619451)
(-0.119132 0.0010152 -0.00702329)
(-0.119671 0.000805002 -0.00785982)
(-0.120123 0.000757393 -0.00870276)
(-0.120566 0.000823385 -0.00955219)
(-0.121051 0.00095967 -0.0104094)
(-0.1216 0.00111713 -0.0112765)
(-0.1222 0.00122858 -0.0121568)
(-0.122789 0.00119728 -0.013054)
(-0.123237 0.000889318 -0.0139718)
(-0.123319 0.000135406 -0.0149136)
(-0.122693 -0.00124948 -0.0158805)
(-0.120898 -0.00341873 -0.0168699)
(-0.117378 -0.00641897 -0.017873)
(-0.111579 -0.0100928 -0.0188717)
(-0.127395 0.0172232 -0.00232846)
(-0.133571 0.0124097 -0.00303129)
(-0.137634 0.00851319 -0.00378188)
(-0.140209 0.00563479 -0.00456589)
(-0.141809 0.00366051 -0.00537215)
(-0.142804 0.00239894 -0.00619295)
(-0.143445 0.00166237 -0.00702334)
(-0.143896 0.00129952 -0.00786035)
(-0.144264 0.0011984 -0.00870254)
(-0.144617 0.00127508 -0.00954963)
(-0.144999 0.00145674 -0.0104023)
(-0.145426 0.00166227 -0.0112619)
(-0.145889 0.00178208 -0.0121307)
(-0.146332 0.00165873 -0.0130117)
(-0.146638 0.00107261 -0.0139081)
(-0.14659 -0.000258944 -0.0148238)
(-0.14584 -0.00265476 -0.0157624)
(-0.143875 -0.0063966 -0.0167255)
(-0.140014 -0.0116001 -0.0177109)
(-0.133484 -0.0180305 -0.0187084)
(-0.14311 0.0248821 -0.0021878)
(-0.148755 0.0174273 -0.00292884)
(-0.152037 0.0116323 -0.00371095)
(-0.153871 0.00751348 -0.00451936)
(-0.154873 0.00478033 -0.00534307)
(-0.155424 0.00307828 -0.00617558)
(-0.155739 0.00210078 -0.00701324)
(-0.155942 0.00161982 -0.00785406)
(-0.156097 0.00147648 -0.00869708)
(-0.156246 0.00155755 -0.00954201)
(-0.156412 0.0017688 -0.0103891)
(-0.156607 0.00200756 -0.0112389)
(-0.156831 0.00213454 -0.0120926)
(-0.157062 0.0019453 -0.0129522)
(-0.157234 0.00114476 -0.0138207)
(-0.157203 -0.000666011 -0.0147027)
(-0.156689 -0.00396982 -0.0156051)
(-0.155198 -0.0092482 -0.0165362)
(-0.151952 -0.0167986 -0.0175039)
(-0.14585 -0.026417 -0.0185135)
(-0.15048 0.0318185 -0.00193194)
(-0.15441 0.0212803 -0.00275308)
(-0.155968 0.0135914 -0.00359467)
(-0.15643 0.00844084 -0.00444589)
(-0.156449 0.00519346 -0.00529837)
(-0.156328 0.00325329 -0.00614923)
(-0.156185 0.00217327 -0.00699793)
(-0.156054 0.00165316 -0.00784457)
(-0.155937 0.0015003 -0.00868933)
(-0.155829 0.00158739 -0.00953222)
(-0.155725 0.00181511 -0.0103731)
(-0.155631 0.00207829 -0.0112117)
(-0.155561 0.00223186 -0.012048)
(-0.155537 0.00205359 -0.0128824)
(-0.15558 0.00120327 -0.013717)
(-0.155679 -0.000815951 -0.0145568)
(-0.155713 -0.00467154 -0.0154121)
(-0.155333 -0.0111408 -0.0162989)
(-0.153757 -0.0209081 -0.0172398)
(-0.14945 -0.034078 -0.0182713)
(-0.148851 0.0367681 -0.00157769)
(-0.149627 0.0228305 -0.00253604)
(-0.148534 0.0136202 -0.00346444)
(-0.147178 0.00797238 -0.00437102)
(-0.146042 0.00466852 -0.00525661)
(-0.145208 0.00281192 -0.00612651)
(-0.144618 0.00182747 -0.00698576)
(-0.144183 0.00137353 -0.00783755)
(-0.143824 0.00125265 -0.00868355)
(-0.143484 0.00134669 -0.00952418)
(-0.143131 0.00157163 -0.0103588)
(-0.142754 0.00184211 -0.0111862)
(-0.142377 0.00203684 -0.0120044)
(-0.142064 0.00195745 -0.012812)
(-0.141929 0.00127339 -0.0136087)
(-0.142131 -0.000552257 -0.0143984)
(-0.142809 -0.0043457 -0.0151933)
(-0.143953 -0.0112516 -0.016017)
(-0.145057 -0.0226354 -0.0169107)
(-0.144183 -0.0395216 -0.0179704)
(-0.136427 0.0378287 -0.0011707)
(-0.132301 0.020664 -0.00233562)
(-0.127942 0.0110517 -0.00336737)
(-0.124801 0.00590939 -0.00432858)
(-0.122735 0.00321703 -0.00523977)
(-0.121426 0.00183489 -0.00612087)
(-0.120586 0.00115405 -0.00698481)
(-0.12 0.00086301 -0.00783805)
(-0.119523 0.000804087 -0.00868339)
(-0.119062 0.000894516 -0.00952125)
(-0.118558 0.00108282 -0.0103503)
(-0.117986 0.00132012 -0.0111677)
(-0.117362 0.00153365 -0.0119697)
(-0.116763 0.00159204 -0.0127519)
(-0.11636 0.00124889 -0.0135104)
(-0.116457 4.26577e-05 -0.0142453)
(-0.117491 -0.00287004 -0.0149692)
(-0.12 -0.0089213 -0.0157096)
(-0.124349 -0.0204254 -0.0165226)
(-0.12883 -0.0405512 -0.0176008)
(-0.109063 0.0327307 -0.000962794)
(-0.0983982 0.0139231 -0.00234926)
(-0.0913606 0.00604676 -0.00341137)
(-0.08751 0.00272983 -0.00437311)
(-0.0853722 0.00129943 -0.00527424)
(-0.0841625 0.0006762 -0.00614472)
(-0.0834432 0.00041023 -0.00700115)
(-0.0829574 0.000315646 -0.00784972)
(-0.0825556 0.000316054 -0.00869207)
(-0.0821454 0.000379508 -0.00952741)
(-0.081667 0.00049103 -0.010353)
(-0.0810849 0.000638744 -0.0111644)
(-0.0803933 0.000802556 -0.0119552)
(-0.0796364 0.000937271 -0.0127172)
(-0.0789539 0.000937688 -0.0134404)
(-0.0786563 0.000558766 -0.0141172)
(-0.0793026 -0.000775026 -0.0147541)
(-0.0819643 -0.00442937 -0.0153613)
(-0.0887049 -0.0134836 -0.0159727)
(-0.100355 -0.0348686 -0.0169287)
(-0.0562357 0.020283 -0.00153754)
(-0.0417995 0.00577256 -0.00287819)
(-0.0360168 0.00171944 -0.00360663)
(-0.0339988 0.00052658 -0.00434443)
(-0.0331624 0.000164236 -0.00510236)
(-0.0327614 5.77492e-05 -0.00587518)
(-0.0325416 3.13075e-05 -0.00665971)
(-0.0323876 3.1541e-05 -0.00745062)
(-0.0322418 4.38103e-05 -0.00824324)
(-0.0320687 6.53916e-05 -0.0090334)
(-0.0318405 9.72074e-05 -0.00981635)
(-0.0315325 0.000141255 -0.0105857)
(-0.0311238 0.000199244 -0.0113325)
(-0.0306032 0.000269728 -0.0120432)
(-0.029988 0.000338955 -0.0126985)
(-0.029367 0.000352543 -0.0132703)
(-0.0290149 0.000115947 -0.0137226)
(-0.0297537 -0.00108806 -0.0140203)
(-0.0347526 -0.00562976 -0.0140718)
(-0.0508627 -0.0222815 -0.0144441)
(-0.0274507 0.000603862 1.43683e-06)
(-0.029149 0.000431165 9.87779e-07)
(-0.0303427 0.000289086 6.39787e-07)
(-0.0311414 0.000184064 3.92134e-07)
(-0.0316572 0.000113453 2.30494e-07)
(-0.0319871 7.05835e-05 1.34385e-07)
(-0.0322062 4.84196e-05 8.43975e-08)
(-0.0323699 4.13596e-05 6.57026e-08)
(-0.0325189 4.56035e-05 6.87148e-08)
(-0.0326831 5.87474e-05 8.78486e-08)
(-0.0328846 7.89946e-05 1.19301e-07)
(-0.0331374 0.000104156 1.59399e-07)
(-0.0334454 0.000130514 2.02853e-07)
(-0.0337956 0.000151625 2.40073e-07)
(-0.03415 0.000157299 2.55136e-07)
(-0.0344355 0.000133349 2.26289e-07)
(-0.034534 6.29057e-05 1.20397e-07)
(-0.034283 -7.16225e-05 -1.10123e-07)
(-0.0334884 -0.00027807 -5.04453e-07)
(-0.0319588 -0.000548047 -1.08858e-06)
(-0.0703639 0.00378364 -1.34295e-06)
(-0.0745346 0.00276827 -1.11498e-06)
(-0.0774984 0.00192071 -8.71737e-07)
(-0.0795153 0.00127858 -6.54411e-07)
(-0.0808475 0.000831057 -4.77071e-07)
(-0.0817203 0.000544406 -3.45573e-07)
(-0.0823094 0.000380819 -2.58452e-07)
(-0.0827446 0.000308014 -2.09671e-07)
(-0.0831198 0.000301676 -1.91338e-07)
(-0.0835016 0.000343737 -1.94449e-07)
(-0.0839346 0.000418548 -2.09074e-07)
(-0.0844414 0.000507992 -2.23396e-07)
(-0.0850167 0.000586126 -2.21631e-07)
(-0.0856156 0.000614005 -1.82563e-07)
(-0.0861369 0.00053606 -8.03407e-08)
(-0.0864042 0.000280544 1.08965e-07)
(-0.0861529 -0.000232218 4.02625e-07)
(-0.0850302 -0.00107128 8.03716e-07)
(-0.0826277 -0.00225962 1.27966e-06)
(-0.0785561 -0.0037362 1.71973e-06)
(-0.103321 0.00985323 -1.80143e-07)
(-0.108987 0.00720559 -2.96795e-07)
(-0.112928 0.00501163 -3.15512e-07)
(-0.115561 0.00335528 -2.93623e-07)
(-0.117276 0.0021992 -2.46514e-07)
(-0.118388 0.00145213 -1.93464e-07)
(-0.119131 0.00101543 -1.46483e-07)
(-0.11967 0.00080533 -1.09804e-07)
(-0.120122 0.000757825 -8.34624e-08)
(-0.120566 0.000823922 -6.51025e-08)
(-0.121051 0.000960293 -5.13519e-08)
(-0.1216 0.00111779 -3.83924e-08)
(-0.122199 0.00122917 -2.14852e-08)
(-0.122788 0.00119766 5.2516e-09)
(-0.123236 0.000889301 4.84982e-08)
(-0.123317 0.000134816 1.11554e-07)
(-0.122691 -0.00125078 1.88264e-07)
(-0.120896 -0.00342073 2.81199e-07)
(-0.117378 -0.00642158 3.70491e-07)
(-0.111581 -0.0100974 3.09118e-07)
(-0.127399 0.0172203 -2.5816e-07)
(-0.133572 0.0124065 -4.11854e-07)
(-0.137633 0.00851116 -3.99691e-07)
(-0.140208 0.00563372 -3.51058e-07)
(-0.141807 0.00366013 -2.76888e-07)
(-0.142803 0.00239898 -2.03353e-07)
(-0.143444 0.00166261 -1.43416e-07)
(-0.143895 0.00129985 -9.86399e-08)
(-0.144263 0.00119874 -6.71009e-08)
(-0.144617 0.00127541 -4.56511e-08)
(-0.144998 0.00145703 -3.10149e-08)
(-0.145426 0.00166247 -2.03308e-08)
(-0.145888 0.00178211 -1.05337e-08)
(-0.146331 0.00165853 2.62878e-09)
(-0.146637 0.00107216 2.64791e-08)
(-0.146589 -0.000259576 6.82191e-08)
(-0.145838 -0.00265534 1.28709e-07)
(-0.143872 -0.00639644 2.22137e-07)
(-0.140014 -0.011598 3.81261e-07)
(-0.133489 -0.0180281 3.27229e-07)
(-0.143118 0.0248741 -7.0408e-07)
(-0.148754 0.0174206 -7.73189e-07)
(-0.152034 0.0116292 -6.07982e-07)
(-0.153868 0.00751234 -4.6997e-07)
(-0.154871 0.00478029 -3.27601e-07)
(-0.155422 0.00307875 -2.1291e-07)
(-0.155738 0.00210137 -1.34668e-07)
(-0.155941 0.00162037 -8.47393e-08)
(-0.156097 0.00147694 -5.4799e-08)
(-0.156246 0.00155791 -3.8419e-08)
(-0.156412 0.00176905 -3.11269e-08)
(-0.156607 0.00200767 -2.99196e-08)
(-0.156831 0.00213446 -3.20039e-08)
(-0.157061 0.00194499 -3.27229e-08)
(-0.157233 0.00114425 -1.96391e-08)
(-0.157201 -0.000666501 2.43755e-08)
(-0.156686 -0.0039699 9.50507e-08)
(-0.155193 -0.00924644 2.37137e-07)
(-0.151949 -0.0167914 6.52729e-07)
(-0.145859 -0.0264064 8.75319e-07)
(-0.150495 0.0318019 -1.55278e-06)
(-0.154406 0.0212693 -1.27413e-06)
(-0.155961 0.0135881 -7.6433e-07)
(-0.156426 0.00844054 -5.07411e-07)
(-0.156446 0.00519433 -2.96322e-07)
(-0.156326 0.00325445 -1.54444e-07)
(-0.156184 0.00217431 -7.5902e-08)
(-0.156053 0.00165398 -3.4789e-08)
(-0.155937 0.00150093 -1.47988e-08)
(-0.155828 0.00158787 -6.90959e-09)
(-0.155725 0.00181546 -6.77099e-09)
(-0.155631 0.00207851 -1.26982e-08)
(-0.155561 0.00223191 -2.40673e-08)
(-0.155537 0.00205341 -3.91322e-08)
(-0.15558 0.00120287 -4.30946e-08)
(-0.155677 -0.000816261 -8.32244e-09)
(-0.155709 -0.00467125 3.18082e-08)
(-0.155324 -0.0111377 1.67868e-07)
(-0.153748 -0.0208945 1.09148e-06)
(-0.149465 -0.0340552 2.1652e-06)
(-0.148879 0.0367449 -4.18878e-06)
(-0.149613 0.022823 -2.65763e-06)
(-0.14852 0.0136233 -1.17474e-06)
(-0.147172 0.00797595 -6.10376e-07)
(-0.146038 0.00467139 -2.57969e-07)
(-0.145206 0.00281402 -7.77469e-08)
(-0.144618 0.00182889 -8.34267e-09)
(-0.144183 0.0013745 1.44828e-08)
(-0.143824 0.00125338 1.79557e-08)
(-0.143484 0.00134732 1.27865e-08)
(-0.143131 0.00157224 2.40131e-09)
(-0.142754 0.0018427 -1.29602e-08)
(-0.142377 0.00203736 -3.39969e-08)
(-0.142064 0.00195769 -6.13725e-08)
(-0.141929 0.00127311 -7.35245e-08)
(-0.142128 -0.000553108 1.02191e-09)
(-0.142804 -0.00434747 1.13394e-07)
(-0.143936 -0.0112541 3.82734e-07)
(-0.145035 -0.0226257 2.5525e-06)
(-0.144212 -0.0394913 5.92038e-06)
(-0.136481 0.0377902 -7.17166e-06)
(-0.132272 0.0206728 -2.77452e-06)
(-0.127925 0.0110708 -5.11746e-07)
(-0.124797 0.0059199 -2.10894e-07)
(-0.122733 0.00322226 1.90514e-08)
(-0.121426 0.00183763 1.02927e-07)
(-0.120586 0.00115553 9.60304e-08)
(-0.12 0.000863947 7.77081e-08)
(-0.119523 0.000804895 6.3847e-08)
(-0.119062 0.000895417 5.43942e-08)
(-0.118558 0.00108393 4.67005e-08)
(-0.117986 0.00132149 3.67111e-08)
(-0.117362 0.00153519 1.80778e-08)
(-0.116763 0.0015934 -2.5335e-08)
(-0.11636 0.00124931 -8.82724e-08)
(-0.116457 4.08227e-05 -3.93501e-08)
(-0.11749 -0.00287767 5.81666e-08)
(-0.119982 -0.00894069 -2.853e-07)
(-0.12431 -0.0204359 2.31186e-06)
(-0.128884 -0.0405017 9.57284e-06)
(-0.109127 0.0325526 -9.05918e-06)
(-0.0983356 0.0138711 3.92551e-06)
(-0.0913506 0.00603766 4.2713e-06)
(-0.0875187 0.00272387 1.74102e-06)
(-0.085377 0.00129507 8.69741e-07)
(-0.0841648 0.000673596 5.10102e-07)
(-0.0834444 0.000408603 3.00319e-07)
(-0.0829579 0.000314495 2.11331e-07)
(-0.0825556 0.000315109 1.94215e-07)
(-0.0821451 0.000378596 2.15809e-07)
(-0.0816667 0.000490047 2.59938e-07)
(-0.0810847 0.000637664 3.13451e-07)
(-0.0803936 0.00080147 3.52972e-07)
(-0.0796379 0.000936486 3.17261e-07)
(-0.0789569 0.000937868 1.23256e-07)
(-0.0786635 0.000560778 -1.98493e-07)
(-0.0793183 -0.000771355 -1.17523e-06)
(-0.0819598 -0.0044224 -5.15876e-06)
(-0.0886265 -0.0134271 -6.66144e-06)
(-0.100404 -0.0346463 1.08315e-05)
(-0.0562691 0.0201519 -4.88099e-05)
(-0.0416545 0.00571245 -7.62293e-06)
(-0.0359776 0.00169572 -3.76489e-07)
(-0.0339955 0.000513347 -1.24219e-06)
(-0.0331599 0.000156722 -7.90878e-07)
(-0.0327596 5.36992e-05 -3.48782e-07)
(-0.0325408 2.89886e-05 -1.85116e-07)
(-0.0323873 2.99694e-05 -1.22438e-07)
(-0.0322417 4.24651e-05 -1.01036e-07)
(-0.0320688 6.39745e-05 -1.06646e-07)
(-0.0318407 9.55443e-05 -1.3044e-07)
(-0.0315327 0.000139285 -1.64097e-07)
(-0.0311239 0.000197085 -1.9596e-07)
(-0.0306031 0.000267873 -2.04833e-07)
(-0.0299869 0.000338552 -1.09081e-07)
(-0.0293661 0.000355494 3.1096e-07)
(-0.0290168 0.000124862 6.40162e-07)
(-0.0297167 -0.00106708 -1.56258e-06)
(-0.0345659 -0.00556565 3.82683e-06)
(-0.0508551 -0.0221139 5.93769e-05)
(-0.0274507 0.000603862 -1.43474e-06)
(-0.029149 0.000431166 -9.86112e-07)
(-0.0303427 0.000289086 -6.38107e-07)
(-0.0311414 0.000184063 -3.90616e-07)
(-0.0316572 0.000113453 -2.29426e-07)
(-0.0319871 7.05831e-05 -1.33558e-07)
(-0.0322062 4.84193e-05 -8.36857e-08)
(-0.0323699 4.13599e-05 -6.53233e-08)
(-0.0325189 4.56042e-05 -6.86083e-08)
(-0.0326831 5.8748e-05 -8.76925e-08)
(-0.0328846 7.89949e-05 -1.19107e-07)
(-0.0331374 0.000104156 -1.59288e-07)
(-0.0334454 0.000130514 -2.02696e-07)
(-0.0337956 0.000151624 -2.39782e-07)
(-0.03415 0.000157299 -2.54842e-07)
(-0.0344355 0.000133349 -2.26065e-07)
(-0.034534 6.29064e-05 -1.2013e-07)
(-0.034283 -7.16214e-05 1.10559e-07)
(-0.0334884 -0.000278068 5.05065e-07)
(-0.0319587 -0.000548045 1.08934e-06)
(-0.0703639 0.00378364 1.3453e-06)