/*--------------------------------*- C++ -*----------------------------------*\
| =========                 |                                                 |
| \\      /  F ield         | OpenFOAM: The Open Source CFD Toolbox           |
|  \\    /   O peration     | Version:  2.4.0                                 |
|   \\  /    A nd           | Web:      www.OpenFOAM.org                      |
|    \\/     M anipulation  |                                                 |
\*---------------------------------------------------------------------------*/
FoamFile
{
    version     2.0;
    format      ascii;
    class       volScalarField;
    location    "0.535";
    object      T;
}
// * * * * * * * * * * * * * * * * * * * * * * * * * * * * * * * * * * * * * //

dimensions      [0 0 0 1 0 0 0];

internalField   nonuniform List<scalar> 
1600
(
101.372
104.116
106.858
109.597
112.331
115.06
117.781
120.494
123.197
125.889
128.569
131.236
133.888
136.524
139.143
141.745
144.328
146.892
149.437
151.961
154.465
156.948
159.41
161.852
164.274
166.677
169.06
171.427
173.776
176.109
178.429
180.735
183.029
185.313
187.587
189.854
192.115
194.372
196.624
198.875
101.373
104.119
106.862
109.603
112.339
115.07
117.793
120.507
123.212
125.906
128.588
131.255
133.909
136.546
139.167
141.769
144.353
146.918
149.463
151.987
154.491
156.974
159.436
161.877
164.299
166.7
169.083
171.448
173.796
176.128
178.446
180.75
183.043
185.325
187.598
189.863
192.122
194.377
196.627
198.876
101.375
104.124
106.871
109.615
112.355
115.089
117.815
120.533
123.242
125.939
128.623
131.294
133.949
136.589
139.212
141.817
144.402
146.968
149.514
152.039
154.543
157.026
159.488
161.928
164.348
166.749
169.129
171.492
173.837
176.167
178.481
180.782
183.071
185.35
187.619
189.881
192.136
194.386
196.633
198.878
101.378
104.132
106.885
109.634
112.379
115.118
117.849
120.572
123.285
125.987
128.675
131.35
134.01
136.653
139.279
141.886
144.474
147.042
149.59
152.116
154.62
157.103
159.564
162.004
164.422
166.82
169.198
171.558
173.899
176.224
178.534
180.83
183.114
185.387
187.651
189.907
192.156
194.401
196.642
198.881
101.381
104.142
106.902
109.658
112.41
115.156
117.894
120.624
123.343
126.05
128.745
131.425
134.089
136.737
139.367
141.978
144.569
147.14
149.689
152.217
154.722
157.205
159.665
162.103
164.519
166.915
169.289
171.644
173.981
176.301
178.605
180.894
183.171
185.437
187.694
189.942
192.184
194.421
196.654
198.885
101.385
104.155
106.924
109.689
112.449
115.203
117.95
120.687
123.414
126.129
128.83
131.517
134.187
136.841
139.476
142.091
144.686
147.26
149.812
152.341
154.847
157.33
159.79
162.226
164.64
167.032
169.402
171.752
174.083
176.396
178.693
180.974
183.243
185.5
187.747
189.986
192.218
194.445
196.668
198.89
101.391
104.171
106.95
109.725
112.496
115.26
118.016
120.763
123.498
126.222
128.932
131.626
134.304
136.964
139.605
142.225
144.825
147.402
149.957
152.488
154.996
157.479
159.938
162.372
164.783
167.171
169.537
171.881
174.205
176.51
178.798
181.071
183.329
185.575
187.812
190.039
192.26
194.475
196.686
198.896
101.397
104.189
106.98
109.767
112.55
115.325
118.093
120.85
123.597
126.33
129.049
131.752
134.438
137.106
139.754
142.38
144.985
147.567
150.125
152.658
155.167
157.65
160.108
162.541
164.949
167.333
169.693
172.031
174.347
176.643
178.921
181.183
183.43
185.664
187.887
190.101
192.308
194.51
196.707
198.903
101.404
104.21
107.015
109.816
112.611
115.4
118.18
120.95
123.708
126.453
129.182
131.896
134.591
137.267
139.922
142.555
145.166
147.752
150.314
152.85
155.36
157.844
160.301
162.732
165.137
167.516
169.87
172.2
174.508
176.795
179.062
181.311
183.545
185.765
187.973
190.172
192.364
194.549
196.731
198.911
101.411
104.233
107.053
109.87
112.68
115.484
118.278
121.062
123.833
126.59
129.332
132.056
134.761
137.446
140.11
142.751
145.367
147.959
150.525
153.064
155.575
158.06
160.516
162.945
165.346
167.72
170.067
172.39
174.688
176.964
179.219
181.455
183.674
185.878
188.071
190.252
192.426
194.594
196.758
198.92
101.42
104.259
107.097
109.93
112.757
115.577
118.387
121.186
123.972
126.742
129.497
132.233
134.95
137.645
140.317
142.966
145.589
148.186
150.756
153.298
155.811
158.296
160.751
163.178
165.575
167.944
170.285
172.599
174.887
177.151
179.393
181.614
183.818
186.005
188.179
190.342
192.497
194.645
196.789
198.93
101.43
104.288
107.144
109.997
112.842
115.68
118.507
121.323
124.124
126.91
129.678
132.428
135.156
137.862
140.544
143.201
145.831
148.434
151.008
153.553
156.068
158.553
161.007
163.431
165.824
168.187
170.521
172.826
175.104
177.356
179.584
181.79
183.976
186.145
188.299
190.441
192.574
194.7
196.822
198.941
101.44
104.32
107.197
110.07
112.936
115.793
118.639
121.473
124.291
127.094
129.877
132.64
135.381
138.098
140.791
143.456
146.094
148.702
151.281
153.829
156.345
158.83
161.283
163.703
166.092
168.449
170.775
173.071
175.338
177.578
179.791
181.98
184.148
186.297
188.43
190.55
192.659
194.761
196.859
198.953
101.452
104.354
107.255
110.15
113.038
115.917
118.784
121.637
124.474
127.293
130.093
132.871
135.626
138.355
141.058
143.732
146.377
148.992
151.575
154.126
156.644
159.128
161.579
163.996
166.38
168.731
171.049
173.335
175.59
177.816
180.014
182.186
184.335
186.463
188.573
190.668
192.752
194.828
196.899
198.966
101.465
104.393
107.318
110.238
113.15
116.052
118.941
121.815
124.673
127.511
130.328
133.122
135.891
138.633
141.346
144.03
146.683
149.304
151.891
154.445
156.964
159.448
161.897
164.31
166.689
169.032
171.341
173.617
175.86
178.072
180.254
182.408
184.536
186.642
188.727
190.797
192.853
194.901
196.943
198.981
101.479
104.434
107.387
110.334
113.272
116.199
119.113
122.01
124.889
127.747
130.583
133.394
136.178
138.933
141.659
144.353
147.013
149.64
152.232
154.789
157.308
159.792
162.238
164.647
167.02
169.355
171.655
173.919
176.149
178.345
180.51
182.645
184.752
186.834
188.894
190.936
192.963
194.98
196.991
198.997
101.494
104.48
107.463
110.439
113.406
116.36
119.3
122.222
125.125
128.005
130.86
133.689
136.489
139.259
141.997
144.701
147.37
150.003
152.6
155.159
157.68
160.162
162.605
165.01
167.376
169.703
171.992
174.244
176.459
178.639
180.785
182.899
184.984
187.041
189.074
191.086
193.082
195.065
197.043
199.014
101.511
104.53
107.546
110.554
113.552
116.536
119.504
122.453
125.381
128.284
131.161
134.009
136.827
139.612
142.363
145.078
147.756
150.396
152.998
155.559
158.081
160.562
163.002
165.401
167.76
170.077
172.355
174.593
176.792
178.954
181.08
183.172
185.232
187.263
189.267
191.248
193.21
195.158
197.099
199.032
101.529
104.585
107.636
110.679
113.711
116.728
119.728
122.706
125.661
128.589
131.489
134.358
137.194
139.995
142.76
145.487
148.175
150.822
153.429
155.994
158.516
160.996
163.432
165.825
168.176
170.483
172.748
174.971
177.153
179.295
181.399
183.467
185.5
187.502
189.475
191.422
193.348
195.258
197.159
199.053
101.549
104.645
107.736
110.817
113.886
116.939
119.972
122.982
125.967
128.923
131.847
134.739
137.595
140.413
143.193
145.932
148.63
151.285
153.897
156.465
158.989
161.467
163.899
166.286
168.627
170.923
173.174
175.381
177.544
179.665
181.745
183.786
185.79
187.76
189.699
191.611
193.498
195.367
197.225
199.074
101.571
104.711
107.845
110.969
114.079
117.171
120.241
123.285
126.302
129.287
132.239
135.154
138.032
140.869
143.665
146.417
149.126
151.79
154.408
156.979
159.503
161.979
164.408
166.788
169.119
171.403
173.639
175.828
177.97
180.067
182.121
184.133
186.105
188.04
189.943
191.815
193.661
195.486
197.297
199.098
101.596
104.784
107.966
111.136
114.291
117.425
120.536
123.618
126.67
129.687
132.668
135.609
138.51
141.367
144.18
146.947
149.668
152.341
154.965
157.54
160.064
162.539
164.962
167.335
169.656
171.926
174.146
176.315
178.435
180.507
182.531
184.511
186.448
188.346
190.208
192.037
193.838
195.615
197.376
199.124
101.623
104.865
108.1
111.321
114.525
117.706
120.861
123.985
127.074
130.127
133.139
136.108
139.033
141.913
144.744
147.527
150.26
152.942
155.573
158.151
160.677
163.149
165.568
167.932
170.242
172.498
174.699
176.848
178.943
180.987
182.981
184.926
186.825
188.681
190.498
192.28
194.031
195.755
197.462
199.153
101.652
104.954
108.247
111.526
114.784
118.017
121.22
124.389
127.52
130.61
133.656
136.656
139.608
142.51
145.362
148.161
150.907
153.6
156.237
158.82
161.346
163.816
166.229
168.585
170.882
173.123
175.305
177.431
179.5
181.514
183.473
185.38
187.238
189.048
190.816
192.546
194.242
195.91
197.557
199.184
101.686
105.054
108.412
111.753
115.071
118.361
121.617
124.835
128.011
131.142
134.225
137.258
140.239
143.166
146.038
148.855
151.615
154.318
156.964
159.55
162.077
164.545
166.952
169.298
171.583
173.806
175.968
178.07
180.11
182.091
184.014
185.88
187.692
189.453
191.167
192.84
194.475
196.079
197.661
199.218
101.723
105.165
108.594
112.005
115.39
118.742
122.057
125.329
128.554
131.729
134.852
137.92
140.931
143.885
146.779
149.615
152.39
155.104
157.757
160.348
162.876
165.34
167.741
170.077
172.348
174.554
176.695
178.77
180.78
182.726
184.609
186.431
188.193
189.9
191.555
193.164
194.733
196.267
197.776
199.257
101.764
105.288
108.799
112.287
115.745
119.166
122.545
125.875
129.154
132.377
135.542
138.648
141.692
144.673
147.592
150.446
153.237
155.963
158.624
161.219
163.747
166.209
168.603
170.928
173.185
175.372
177.49
179.537
181.515
183.424
185.264
187.038
188.747
190.394
191.985
193.524
195.019
196.475
197.904
199.299
101.811
105.427
109.027
112.601
116.141
119.638
123.087
126.482
129.818
133.092
136.303
139.448
142.527
145.538
148.481
151.356
154.163
156.9
159.569
162.169
164.698
167.156
169.543
171.857
174.099
176.266
178.36
180.378
182.322
184.19
185.985
187.707
189.358
190.942
192.462
193.925
195.337
196.707
198.046
199.347
101.863
105.583
109.284
112.954
116.584
120.165
123.691
127.155
130.553
133.882
137.142
140.329
143.443
146.485
149.454
152.35
155.173
157.923
160.6
163.203
165.733
168.188
170.567
172.87
175.096
177.243
179.311
181.299
183.207
185.034
186.78
188.447
190.036
191.55
192.993
194.371
195.693
196.967
198.205
199.4
101.922
105.759
109.573
113.351
117.082
120.755
124.364
127.902
131.367
134.755
138.065
141.296
144.448
147.522
150.517
153.434
156.274
159.036
161.722
164.329
166.859
169.31
171.682
173.973
176.182
178.309
180.351
182.308
184.178
185.961
187.656
189.265
190.787
192.226
193.585
194.871
196.092
197.258
198.383
199.459
101.989
105.959
109.901
113.8
117.641
121.416
125.115
128.734
132.269
135.719
139.082
142.358
145.549
148.655
151.677
154.616
157.472
160.247
162.94
165.552
168.082
170.529
172.893
175.172
177.365
179.47
181.486
183.411
185.242
186.98
188.623
190.17
191.621
192.98
194.248
195.432
196.542
197.588
198.585
199.527
102.067
106.188
110.275
114.309
118.274
122.159
125.956
129.661
133.27
136.783
140.2
143.523
146.753
149.891
152.94
155.9
158.773
161.56
164.261
166.877
169.407
171.851
174.207
176.474
178.65
180.734
182.724
184.616
186.409
188.101
189.689
191.172
192.55
193.822
194.992
196.066
197.051
197.963
198.814
199.604
102.156
106.452
110.705
114.891
118.993
122.998
126.899
130.693
134.379
137.957
141.43
144.799
148.068
151.238
154.313
157.294
160.183
162.982
165.691
168.311
170.84
173.28
175.628
177.884
180.044
182.108
184.071
185.932
187.686
189.332
190.865
192.283
193.584
194.766
195.832
196.785
197.633
198.392
199.077
199.694
102.26
106.76
111.204
115.562
119.813
123.947
127.958
131.844
135.608
139.252
142.779
146.194
149.5
152.702
155.802
158.803
161.708
164.518
167.234
169.857
172.387
174.823
177.164
179.408
181.553
183.597
185.536
187.366
189.083
190.684
192.162
193.515
194.738
195.827
196.782
197.605
198.302
198.889
199.382
199.8
102.385
107.127
111.792
116.341
120.756
125.026
129.149
133.129
136.97
140.677
144.257
147.716
151.058
154.289
157.413
160.433
163.352
166.172
168.895
171.521
174.051
176.484
178.818
181.052
183.183
185.209
187.124
188.926
190.609
192.167
193.594
194.883
196.029
197.024
197.865
198.55
199.081
199.474
199.745
199.929
102.539
107.573
112.495
117.258
121.846
126.256
130.493
134.563
138.478
142.245
145.874
149.373
152.748
156.005
159.15
162.187
165.119
167.949
170.678
173.308
175.838
178.267
180.596
182.821
184.94
186.949
188.845
190.621
192.273
193.792
195.172
196.403
197.475
198.379
199.105
199.646
199.998
200.175
200.184
200.085
102.738
108.136
113.355
118.35
123.117
127.665
132.008
136.163
140.144
143.965
147.637
151.171
154.575
157.855
161.019
164.071
167.015
169.853
172.588
175.22
177.75
180.178
182.502
184.72
186.83
188.826
190.705
192.46
194.085
195.572
196.911
198.091
199.098
199.919
200.536
200.934
201.097
201.032
200.727
200.279
103.011
108.879
114.434
119.667
124.605
129.279
133.717
137.944
141.981
145.847
149.555
153.118
156.545
159.846
163.025
166.089
169.042
171.888
174.628
177.263
179.795
182.222
184.543
186.756
188.858
190.845
192.711
194.45
196.055
197.517
198.824
199.963
200.919
201.671
202.195
202.464
202.444
202.118
201.432
200.54
103.471
109.92
115.81
121.264
126.351
131.128
135.64
139.923
144.003
147.903
151.638
155.223
158.668
161.983
165.174
168.248
171.209
174.061
176.805
179.444
181.977
184.404
186.724
188.935
191.033
193.014
194.872
196.601
198.193
199.638
200.923
202.035
202.954
203.658
204.116
204.29
204.121
203.553
202.444
200.98
104.318
111.505
117.67
123.273
128.451
133.286
137.838
142.15
146.253
150.17
153.92
157.516
160.971
164.294
167.492
170.571
173.537
176.392
179.139
181.779
184.314
186.741
189.061
191.27
193.366
195.343
197.197
198.921
200.506
201.942
203.216
204.312
205.211
205.888
206.308
206.431
206.179
205.475
204.073
202.029
)
;

boundaryField
{
    carasuperior
    {
        type            fixedGradient;
        gradient        uniform 100;
    }
    lateralizquierda
    {
        type            fixedValue;
        value           uniform 100;
    }
    lateralderecha
    {
        type            fixedValue;
        value           uniform 200;
    }
    carainferior
    {
        type            zeroGradient;
    }
    frontAndBack
    {
        type            empty;
    }
}


// ************************************************************************* //
