/*--------------------------------*- C++ -*----------------------------------*\
| =========                 |                                                 |
| \\      /  F ield         | OpenFOAM: The Open Source CFD Toolbox           |
|  \\    /   O peration     | Version:  2.4.0                                 |
|   \\  /    A nd           | Web:      www.OpenFOAM.org                      |
|    \\/     M anipulation  |                                                 |
\*---------------------------------------------------------------------------*/
FoamFile
{
    version     2.0;
    format      ascii;
    class       volScalarField;
    location    "1";
    object      T;
}
// * * * * * * * * * * * * * * * * * * * * * * * * * * * * * * * * * * * * * //

dimensions      [0 0 0 1 0 0 0];

internalField   nonuniform List<scalar> 
1600
(
101.414
104.24
107.064
109.883
112.696
115.501
118.296
121.079
123.849
126.604
129.342
132.062
134.762
137.441
140.097
142.73
145.338
147.921
150.477
153.007
155.51
157.986
160.435
162.857
165.253
167.624
169.97
172.293
174.594
176.874
179.135
181.379
183.607
185.821
188.023
190.214
192.398
194.574
196.746
198.916
101.415
104.243
107.068
109.889
112.704
115.511
118.308
121.093
123.864
126.621
129.36
132.082
134.783
137.463
140.121
142.754
145.363
147.947
150.504
153.034
155.537
158.012
160.461
162.883
165.278
167.648
169.993
172.315
174.614
176.893
179.152
181.394
183.621
185.833
188.033
190.223
192.405
194.579
196.749
198.917
101.416
104.248
107.077
109.902
112.72
115.53
118.33
121.119
123.894
126.653
129.396
132.12
134.824
137.506
140.166
142.802
145.412
147.997
150.555
153.086
155.589
158.064
160.513
162.933
165.328
167.696
170.039
172.358
174.655
176.931
179.188
181.426
183.649
185.858
188.054
190.24
192.418
194.589
196.755
198.919
101.419
104.256
107.09
109.92
112.744
115.559
118.365
121.158
123.938
126.702
129.449
132.177
134.885
137.57
140.233
142.872
145.485
148.071
150.63
153.162
155.666
158.141
160.589
163.009
165.401
167.767
170.108
172.424
174.717
176.988
179.24
181.474
183.692
185.895
188.086
190.267
192.438
194.604
196.764
198.922
101.422
104.266
107.108
109.945
112.775
115.598
118.41
121.209
123.995
126.765
129.518
132.251
134.964
137.655
140.322
142.964
145.58
148.169
150.73
153.263
155.767
158.243
160.69
163.108
165.498
167.861
170.198
172.51
174.798
177.065
179.311
181.538
183.749
185.945
188.129
190.302
192.466
194.623
196.776
198.926
101.427
104.28
107.13
109.975
112.814
115.645
118.465
121.273
124.067
126.844
129.604
132.344
135.063
137.759
140.431
143.077
145.697
148.289
150.853
153.387
155.893
158.368
160.814
163.231
165.619
167.978
170.311
172.618
174.9
177.16
179.398
181.618
183.82
186.008
188.182
190.345
192.5
194.648
196.79
198.931
101.432
104.295
107.156
110.012
112.861
115.702
118.532
121.349
124.152
126.938
129.706
132.453
135.179
137.882
140.56
143.211
145.836
148.432
150.998
153.535
156.041
158.517
160.962
163.377
165.762
168.118
170.445
172.746
175.022
177.274
179.504
181.714
183.906
186.083
188.246
190.398
192.541
194.677
196.808
198.936
101.438
104.313
107.186
110.054
112.915
115.767
118.609
121.437
124.25
127.046
129.823
132.58
135.314
138.024
140.709
143.367
145.996
148.596
151.166
153.705
156.213
158.689
161.133
163.546
165.927
168.279
170.601
172.895
175.163
177.406
179.626
181.825
184.006
186.171
188.321
190.46
192.59
194.712
196.829
198.943
101.445
104.334
107.221
110.102
112.977
115.842
118.696
121.537
124.362
127.169
129.957
132.724
135.467
138.186
140.878
143.542
146.177
148.782
151.355
153.897
156.406
158.882
161.326
163.736
166.115
168.462
170.778
173.065
175.324
177.557
179.766
181.953
184.121
186.271
188.407
190.531
192.645
194.752
196.853
198.951
101.453
104.357
107.26
110.157
113.046
115.926
118.794
121.649
124.487
127.307
130.107
132.884
135.638
138.365
141.066
143.737
146.379
148.989
151.566
154.111
156.621
159.098
161.54
163.949
166.323
168.665
170.975
173.254
175.504
177.726
179.923
182.097
184.25
186.385
188.504
190.611
192.708
194.796
196.88
198.96
101.462
104.384
107.303
110.217
113.123
116.02
118.904
121.773
124.626
127.459
130.272
133.062
135.826
138.564
141.273
143.953
146.601
149.216
151.798
154.345
156.857
159.334
161.776
164.182
166.552
168.889
171.192
173.462
175.702
177.913
180.097
182.256
184.393
186.511
188.612
190.7
192.777
194.847
196.91
198.97
101.471
104.412
107.351
110.284
113.208
116.123
119.024
121.91
124.779
127.627
130.454
133.256
136.033
138.782
141.5
144.188
146.843
149.464
152.05
154.6
157.114
159.591
162.031
164.435
166.801
169.132
171.428
173.69
175.919
178.117
180.287
182.431
184.551
186.65
188.732
190.799
192.855
194.902
196.944
198.981
101.482
104.444
107.404
110.357
113.302
116.236
119.156
122.06
124.946
127.811
130.653
133.469
136.258
139.018
141.747
144.444
147.106
149.733
152.323
154.876
157.392
159.869
162.307
164.707
167.07
169.394
171.682
173.935
176.153
178.339
180.494
182.621
184.723
186.802
188.863
190.907
192.94
194.963
196.98
198.994
101.494
104.479
107.461
110.437
113.404
116.36
119.3
122.224
125.129
128.011
130.869
133.7
136.503
139.275
142.015
144.72
147.39
150.022
152.617
155.173
157.69
160.167
162.604
165
167.358
169.676
171.956
174.198
176.405
178.577
180.717
182.827
184.909
186.968
189.005
191.026
193.033
195.03
197.021
199.007
101.506
104.517
107.525
110.525
113.516
116.495
119.458
122.403
125.327
128.229
131.104
133.951
136.768
139.553
142.304
145.018
147.696
150.335
152.934
155.493
158.011
160.487
162.922
165.315
167.667
169.978
172.249
174.481
176.675
178.833
180.956
183.048
185.11
187.147
189.16
191.154
193.134
195.102
197.065
199.022
101.52
104.559
107.594
110.621
113.638
116.642
119.63
122.598
125.544
128.465
131.359
134.223
137.055
139.854
142.616
145.341
148.026
150.671
153.275
155.837
158.356
160.831
163.263
165.652
167.998
170.301
172.563
174.783
176.964
179.107
181.213
183.285
185.326
187.339
189.327
191.293
193.243
195.181
197.112
199.037
101.535
104.604
107.669
110.726
113.772
116.803
119.817
122.81
125.779
128.722
131.636
134.518
137.367
140.179
142.954
145.689
148.383
151.035
153.643
156.208
158.727
161.202
163.631
166.015
168.355
170.649
172.9
175.108
177.274
179.401
181.488
183.54
185.558
187.546
189.506
191.443
193.362
195.267
197.164
199.054
101.552
104.654
107.752
110.841
113.918
116.979
120.021
123.041
126.036
129.002
131.937
134.839
137.704
140.532
143.32
146.066
148.769
151.428
154.041
156.608
159.129
161.602
164.029
166.407
168.739
171.025
173.264
175.458
177.609
179.717
181.784
183.814
185.807
187.768
189.7
191.606
193.49
195.36
197.22
199.073
101.57
104.709
107.843
110.967
114.077
117.171
120.244
123.293
126.315
129.307
132.265
135.187
138.072
140.916
143.717
146.475
149.188
151.854
154.473
157.043
159.564
162.037
164.459
166.832
169.156
171.431
173.658
175.837
177.97
180.058
182.104
184.109
186.076
188.008
189.908
191.78
193.629
195.46
197.281
199.093
101.59
104.769
107.942
111.104
114.252
117.382
120.489
123.57
126.621
129.64
132.623
135.568
138.472
141.333
144.15
146.921
149.643
152.317
154.942
157.515
160.037
162.508
164.927
167.294
169.609
171.872
174.085
176.248
178.362
180.429
182.451
184.429
186.366
188.267
190.133
191.969
193.779
195.569
197.347
199.115
101.613
104.835
108.051
111.256
114.445
117.613
120.757
123.872
126.956
130.004
133.014
135.983
138.909
141.789
144.622
147.406
150.14
152.822
155.452
158.029
160.553
163.022
165.436
167.796
170.102
172.353
174.551
176.696
178.789
180.833
182.828
184.777
186.682
188.548
190.377
192.174
193.942
195.688
197.419
199.139
101.637
104.908
108.172
111.423
114.656
117.867
121.052
124.205
127.323
130.404
133.443
136.438
139.387
142.287
145.137
147.936
150.681
153.373
156.01
158.59
161.115
163.582
165.992
168.344
170.639
172.877
175.059
177.185
179.256
181.273
183.24
185.156
187.027
188.854
190.643
192.397
194.12
195.817
197.498
199.165
101.664
104.989
108.305
111.608
114.89
118.148
121.376
124.571
127.727
130.843
133.913
136.936
139.91
142.832
145.701
148.515
151.273
153.975
156.618
159.203
161.728
164.193
166.598
168.943
171.227
173.45
175.614
177.719
179.765
181.755
183.69
185.572
187.404
189.19
190.934
192.64
194.313
195.958
197.584
199.193
101.694
105.078
108.453
111.812
115.149
118.458
121.735
124.975
128.172
131.325
134.43
137.484
140.484
143.43
146.318
149.149
151.921
154.632
157.283
159.872
162.398
164.861
167.261
169.597
171.869
174.077
176.221
178.304
180.324
182.283
184.184
186.029
187.819
189.559
191.254
192.907
194.525
196.113
197.679
199.225
101.727
105.178
108.617
112.039
115.436
118.802
122.132
125.42
128.663
131.857
134.999
138.085
141.114
144.085
146.995
149.843
152.629
155.351
158.009
160.602
163.13
165.59
167.984
170.311
172.57
174.762
176.886
178.944
180.936
182.863
184.727
186.53
188.275
189.965
191.606
193.202
194.759
196.283
197.784
199.26
101.764
105.288
108.8
112.291
115.754
119.183
122.571
125.913
129.206
132.444
135.625
138.747
141.807
144.803
147.736
150.603
153.404
156.137
158.803
161.401
163.929
166.387
168.775
171.092
173.337
175.511
177.614
179.646
181.607
183.499
185.324
187.082
188.778
190.413
191.995
193.527
195.017
196.471
197.899
199.298
101.806
105.412
109.004
112.572
116.109
119.606
123.059
126.46
129.805
133.091
136.315
139.474
142.567
145.592
148.548
151.434
154.251
156.996
159.67
162.272
164.801
167.256
169.638
171.944
174.175
176.331
178.411
180.415
182.344
184.199
185.98
187.691
189.332
190.909
192.426
193.889
195.304
196.68
198.027
199.341
101.852
105.55
109.232
112.886
116.505
120.078
123.601
127.066
130.469
133.806
137.075
140.274
143.401
146.456
149.437
152.344
155.176
157.934
160.616
163.222
165.752
168.204
170.579
172.874
175.091
177.227
179.283
181.258
183.153
184.967
186.703
188.362
189.946
191.458
192.904
194.29
195.623
196.913
198.17
199.388
101.904
105.706
109.488
113.239
116.948
120.605
124.204
127.738
131.203
134.596
137.913
141.154
144.318
147.403
150.41
153.337
156.187
158.957
161.647
164.258
166.788
169.237
171.604
173.889
176.089
178.205
180.236
182.181
184.04
185.813
187.5
189.104
190.625
192.068
193.437
194.738
195.98
197.173
198.329
199.441
101.963
105.882
109.778
113.636
117.445
121.194
124.876
128.485
132.017
135.468
138.836
142.121
145.322
148.439
151.472
154.422
157.288
160.07
162.769
165.384
167.915
170.361
172.72
174.993
177.177
179.272
181.277
183.191
185.013
186.742
188.379
189.924
191.379
192.746
194.031
195.239
196.38
197.466
198.508
199.501
102.031
106.082
110.105
114.084
118.004
121.855
125.628
129.317
132.919
136.431
139.852
143.183
146.422
149.572
152.632
155.603
158.486
161.281
163.988
166.607
169.138
171.58
173.932
176.193
178.361
180.436
182.414
184.296
186.079
187.763
189.347
190.831
192.215
193.502
194.695
195.802
196.831
197.797
198.71
199.569
102.108
106.311
110.479
114.593
118.637
122.598
126.468
130.243
133.918
137.494
140.97
144.347
147.626
150.808
153.895
156.887
159.787
162.594
165.31
167.933
170.464
172.903
175.247
177.496
179.648
181.701
183.654
185.503
187.248
188.886
190.415
191.835
193.145
194.346
195.441
196.437
197.342
198.172
198.94
199.647
102.197
106.575
110.909
115.175
119.355
123.436
127.41
131.274
135.027
138.668
142.199
145.622
148.94
152.154
155.267
158.281
161.197
164.016
166.739
169.367
171.898
174.333
176.67
178.907
181.043
183.076
185.003
186.821
188.527
190.119
191.594
192.948
194.181
195.292
196.283
197.157
197.925
198.602
199.203
199.736
102.301
106.883
111.408
115.845
120.175
124.385
128.468
132.425
136.255
139.962
143.548
147.017
150.372
153.618
156.756
159.79
162.721
165.552
168.283
170.914
173.445
175.876
178.206
180.433
182.554
184.567
186.469
188.257
189.926
191.473
192.893
194.183
195.338
196.355
197.235
197.98
198.596
199.1
199.509
199.843
102.426
107.249
111.995
116.625
121.117
125.463
129.659
133.709
137.617
141.387
145.025
148.538
151.929
155.204
158.366
161.419
164.365
167.206
169.944
172.578
175.11
177.538
179.861
182.078
184.185
186.18
188.06
189.819
191.454
192.958
194.327
195.553
196.631
197.555
198.32
198.926
199.376
199.687
199.873
199.971
102.58
107.696
112.698
117.541
122.207
126.693
131.002
135.143
139.124
142.954
146.641
150.194
153.618
156.919
160.103
163.173
166.132
168.983
171.727
174.365
176.897
179.322
181.64
183.848
185.943
187.923
189.782
191.516
193.12
194.586
195.907
197.075
198.08
198.912
199.562
200.024
200.294
200.388
200.313
200.128
102.779
108.258
113.558
118.633
123.477
128.1
132.517
136.741
140.789
144.673
148.403
151.991
155.444
158.769
161.972
165.056
168.027
170.887
173.636
176.277
178.81
181.234
183.547
185.748
187.834
189.8
191.643
193.356
194.934
196.368
197.648
198.765
199.704
200.453
200.994
201.313
201.395
201.247
200.857
200.323
103.052
109.001
114.637
119.949
124.965
129.714
134.224
138.521
142.625
146.554
150.321
153.937
157.414
160.758
163.977
167.074
170.055
172.921
175.676
178.321
180.855
183.278
185.588
187.785
189.863
191.82
193.651
195.348
196.906
198.314
199.563
200.639
201.527
202.207
202.655
202.846
202.744
202.333
201.562
200.584
103.511
110.041
116.012
121.545
126.709
131.561
136.146
140.499
144.646
148.608
152.402
156.041
159.536
162.895
166.125
169.232
172.221
175.094
177.854
180.501
183.037
185.46
187.77
189.964
192.039
193.99
195.813
197.5
199.045
200.437
201.664
202.713
203.564
204.196
204.578
204.674
204.422
203.77
202.575
201.023
104.359
111.626
117.872
123.553
128.809
133.719
138.344
142.726
146.895
150.875
154.683
158.334
161.838
165.205
168.443
171.555
174.548
177.425
180.187
182.837
185.374
187.798
190.107
192.299
194.372
196.32
198.139
199.821
201.359
202.742
203.958
204.991
205.822
206.427
206.772
206.815
206.481
205.693
204.205
202.073
)
;

boundaryField
{
    carasuperior
    {
        type            fixedGradient;
        gradient        uniform 100;
    }
    lateralizquierda
    {
        type            fixedValue;
        value           uniform 100;
    }
    lateralderecha
    {
        type            fixedValue;
        value           uniform 200;
    }
    carainferior
    {
        type            zeroGradient;
    }
    frontAndBack
    {
        type            empty;
    }
}


// ************************************************************************* //
