/*--------------------------------*- C++ -*----------------------------------*\
| =========                 |                                                 |
| \\      /  F ield         | OpenFOAM: The Open Source CFD Toolbox           |
|  \\    /   O peration     | Version:  2.4.0                                 |
|   \\  /    A nd           | Web:      www.OpenFOAM.org                      |
|    \\/     M anipulation  |                                                 |
\*---------------------------------------------------------------------------*/
FoamFile
{
    version     2.0;
    format      ascii;
    class       surfaceScalarField;
    location    "1.3";
    object      phi;
}
// * * * * * * * * * * * * * * * * * * * * * * * * * * * * * * * * * * * * * //

dimensions      [0 3 -1 0 0 0 0];

internalField   nonuniform List<scalar> 
12720
(
9.91817e-08
-9.93173e-08
8.59931e-11
-5.93472e-07
6.91022e-07
1.63202e-09
-2.04425e-06
1.44835e-06
2.4338e-09
-4.01656e-06
1.9692e-06
3.10744e-09
-6.29379e-06
2.27374e-06
3.49308e-09
-8.70016e-06
2.40273e-06
3.64248e-09
-1.10912e-05
2.38739e-06
3.63552e-09
-1.33412e-05
2.24658e-06
3.47527e-09
-1.53404e-05
1.99597e-06
3.1377e-09
1.66183e-06
2.60491e-09
-1.70048e-05
-7.17931e-07
6.19947e-07
-1.33255e-09
-3.14515e-06
3.11789e-06
3.52173e-10
-7.04082e-06
5.34547e-06
-1.45911e-09
-1.20093e-05
6.93994e-06
-2.24079e-09
-1.76436e-05
7.9106e-06
-2.61869e-09
-2.35677e-05
8.32973e-06
-2.85732e-09
-2.94419e-05
8.26443e-06
-2.85803e-09
-3.49587e-05
7.76606e-06
-2.65453e-09
-3.9852e-05
6.89159e-06
-2.32931e-09
5.73829e-06
-2.01012e-09
-4.39265e-05
-1.58265e-06
2.20492e-06
-2.32048e-09
-5.66054e-06
7.19368e-06
2.10235e-09
-1.16603e-05
1.13452e-05
1.04125e-10
-1.90362e-05
1.43159e-05
-6.89619e-11
-2.72625e-05
1.61367e-05
1.35008e-10
-3.58431e-05
1.69102e-05
1.31569e-10
-4.43092e-05
1.67304e-05
1.40662e-10
-5.22198e-05
1.56764e-05
1.87685e-10
-5.91825e-05
1.38541e-05
2.40218e-10
1.14616e-05
1.42658e-10
-6.4906e-05
-2.26381e-06
4.47204e-06
-3.30974e-09
-7.69539e-06
1.26224e-05
2.90179e-09
-1.53902e-05
1.904e-05
2.19311e-11
-2.46455e-05
2.35714e-05
-2.02592e-10
-3.48428e-05
2.63339e-05
1.44121e-10
-4.54064e-05
2.74736e-05
1.88986e-10
-5.57771e-05
2.71009e-05
2.26429e-10
-6.54054e-05
2.53044e-05
3.15407e-10
-7.37776e-05
2.22258e-05
4.81792e-10
1.81739e-05
4.13131e-10
-8.04903e-05
-2.72664e-06
7.20265e-06
-3.97395e-09
-9.11537e-06
1.90077e-05
3.36053e-09
-1.80136e-05
2.79385e-05
-3.39198e-10
-2.85926e-05
3.41512e-05
-7.5893e-10
-4.01661e-05
3.79077e-05
-4.15004e-10
-5.21065e-05
3.94145e-05
-3.81699e-10
-6.37905e-05
3.87852e-05
-3.27376e-10
-7.45722e-05
3.60863e-05
-1.54807e-10
-8.38001e-05
3.14533e-05
3.50283e-10
2.5279e-05
5.8459e-10
-9.09057e-05
-2.96353e-06
1.01705e-05
-4.27859e-09
-9.86296e-06
2.59035e-05
3.68448e-09
-1.9413e-05
3.74891e-05
-4.39836e-10
-3.07134e-05
4.54526e-05
-9.58803e-10
-4.3043e-05
5.02379e-05
-6.25242e-10
-5.57515e-05
5.21236e-05
-6.11442e-10
-6.8178e-05
5.12123e-05
-5.89981e-10
-7.95952e-05
4.75039e-05
-4.55117e-10
-8.919e-05
4.10475e-05
5.59002e-10
3.22127e-05
1.52867e-09
-9.61253e-05
-2.97542e-06
1.31501e-05
-4.26079e-09
-9.9188e-06
3.28431e-05
3.75202e-09
-1.95304e-05
4.71012e-05
-4.67236e-10
-3.08987e-05
5.68219e-05
-1.04656e-09
-4.33029e-05
6.26428e-05
-7.66382e-10
-5.61014e-05
6.49228e-05
-7.96221e-10
-6.86328e-05
6.37446e-05
-8.87746e-10
-8.01236e-05
5.89958e-05
-1.08269e-09
-8.95992e-05
5.05224e-05
7.19871e-10
3.84091e-05
3.79085e-09
-9.57994e-05
-2.77236e-06
1.59264e-05
-3.92219e-09
-9.30078e-06
3.93679e-05
3.57961e-09
-1.83735e-05
5.61743e-05
-4.26121e-10
-2.91166e-05
6.75661e-05
-1.02278e-09
-4.08334e-05
7.43604e-05
-8.21491e-10
-5.2912e-05
7.70023e-05
-8.42297e-10
-6.47299e-05
7.55634e-05
-9.56005e-10
-7.55346e-05
6.98023e-05
-1.72835e-09
-8.42662e-05
5.9252e-05
2.01845e-09
4.31979e-05
1.3278e-08
-8.90683e-05
-2.38136e-06
1.83111e-05
-3.2814e-09
-8.08402e-06
4.50674e-05
3.23181e-09
-1.60572e-05
6.41478e-05
-2.93953e-10
-2.54883e-05
7.69981e-05
-8.70477e-10
-3.56981e-05
8.4571e-05
-8.1581e-10
-4.60867e-05
8.73919e-05
-9.32257e-10
-5.60694e-05
8.55474e-05
-1.30674e-09
-6.49662e-05
7.87035e-05
-4.45278e-09
-7.18357e-05
6.61226e-05
-1.18879e-09
4.55741e-05
2.98007e-08
-7.42417e-05
-1.85554e-06
-2.40473e-09
2.0169e-05
-6.42661e-06
2.79321e-09
4.96356e-05
-1.28604e-05
-3.14735e-11
7.05816e-05
-2.04011e-05
-4.96138e-10
8.45393e-05
-2.83396e-05
-5.69256e-10
9.25101e-05
-3.59885e-05
-9.32122e-10
9.50418e-05
-4.26512e-05
-2.0717e-09
9.22122e-05
-4.75115e-05
-1.15695e-08
8.35754e-05
-4.952e-05
-2.65513e-08
6.81577e-05
7.96902e-09
-4.74383e-05
4.34844e-05
1.01117e-07
-1.01037e-07
6.06777e-12
-5.93884e-07
6.96624e-07
1.01888e-11
-2.04489e-06
1.45343e-06
1.10365e-11
-4.01665e-06
1.97485e-06
1.11852e-11
-6.29363e-06
2.28047e-06
1.13951e-11
-8.7e-06
2.41e-06
1.08345e-11
-1.10911e-05
2.39474e-06
1.03624e-11
-1.33413e-05
2.25366e-06
9.00069e-12
-1.53406e-05
2.00245e-06
7.86542e-12
1.66722e-06
6.59153e-12
-1.70053e-05
-7.22905e-07
6.20527e-07
9.03981e-12
-3.15019e-06
3.12425e-06
1.19595e-11
-7.04519e-06
5.34697e-06
1.27779e-11
-1.20123e-05
6.93969e-06
1.30128e-11
-1.76449e-05
7.91044e-06
1.28288e-11
-2.35676e-05
8.32983e-06
1.22558e-11
-2.94406e-05
8.26489e-06
1.1434e-11
-3.49566e-05
7.76702e-06
1.00659e-11
-3.98496e-05
6.89306e-06
8.67893e-12
5.73962e-06
7.44078e-12
-4.3924e-05
-1.58777e-06
2.20596e-06
1.28139e-11
-5.66122e-06
7.19979e-06
1.38862e-11
-1.1661e-05
1.13468e-05
1.38486e-11
-1.9037e-05
1.43156e-05
1.40582e-11
-2.72627e-05
1.61363e-05
1.33952e-11
-3.58429e-05
1.69101e-05
1.28042e-11
-4.43085e-05
1.67307e-05
1.14107e-11
-5.22188e-05
1.56775e-05
1.01684e-11
-5.91818e-05
1.38563e-05
8.76192e-12
1.14635e-05
7.5411e-12
-6.49055e-05
-2.27001e-06
4.47265e-06
1.46159e-11
-7.69434e-06
1.2627e-05
1.48794e-11
-1.5389e-05
1.90415e-05
1.41815e-11
-2.46452e-05
2.35715e-05
1.41665e-11
-3.48425e-05
2.63338e-05
1.361e-11
-4.5406e-05
2.74737e-05
1.27529e-11
-5.57765e-05
2.71014e-05
1.10428e-11
-6.54047e-05
2.5306e-05
9.80114e-12
-7.37775e-05
2.22294e-05
8.6562e-12
1.81774e-05
7.5472e-12
-8.0491e-05
-2.73425e-06
7.20291e-06
1.46968e-11
-9.1141e-06
1.90102e-05
1.49468e-11
-1.80121e-05
2.79391e-05
1.45682e-11
-2.85921e-05
3.41508e-05
1.42818e-11
-4.01657e-05
3.7907e-05
1.33306e-11
-5.21062e-05
3.94138e-05
1.22264e-11
-6.37899e-05
3.87848e-05
1.11205e-11
-7.45712e-05
3.60872e-05
9.18899e-12
-8.37998e-05
3.14584e-05
7.8512e-12
2.52855e-05
7.1897e-12
-9.09074e-05
-2.97186e-06
1.01705e-05
1.44496e-11
-9.86165e-06
2.59037e-05
1.45679e-11
-1.94115e-05
3.74886e-05
1.38955e-11
-3.07132e-05
4.54514e-05
1.36769e-11
-4.30431e-05
5.02363e-05
1.30055e-11
-5.57517e-05
5.21218e-05
1.13991e-11
-6.8178e-05
5.12104e-05
9.56297e-12
-7.95941e-05
4.75028e-05
8.38102e-12
-8.91895e-05
4.10544e-05
7.34296e-12
3.22262e-05
5.83307e-12
-9.61287e-05
-2.98378e-06
1.315e-05
1.29318e-11
-9.91757e-06
3.28412e-05
1.3314e-11
-1.95292e-05
4.70997e-05
1.3417e-11
-3.0899e-05
5.68202e-05
1.28849e-11
-4.3304e-05
6.26405e-05
1.13712e-11
-5.61029e-05
6.492e-05
1.01548e-11
-6.86341e-05
6.37407e-05
8.60898e-12
-8.01229e-05
5.89905e-05
7.57121e-12
-8.95977e-05
5.05298e-05
6.30244e-12
3.84391e-05
4.69414e-12
-9.58067e-05
-2.78011e-06
1.59262e-05
1.20057e-11
-9.29971e-06
3.93644e-05
1.21104e-11
-1.83727e-05
5.61722e-05
1.18681e-11
-2.91176e-05
6.75641e-05
1.12419e-11
-4.08356e-05
7.43577e-05
1.01884e-11
-5.29152e-05
7.69987e-05
8.64248e-12
-6.47332e-05
7.55578e-05
7.05432e-12
-7.55337e-05
6.97893e-05
6.06993e-12
-8.4254e-05
5.92521e-05
5.09179e-12
4.32748e-05
3.69802e-12
-8.90764e-05
-2.3879e-06
1.83108e-05
1.02269e-11
-8.08306e-06
4.50627e-05
1.05402e-11
-1.60567e-05
6.41455e-05
1.02298e-11
-2.549e-05
7.69966e-05
9.5352e-12
-3.57023e-05
8.45691e-05
8.53122e-12
-4.60943e-05
8.73897e-05
7.14243e-12
-5.60821e-05
8.55443e-05
6.07969e-12
-6.49833e-05
7.8686e-05
5.13379e-12
-7.18124e-05
6.60801e-05
4.23668e-12
4.56842e-05
2.93033e-12
-7.41921e-05
-1.86036e-06
8.47186e-12
2.01687e-05
-6.42539e-06
8.83342e-12
4.96306e-05
-1.28594e-05
8.51873e-12
7.05794e-05
-2.0402e-05
7.7457e-12
8.45387e-05
-2.8344e-05
6.76895e-12
9.25106e-05
-3.59996e-05
6.07054e-12
9.50443e-05
-4.2678e-05
5.48846e-12
9.22207e-05
-4.7593e-05
4.60984e-12
8.35894e-05
-4.96491e-05
4.12669e-12
6.81096e-05
3.501e-12
-4.72267e-05
4.32698e-05
1.01123e-07
-1.01032e-07
-8.4556e-11
-5.93878e-07
6.96629e-07
-1.61854e-09
-2.04489e-06
1.45344e-06
-2.41618e-09
-4.01664e-06
1.97485e-06
-3.08904e-09
-6.29362e-06
2.28047e-06
-3.47604e-09
-8.69998e-06
2.41e-06
-3.62594e-09
-1.10911e-05
2.39474e-06
-3.62121e-09
-1.33413e-05
2.25366e-06
-3.46217e-09
-1.53406e-05
2.00245e-06
-3.12655e-09
1.66722e-06
-2.5952e-09
-1.70052e-05
-7.22897e-07
6.20534e-07
1.3429e-09
-3.15017e-06
3.12425e-06
-3.35378e-10
-7.04517e-06
5.34697e-06
1.47797e-09
-1.20123e-05
6.93969e-06
2.26067e-09
-1.76449e-05
7.91044e-06
2.6375e-09
-2.35676e-05
8.32983e-06
2.87521e-09
-2.94406e-05
8.26489e-06
2.8738e-09
-3.49566e-05
7.76702e-06
2.66887e-09
-3.98495e-05
6.89306e-06
2.34164e-09
5.73962e-06
2.0205e-09
-4.39239e-05
-1.58776e-06
2.20597e-06
2.33595e-09
-5.6612e-06
7.19979e-06
-2.08328e-09
-1.16609e-05
1.13468e-05
-8.42034e-11
-1.90369e-05
1.43156e-05
8.90271e-11
-2.72627e-05
1.61363e-05
-1.15321e-10
-3.58428e-05
1.69101e-05
-1.13304e-10
-4.43085e-05
1.67307e-05
-1.23871e-10
-5.22187e-05
1.56775e-05
-1.73185e-10
-5.91817e-05
1.38562e-05
-2.27736e-10
1.14635e-05
-1.31948e-10
-6.49054e-05
-2.27e-06
4.47265e-06
3.32839e-09
-7.69432e-06
1.2627e-05
-2.88195e-09
-1.5389e-05
1.90415e-05
-1.42385e-12
-2.46451e-05
2.35715e-05
2.23078e-10
-3.48424e-05
2.63338e-05
-1.24586e-10
-4.54059e-05
2.74737e-05
-1.70712e-10
-5.57764e-05
2.71014e-05
-2.09737e-10
-6.54046e-05
2.5306e-05
-3.01113e-10
-7.37773e-05
2.22294e-05
-4.69507e-10
1.81774e-05
-4.0252e-10
-8.04908e-05
-2.73424e-06
7.20291e-06
3.99471e-09
-9.11407e-06
1.90102e-05
-3.33963e-09
-1.8012e-05
2.79391e-05
3.59404e-10
-2.8592e-05
3.41507e-05
7.79327e-10
-4.01656e-05
3.7907e-05
4.34696e-10
-5.21061e-05
3.94138e-05
4.00187e-10
-6.37898e-05
3.87848e-05
3.42245e-10
-7.45711e-05
3.60872e-05
1.68371e-10
-8.37997e-05
3.14584e-05
-3.38404e-10
2.52855e-05
-5.74952e-10
-9.09072e-05
-2.97185e-06
1.01705e-05
4.29838e-09
-9.86162e-06
2.59036e-05
-3.66414e-09
-1.94115e-05
3.74885e-05
4.60253e-10
-3.07131e-05
4.54514e-05
9.78781e-10
-4.3043e-05
5.02363e-05
6.43067e-10
-5.57516e-05
5.21218e-05
6.28004e-10
-6.81779e-05
5.12104e-05
6.04202e-10
-7.9594e-05
4.75028e-05
4.66951e-10
-8.91894e-05
4.10543e-05
-5.48999e-10
3.22262e-05
-1.52019e-09
-9.61286e-05
-2.98377e-06
1.315e-05
4.28036e-09
-9.91755e-06
3.28412e-05
-3.73206e-09
-1.95291e-05
4.70997e-05
4.85829e-10
-3.0899e-05
5.68202e-05
1.0645e-09
-4.33039e-05
6.26405e-05
7.83645e-10
-5.61029e-05
6.49199e-05
8.11027e-10
-6.8634e-05
6.37407e-05
9.00144e-10
-8.01228e-05
5.89905e-05
1.09284e-09
-8.95976e-05
5.05298e-05
-7.11269e-10
3.8439e-05
-3.78388e-09
-9.58066e-05
-2.7801e-06
1.59261e-05
3.93938e-09
-9.29969e-06
3.93643e-05
-3.56197e-09
-1.83726e-05
5.61722e-05
4.43408e-10
-2.91176e-05
6.75641e-05
1.03895e-09
-4.08356e-05
7.43576e-05
8.35771e-10
-5.29151e-05
7.69987e-05
8.54956e-10
-6.47331e-05
7.55577e-05
9.66902e-10
-7.55337e-05
6.97893e-05
1.73726e-09
-8.42539e-05
5.92521e-05
-2.01151e-09
4.32748e-05
-1.32724e-08
-8.90764e-05
-2.3879e-06
1.83108e-05
3.29677e-09
-8.08305e-06
4.50627e-05
-3.21641e-09
-1.60567e-05
6.41455e-05
3.08775e-10
-2.549e-05
7.69965e-05
8.84146e-10
-3.57023e-05
8.45691e-05
8.27686e-10
-4.60942e-05
8.73897e-05
9.42621e-10
-5.60821e-05
8.55443e-05
1.31522e-09
-6.49832e-05
7.8686e-05
4.46016e-09
-7.18124e-05
6.60801e-05
1.19491e-09
4.56842e-05
-2.97954e-08
-7.41921e-05
-1.86036e-06
2.41703e-09
2.01687e-05
-6.42539e-06
-2.78045e-09
4.96305e-05
-1.28593e-05
4.35654e-11
7.05794e-05
-2.0402e-05
5.07258e-10
8.45387e-05
-2.8344e-05
5.78938e-10
9.25105e-05
-3.59996e-05
9.40441e-10
9.50443e-05
-4.2678e-05
2.07868e-09
9.22207e-05
-4.7593e-05
1.15759e-08
8.35894e-05
-4.96491e-05
2.65567e-08
6.81096e-05
-7.9642e-09
-4.72267e-05
4.32698e-05
9.92076e-08
-9.92918e-08
-5.93454e-07
6.91038e-07
-2.04423e-06
1.44836e-06
-4.01653e-06
1.96921e-06
-6.29375e-06
2.27375e-06
-8.70012e-06
2.40274e-06
-1.10911e-05
2.3874e-06
-1.33412e-05
2.24658e-06
-1.53403e-05
1.99598e-06
1.66184e-06
-1.70047e-05
-7.17908e-07
6.19966e-07
-3.14512e-06
3.11791e-06
-7.04077e-06
5.34549e-06
-1.20092e-05
6.93996e-06
-1.76435e-05
7.91061e-06
-2.35676e-05
8.32973e-06
-2.94418e-05
8.26443e-06
-3.49586e-05
7.76606e-06
-3.98518e-05
6.89158e-06
5.73828e-06
-4.39263e-05
-1.58262e-06
2.20493e-06
-5.66048e-06
7.19369e-06
-1.16603e-05
1.13452e-05
-1.90361e-05
1.43159e-05
-2.72623e-05
1.61367e-05
-3.58429e-05
1.69102e-05
-4.4309e-05
1.67304e-05
-5.22195e-05
1.56764e-05
-5.91823e-05
1.38541e-05
1.14616e-05
-6.49057e-05
-2.26378e-06
4.47204e-06
-7.69533e-06
1.26224e-05
-1.53901e-05
1.904e-05
-2.46454e-05
2.35714e-05
-3.48427e-05
2.63338e-05
-4.54062e-05
2.74736e-05
-5.57768e-05
2.71009e-05
-6.54051e-05
2.53044e-05
-7.37773e-05
2.22258e-05
1.81738e-05
-8.049e-05
-2.72661e-06
7.20264e-06
-9.1153e-06
1.90077e-05
-1.80135e-05
2.79385e-05
-2.85925e-05
3.41511e-05
-4.01659e-05
3.79077e-05
-5.21063e-05
3.94144e-05
-6.37902e-05
3.87851e-05
-7.45719e-05
3.60863e-05
-8.37997e-05
3.14533e-05
2.52789e-05
-9.09054e-05
-2.9635e-06
1.01704e-05
-9.86288e-06
2.59034e-05
-1.94129e-05
3.7489e-05
-3.07133e-05
4.54525e-05
-4.30428e-05
5.02378e-05
-5.57512e-05
5.21235e-05
-6.81778e-05
5.12123e-05
-7.95949e-05
4.75038e-05
-8.91897e-05
4.10475e-05
3.22127e-05
-9.6125e-05
-2.97539e-06
1.31501e-05
-9.91873e-06
3.2843e-05
-1.95303e-05
4.71011e-05
-3.08986e-05
5.68218e-05
-4.33028e-05
6.26428e-05
-5.61012e-05
6.49228e-05
-6.86326e-05
6.37445e-05
-8.01234e-05
5.89958e-05
-8.9599e-05
5.05224e-05
3.8409e-05
-9.57991e-05
-2.77233e-06
1.59264e-05
-9.30072e-06
3.93679e-05
-1.83734e-05
5.61742e-05
-2.91165e-05
6.7566e-05
-4.08333e-05
7.43603e-05
-5.29119e-05
7.70022e-05
-6.47298e-05
7.55634e-05
-7.55345e-05
6.98022e-05
-8.42661e-05
5.92519e-05
4.31979e-05
-8.90682e-05
-2.38134e-06
1.8311e-05
-8.08398e-06
4.50673e-05
-1.60571e-05
6.41477e-05
-2.54882e-05
7.6998e-05
-3.5698e-05
8.45709e-05
-4.60866e-05
8.73918e-05
-5.60693e-05
8.55474e-05
-6.49662e-05
7.87035e-05
-7.18356e-05
6.61226e-05
4.55741e-05
-7.42417e-05
-1.85553e-06
2.0169e-05
-6.42658e-06
4.96356e-05
-1.28603e-05
7.05815e-05
-2.0401e-05
8.45392e-05
-2.83395e-05
9.251e-05
-3.59885e-05
9.50417e-05
-4.26512e-05
9.22122e-05
-4.75115e-05
8.35754e-05
-4.952e-05
6.81577e-05
-4.74383e-05
4.34844e-05
-1.82976e-05
1.29086e-06
1.94076e-09
-1.92398e-05
9.40842e-07
1.34138e-09
-1.98906e-05
6.49906e-07
8.74534e-10
-2.0322e-05
4.30872e-07
5.40932e-10
-2.06018e-05
2.79509e-07
3.22263e-10
-2.07858e-05
1.83825e-07
1.91777e-10
-2.09166e-05
1.30702e-07
1.23671e-10
-2.10259e-05
1.09181e-07
9.86824e-11
-2.11372e-05
1.11204e-07
1.04815e-10
-2.12683e-05
1.30895e-07
1.33063e-10
-2.14316e-05
1.63136e-07
1.78748e-10
-2.16336e-05
2.01787e-07
2.37106e-10
-2.18716e-05
2.37719e-07
2.99985e-10
-2.21289e-05
2.56886e-07
3.53985e-10
-2.23682e-05
2.38923e-07
3.78026e-10
-2.25259e-05
1.57386e-07
3.42793e-10
-2.25064e-05
-1.97315e-08
1.96184e-10
-2.21914e-05
-3.14868e-07
-1.17776e-10
-2.14493e-05
-7.41391e-07
-6.58347e-10
-1.2764e-06
-1.45686e-09
-2.01715e-05
-4.71021e-05
4.46828e-06
-1.77682e-09
-4.94351e-05
3.27535e-06
-1.47694e-09
-5.1068e-05
2.28392e-06
-1.15811e-09
-5.21704e-05
1.53417e-06
-8.72923e-10
-5.29012e-05
1.01093e-06
-6.40635e-10
-5.33911e-05
6.74217e-07
-4.68981e-10
-5.37404e-05
4.80325e-07
-3.56077e-10
-5.40229e-05
3.92056e-07
-2.94656e-10
-5.42925e-05
3.80994e-07
-2.7421e-10
-5.45866e-05
4.25298e-07
-2.83385e-10
-5.49284e-05
5.05296e-07
-3.09039e-10
-5.53244e-05
5.98034e-07
-3.34968e-10
-5.57577e-05
6.71435e-07
-3.38946e-10
-5.61794e-05
6.7884e-07
-2.90562e-10
-5.64958e-05
5.55437e-07
-1.5473e-10
-5.65578e-05
2.19282e-07
1.00388e-10
-5.61589e-05
-4.19086e-07
5.04139e-10
-5.50418e-05
-1.43302e-06
1.05261e-09
-5.29401e-05
-2.84482e-06
1.70923e-09
-4.5781e-06
2.31799e-09
-4.96407e-05
-6.92806e-05
8.84315e-06
-2.24515e-10
-7.24254e-05
6.42057e-06
-3.84011e-10
-7.45827e-05
4.44164e-06
-4.14072e-10
-7.60153e-05
2.96714e-06
-3.88479e-10
-7.69529e-05
1.94882e-06
-3.28545e-10
-7.75746e-05
1.29622e-06
-2.59702e-10
-7.80118e-05
9.17708e-07
-1.97728e-10
-7.83576e-05
7.37989e-07
-1.49128e-10
-7.8677e-05
7.00464e-07
-1.14316e-10
-7.90135e-05
7.61873e-07
-9.04794e-11
-7.93917e-05
8.83589e-07
-7.34395e-11
-7.9815e-05
1.02143e-06
-5.7266e-11
-8.02585e-05
1.11497e-06
-3.56886e-11
-8.06572e-05
1.0775e-06
-1.30827e-12
-8.08909e-05
7.89109e-07
5.47316e-11
-8.07692e-05
9.74984e-08
1.35785e-10
-8.00232e-05
-1.16532e-06
2.35514e-10
-7.83131e-05
-3.1435e-06
3.59313e-10
-7.52707e-05
-5.8877e-06
4.80517e-10
-9.26175e-06
3.98416e-10
-7.05875e-05
-8.54013e-05
1.37545e-05
-3.35118e-10
-8.87497e-05
9.76946e-06
-5.44672e-10
-9.09262e-05
6.61874e-06
-5.34133e-10
-9.23005e-05
4.34185e-06
-4.71971e-10
-9.31602e-05
2.80893e-06
-3.73582e-10
-9.37083e-05
1.84457e-06
-2.75016e-10
-9.40805e-05
1.2901e-06
-1.94441e-10
-9.4366e-05
1.02367e-06
-1.33895e-10
-9.46234e-05
9.57904e-07
-9.12348e-11
-9.489e-05
1.02853e-06
-6.24135e-11
-9.51863e-05
1.17998e-06
-4.32098e-11
-9.55148e-05
1.34995e-06
-2.96348e-11
-9.58534e-05
1.45358e-06
-1.77914e-11
-9.61437e-05
1.3678e-06
-2.50505e-12
-9.62732e-05
9.18621e-07
2.72435e-11
-9.6053e-05
-1.22849e-07
8.26295e-11
-9.51958e-05
-2.02261e-06
1.53737e-10
-9.33065e-05
-5.03309e-06
2.72803e-10
-8.99086e-05
-9.28606e-06
4.85969e-10
-1.46259e-05
4.15465e-10
-8.45449e-05
-9.56775e-05
1.85272e-05
-9.30785e-10
-9.85874e-05
1.26804e-05
-1.03155e-09
-0.000100261
8.29302e-06
-8.19043e-10
-0.000101191
5.27304e-06
-6.3622e-10
-0.000101704
3.32219e-06
-4.44955e-10
-0.000101994
2.13424e-06
-2.89876e-10
-0.00010217
1.46644e-06
-1.84453e-10
-0.000102294
1.14846e-06
-1.16739e-10
-0.000102403
1.0666e-06
-7.56393e-11
-0.000102517
1.14228e-06
-5.3694e-11
-0.000102648
1.31108e-06
-4.45099e-11
-0.0001028
1.50259e-06
-4.38217e-11
-0.000102967
1.61994e-06
-4.87397e-11
-0.000103117
1.51832e-06
-5.28464e-11
-0.000103182
9.83479e-07
-3.74752e-11
-0.00010302
-2.8456e-07
1.84849e-11
-0.000102377
-2.66624e-06
1.04097e-10
-0.000100833
-6.57749e-06
2.85986e-10
-9.7783e-05
-1.23365e-05
8.45078e-10
-1.98953e-05
1.15464e-09
-9.25147e-05
-0.000100003
2.24066e-05
-2.04714e-09
-0.000101772
1.44518e-05
-1.70051e-09
-0.000102427
8.94841e-06
-1.03243e-09
-0.000102579
5.42643e-06
-6.86865e-10
-0.000102543
3.28616e-06
-4.02377e-10
-0.000102454
2.04519e-06
-2.10629e-10
-0.00010236
1.37314e-06
-1.03899e-10
-0.000102274
1.06235e-06
-4.81505e-11
-0.000102194
9.86261e-07
-2.11844e-11
-0.000102116
1.06463e-06
-1.0653e-11
-0.000102041
1.23648e-06
-1.07558e-11
-0.000101976
1.43728e-06
-1.94557e-11
-0.000101933
1.57644e-06
-3.61596e-11
-0.000101926
1.51157e-06
-5.75461e-11
-0.000101959
1.01715e-06
-5.60562e-11
-0.000101991
-2.52654e-07
5.56112e-12
-0.00010187
-2.78737e-06
3.09675e-11
-0.000101223
-7.22484e-06
1.92554e-10
-9.93244e-05
-1.42366e-05
1.43233e-09
-2.41781e-05
2.90012e-09
-9.50445e-05
-9.78359e-05
2.44486e-05
-5.51782e-09
-9.76932e-05
1.43126e-05
-3.54039e-09
-9.68863e-05
8.14316e-06
-1.58414e-09
-9.60611e-05
4.60205e-06
-8.23424e-10
-9.54074e-05
2.6328e-06
-3.48448e-10
-9.49314e-05
1.56925e-06
-1.06037e-10
-9.4583e-05
1.02475e-06
-1.25767e-11
-9.43068e-05
7.86129e-07
1.79826e-11
-9.4058e-05
7.37462e-07
2.24839e-11
-9.38062e-05
8.12863e-07
1.48882e-11
-9.3537e-05
9.67252e-07
-2.66016e-13
-9.32549e-05
1.15516e-06
-2.23334e-11
-9.29889e-05
1.31056e-06
-5.2574e-11
-9.27992e-05
1.32189e-06
-9.13428e-11
-9.27778e-05
9.9586e-07
-9.16744e-11
-9.30237e-05
-6.77937e-09
7.65832e-11
-9.35891e-05
-2.22218e-06
1.48501e-10
-9.42906e-05
-6.52377e-06
4.78461e-10
-9.44051e-05
-1.41255e-05
3.39334e-09
-2.63792e-05
7.96785e-09
-9.2212e-05
-8.7904e-05
2.32937e-05
-9.43244e-09
-8.51007e-05
1.1513e-05
-3.69926e-09
-8.26625e-05
5.70557e-06
-7.01913e-10
-8.09496e-05
2.88947e-06
-2.82406e-10
-7.98352e-05
1.51842e-06
2.82379e-11
-7.91191e-05
8.52995e-07
1.39676e-10
-7.86353e-05
5.40757e-07
1.30574e-10
-7.8266e-05
4.16775e-07
1.05927e-10
-7.79323e-05
4.03683e-07
8.69541e-11
-7.75831e-05
4.63556e-07
7.37066e-11
-7.71901e-05
5.74198e-07
6.26541e-11
-7.67499e-05
7.14917e-07
4.82513e-11
-7.62933e-05
8.53895e-07
2.23456e-11
-7.59024e-05
9.31023e-07
-3.85718e-11
-7.57338e-05
8.27448e-07
-1.48482e-10
-7.60441e-05
3.037e-07
-1.62858e-10
-7.71443e-05
-1.12208e-06
5.3182e-11
-7.92963e-05
-4.3713e-06
-4.04211e-10
-8.2181e-05
-1.12439e-05
3.05278e-09
-2.50018e-05
1.28499e-08
-8.35713e-05
-6.74616e-05
1.65255e-05
-1.18775e-08
-6.17979e-05
5.84414e-06
5.18452e-09
-5.83419e-05
2.24389e-06
5.68066e-09
-5.63812e-05
9.26409e-07
2.34462e-09
-5.52784e-05
4.14509e-07
1.1816e-09
-5.46366e-05
2.1046e-07
6.97974e-10
-5.4227e-05
1.30687e-07
4.17694e-10
-5.39175e-05
1.07021e-07
3.00471e-10
-5.36285e-05
1.14351e-07
2.80443e-10
-5.33086e-05
1.43412e-07
3.13325e-10
-5.29254e-05
1.90586e-07
3.7733e-10
-5.24643e-05
2.53349e-07
4.54347e-10
-5.19377e-05
3.26801e-07
5.12387e-10
-5.14054e-05
3.98229e-07
4.66687e-10
-5.1013e-05
4.34843e-07
1.96872e-10
-5.1066e-05
3.56959e-07
-2.51941e-10
-5.20757e-05
-1.1077e-07
-1.57275e-09
-5.49386e-05
-1.50148e-06
-6.9288e-09
-6.06164e-05
-5.55702e-06
-9.0739e-09
-1.74836e-05
1.43563e-08
-6.8149e-05
-3.08483e-05
-6.44889e-08
-2.49938e-05
-1.03186e-08
-2.27494e-05
-5.78444e-10
-2.18213e-05
-1.67325e-09
-2.14057e-05
-1.07147e-09
-2.11948e-05
-4.81419e-10
-2.10638e-05
-2.60389e-10
-2.09566e-05
-1.76054e-10
-2.08421e-05
-1.49381e-10
-2.06986e-05
-1.60838e-10
-2.05078e-05
-1.9827e-10
-2.02542e-05
-2.50486e-10
-1.99271e-05
-3.01829e-10
-1.95285e-05
-3.24086e-10
-1.90935e-05
-2.0773e-10
-1.87369e-05
3.47102e-10
-1.88484e-05
8.03884e-10
-2.03477e-05
-2.16215e-09
-2.59097e-05
4.95703e-09
7.92981e-08
-4.34726e-05
-1.8298e-05
1.29471e-06
5.55294e-12
-1.92401e-05
9.43415e-07
4.847e-12
-1.98908e-05
6.51546e-07
3.92165e-12
-2.03221e-05
4.31857e-07
2.86539e-12
-2.06019e-05
2.80079e-07
2.13365e-12
-2.07858e-05
1.84161e-07
1.24679e-12
-2.09166e-05
1.30928e-07
9.99449e-13
-2.10259e-05
1.09381e-07
6.30715e-13
-2.11372e-05
1.11435e-07
1.88211e-13
-2.12683e-05
1.31197e-07
-2.59577e-13
-2.14317e-05
1.63536e-07
-6.59806e-13
-2.16337e-05
2.02299e-07
-1.23325e-12
-2.18718e-05
2.38338e-07
-1.96102e-12
-2.2129e-05
2.57576e-07
-2.60624e-12
-2.23682e-05
2.39603e-07
-3.19995e-12
-2.25257e-05
1.57878e-07
-4.06729e-12
-2.25061e-05
-1.94297e-08
-4.88602e-12
-2.2191e-05
-3.15259e-07
-5.49975e-12
-2.14489e-05
-7.42693e-07
-6.17992e-12
-1.27919e-06
-7.12666e-12
-2.01712e-05
-4.70995e-05
4.4684e-06
6.46128e-12
-4.94325e-05
3.27495e-06
5.63462e-12
-5.10656e-05
2.28347e-06
4.50312e-12
-5.21684e-05
1.53379e-06
2.98668e-12
-5.28996e-05
1.01066e-06
2.24825e-12
-5.339e-05
6.74048e-07
1.66763e-12
-5.37396e-05
4.80223e-07
1.31706e-12
-5.40225e-05
3.91988e-07
6.94426e-13
-5.42923e-05
3.80928e-07
2.30995e-13
-5.45866e-05
4.25205e-07
-1.8773e-13
-5.49285e-05
5.05144e-07
-7.66085e-13
-5.53243e-05
5.97796e-07
-1.50616e-12
-5.57574e-05
6.71092e-07
-2.02663e-12
-5.61785e-05
6.78401e-07
-2.53154e-12
-5.64941e-05
5.54964e-07
-3.31554e-12
-5.6555e-05
2.18932e-07
-4.22276e-12
-5.61549e-05
-4.19048e-07
-4.99098e-12
-5.50368e-05
-1.4323e-06
-5.84491e-12
-5.29346e-05
-2.84312e-06
-6.97284e-12
-4.57603e-06
-8.17921e-12
-4.96355e-05
-6.92795e-05
8.84216e-06
6.57273e-12
-7.24237e-05
6.41878e-06
5.60475e-12
-7.45808e-05
4.44013e-06
4.45042e-12
-7.60134e-05
2.96605e-06
3.21426e-12
-7.69512e-05
1.94813e-06
2.42252e-12
-7.75733e-05
1.29584e-06
1.83004e-12
-7.80108e-05
9.17513e-07
1.19246e-12
-7.83568e-05
7.37888e-07
6.10871e-13
-7.86764e-05
7.00382e-07
2.2352e-13
-7.9013e-05
7.6175e-07
-5.25304e-13
-7.93913e-05
8.83368e-07
-1.35739e-12
-7.98147e-05
1.02106e-06
-1.85136e-12
-8.0258e-05
1.11441e-06
-2.12853e-12
-8.06563e-05
1.07675e-06
-2.55774e-12
-8.08896e-05
7.88258e-07
-3.25024e-12
-8.07673e-05
9.67999e-08
-4.12957e-12
-8.00206e-05
-1.16555e-06
-5.19019e-12
-7.83099e-05
-3.14256e-06
-6.35226e-12
-7.52677e-05
-5.88489e-06
-7.44073e-12
-9.25827e-06
-8.53492e-12
-7.0585e-05
-8.54006e-05
1.37514e-05
6.37722e-12
-8.87477e-05
9.76538e-06
5.35892e-12
-9.09239e-05
6.61577e-06
4.30017e-12
-9.22982e-05
4.33989e-06
3.28019e-12
-9.31583e-05
2.80778e-06
2.51369e-12
-9.37067e-05
1.84399e-06
1.59369e-12
-9.40792e-05
1.28984e-06
7.89896e-13
-9.4365e-05
1.02356e-06
3.32378e-13
-9.46226e-05
9.57847e-07
6.11728e-14
-9.48893e-05
1.02844e-06
-5.21247e-13
-9.51858e-05
1.17977e-06
-1.11168e-12
-9.55143e-05
1.34957e-06
-1.50804e-12
-9.58529e-05
1.45295e-06
-1.98195e-12
-9.6143e-05
1.3669e-06
-2.59285e-12
-9.62722e-05
9.17525e-07
-3.3901e-12
-9.60515e-05
-1.23814e-07
-4.44275e-12
-9.51938e-05
-2.02317e-06
-5.62402e-12
-9.3304e-05
-5.03209e-06
-6.60355e-12
-8.99065e-05
-9.28182e-06
-7.4329e-12
-1.46204e-05
-8.52505e-12
-8.4544e-05
-9.5676e-05
1.85192e-05
5.92358e-12
-9.85841e-05
1.26724e-05
4.45936e-12
-0.000100257
8.28826e-06
3.53465e-12
-0.000101188
5.27029e-06
3.29059e-12
-0.000101702
3.32077e-06
2.59136e-12
-0.000101992
2.13362e-06
1.4305e-12
-0.000102168
1.46622e-06
9.31632e-13
-0.000102293
1.14841e-06
6.69009e-13
-0.000102402
1.06659e-06
-6.78584e-14
-0.000102516
1.14221e-06
-7.90752e-13
-0.000102647
1.3109e-06
-1.38936e-12
-0.0001028
1.5022e-06
-1.9386e-12
-0.000102966
1.61926e-06
-2.4011e-12
-0.000103117
1.51727e-06
-2.79601e-12
-0.000103181
9.82122e-07
-3.3635e-12
-0.000103019
-2.85876e-07
-4.11873e-12
-0.000102375
-2.66738e-06
-4.86983e-12
-0.00010083
-6.57678e-06
-5.80149e-12
-9.77808e-05
-1.23301e-05
-7.14802e-12
-1.98852e-05
-8.28505e-12
-9.25148e-05
-9.99994e-05
2.23879e-05
4.74019e-12
-0.000101767
1.44379e-05
4.25399e-12
-0.000102422
8.9424e-06
3.10454e-12
-0.000102576
5.42367e-06
2.291e-12
-0.000102541
3.28505e-06
1.58731e-12
-0.000102452
2.04489e-06
8.55663e-13
-0.000102359
1.37315e-06
3.0127e-13
-0.000102273
1.06243e-06
3.17295e-14
-0.000102193
9.86336e-07
-2.98807e-13
-0.000102115
1.06464e-06
-8.82259e-13
-0.000102041
1.23635e-06
-1.57161e-12
-0.000101976
1.43694e-06
-2.17175e-12
-0.000101932
1.57578e-06
-2.56057e-12
-0.000101925
1.51045e-06
-2.90827e-12
-0.000101959
1.01556e-06
-3.3847e-12
-0.000101991
-2.54136e-07
-3.9226e-12
-0.000101868
-2.78956e-06
-4.4361e-12
-0.00010122
-7.22539e-06
-5.44655e-12
-9.93214e-05
-1.42268e-05
-7.0227e-12
-2.4157e-05
-8.0408e-12
-9.50466e-05
-9.78287e-05
2.44044e-05
3.76707e-12
-9.76836e-05
1.42892e-05
3.37206e-12
-9.688e-05
8.13722e-06
2.46466e-12
-9.60577e-05
4.60049e-06
1.86693e-12
-9.54056e-05
2.63263e-06
1.25017e-12
-9.49303e-05
1.56954e-06
4.58161e-13
-9.45823e-05
1.02505e-06
-1.3967e-13
-9.43062e-05
7.86344e-07
-4.95072e-13
-9.40574e-05
7.37583e-07
-6.72714e-13
-9.38056e-05
8.12885e-07
-9.32749e-13
-9.35364e-05
9.67143e-07
-1.41304e-12
-9.32543e-05
1.15485e-06
-2.02963e-12
-9.29885e-05
1.30993e-06
-2.62664e-12
-9.27989e-05
1.32072e-06
-3.06573e-12
-9.27772e-05
9.93812e-07
-3.43614e-12
-9.30234e-05
-7.85129e-09
-3.81788e-12
-9.35871e-05
-2.22574e-06
-3.96378e-12
-9.4286e-05
-6.52602e-06
-4.73309e-12
-9.44004e-05
-1.41089e-05
-5.94093e-12
-2.63294e-05
-7.03383e-12
-9.22201e-05
-8.78908e-05
2.32093e-05
2.85292e-12
-8.50913e-05
1.14861e-05
2.53917e-12
-8.26592e-05
5.70441e-06
2.14522e-12
-8.09492e-05
2.89015e-06
1.70882e-12
-7.98355e-05
1.51899e-06
8.90151e-13
-7.91193e-05
8.53488e-07
9.8794e-15
-7.86352e-05
5.41066e-07
-3.76884e-13
-7.82657e-05
4.16943e-07
-3.93683e-13
-7.79318e-05
4.03765e-07
-4.326e-13
-7.75824e-05
4.63578e-07
-7.09797e-13
-7.71894e-05
5.74158e-07
-1.2292e-12
-7.67492e-05
7.14783e-07
-1.83659e-12
-7.62929e-05
8.53593e-07
-2.33873e-12
-7.59026e-05
9.30383e-07
-2.78341e-12
-7.57351e-05
8.2623e-07
-3.25866e-12
-7.60452e-05
3.0209e-07
-3.36479e-12
-7.71468e-05
-1.12416e-06
-3.53387e-12
-7.92976e-05
-4.37559e-06
-4.29099e-12
-8.21778e-05
-1.12257e-05
-5.28155e-12
-2.49094e-05
-6.05333e-12
-8.35849e-05
-6.74457e-05
1.6451e-05
2.35369e-12
-6.18053e-05
5.85086e-06
2.08241e-12
-5.83498e-05
2.25465e-06
1.73589e-12
-5.63869e-05
9.2951e-07
1.10729e-12
-5.52817e-05
4.15005e-07
4.68708e-13
-5.46381e-05
2.10569e-07
2.01367e-13
-5.42274e-05
1.3078e-07
2.98391e-13
-5.39173e-05
1.07165e-07
8.5287e-14
-5.36278e-05
1.14585e-07
-5.96425e-13
-5.33077e-05
1.43773e-07
-1.25248e-12
-5.29243e-05
1.91125e-07
-1.59051e-12
-5.24632e-05
2.54132e-07
-1.79453e-12
-5.1937e-05
3.27905e-07
-2.19038e-12
-5.14059e-05
3.99758e-07
-2.95517e-12
-5.10162e-05
4.36768e-07
-3.6727e-12
-5.10715e-05
3.571e-07
-3.65685e-12
-5.20885e-05
-1.08691e-07
-3.50773e-12
-5.49612e-05
-1.50985e-06
-3.9855e-12
-6.06282e-05
-5.5678e-06
-4.53164e-12
-1.74224e-05
-5.44033e-12
-6.81008e-05
-3.08401e-05
2.9594e-12
-2.49996e-05
2.08018e-12
-2.27455e-05
1.12733e-12
-2.18177e-05
3.36347e-13
-2.14038e-05
4.06965e-13
-2.11937e-05
7.09727e-13
-2.10632e-05
5.65331e-13
-2.09562e-05
-1.16188e-13
-2.08417e-05
-7.4641e-13
-2.06981e-05
-8.96858e-13
-2.05072e-05
-7.93197e-13
-2.02533e-05
-9.52103e-13
-1.99257e-05
-1.66099e-12
-1.95263e-05
-2.74217e-12
-1.90897e-05
-3.44484e-12
-1.87323e-05
-3.27075e-12
-1.88401e-05
-3.11599e-12
-2.03521e-05
-3.86754e-12
-2.5915e-05
-4.56227e-12
-5.51181e-12
-4.32581e-05
-1.8298e-05
1.29471e-06
-1.93273e-09
-1.92401e-05
9.43415e-07
-1.33484e-09
-1.98907e-05
6.51545e-07
-8.69276e-10
-2.03221e-05
4.31856e-07
-5.37012e-10
-2.06018e-05
2.80079e-07
-3.19668e-10
-2.07858e-05
1.8416e-07
-1.89651e-10
-2.09166e-05
1.30927e-07
-1.22156e-10
-2.10259e-05
1.09381e-07
-9.78099e-11
-2.11372e-05
1.11434e-07
-1.0433e-10
-2.12683e-05
1.31196e-07
-1.33171e-10
-2.14316e-05
1.63535e-07
-1.79479e-10
-2.16337e-05
2.02298e-07
-2.38825e-10
-2.18717e-05
2.38337e-07
-3.02981e-10
-2.21289e-05
2.57575e-07
-3.57961e-10
-2.23682e-05
2.39602e-07
-3.83022e-10
-2.25257e-05
1.57877e-07
-3.48667e-10
-2.25061e-05
-1.943e-08
-2.03048e-10
-2.21909e-05
-3.15259e-07
1.09542e-10
-2.14489e-05
-7.42694e-07
6.48721e-10
-1.27919e-06
1.44604e-09
-2.01712e-05
-4.70994e-05
4.4684e-06
1.78563e-09
-4.94324e-05
3.27494e-06
1.48434e-09
-5.10655e-05
2.28347e-06
1.16373e-09
-5.21683e-05
1.53379e-06
8.77362e-10
-5.28995e-05
1.01066e-06
6.43907e-10
-5.33899e-05
6.74046e-07
4.71328e-10
-5.37395e-05
4.80221e-07
3.57708e-10
-5.40224e-05
3.91986e-07
2.95835e-10