/*--------------------------------*- C++ -*----------------------------------*\
| =========                 |                                                 |
| \\      /  F ield         | OpenFOAM: The Open Source CFD Toolbox           |
|  \\    /   O peration     | Version:  2.4.0                                 |
|   \\  /    A nd           | Web:      www.OpenFOAM.org                      |
|    \\/     M anipulation  |                                                 |
\*---------------------------------------------------------------------------*/
FoamFile
{
    version     2.0;
    format      ascii;
    class       volVectorField;
    location    "1.3";
    object      U;
}
// * * * * * * * * * * * * * * * * * * * * * * * * * * * * * * * * * * * * * //

dimensions      [0 1 -1 0 0 0 0];

internalField   nonuniform List<vector> 
4800
(
(0.000256709 -0.000259847 3.27341e-08)
(-8.83103e-05 0.000186393 0.000199992)
(-0.00189322 0.000652971 0.000393502)
(-0.00470839 0.000960534 0.00052262)
(-0.00817228 0.00113114 0.000547474)
(-0.0119756 0.00120125 0.000450024)
(-0.0158627 0.00119587 0.000225308)
(-0.0196185 0.0011273 -0.000125198)
(-0.0230528 0.00100225 -0.000594645)
(-0.0260047 0.000832073 -0.00116964)
(-0.000208855 8.90736e-05 -0.000199567)
(-0.0024242 0.00235018 3.88699e-06)
(-0.00764555 0.00448736 0.000144638)
(-0.0149122 0.00599928 0.000211974)
(-0.0235425 0.00690489 0.000189805)
(-0.0329267 0.00729697 6.36508e-05)
(-0.0424917 0.0072548 -0.000172039)
(-0.0517173 0.00683164 -0.00051835)
(-0.0601367 0.00607709 -0.000972526)
(-0.0673644 0.0050728 -0.00152674)
(-0.00074598 0.0020006 -0.000396596)
(-0.00485905 0.00766666 -0.000131286)
(-0.0131736 0.0125861 9.78251e-06)
(-0.0241246 0.0161302 5.77526e-05)
(-0.0368053 0.0183055 1.99862e-05)
(-0.0504411 0.0192462 -0.000112034)
(-0.0642609 0.0190834 -0.000341897)
(-0.0775303 0.0179243 -0.000671968)
(-0.0895682 0.0158981 -0.0011033)
(-0.0997971 0.0132296 -0.00163339)
(-0.00115715 0.00515105 -0.000514915)
(-0.00681407 0.0154219 -0.000174431)
(-0.0176627 0.0237528 -1.28923e-05)
(-0.0315373 0.0296931 3.64195e-05)
(-0.0473333 0.0333336 -2.53158e-07)
(-0.064168 0.0348659 -0.000126383)
(-0.0811404 0.034457 -0.000344145)
(-0.0973572 0.0322501 -0.000658093)
(-0.111948 0.0284516 -0.00107454)
(-0.124126 0.0234635 -0.00159829)
(-0.00142667 0.00922069 -0.000490109)
(-0.00815959 0.025029 -8.52616e-05)
(-0.0208131 0.0372254 9.75315e-05)
(-0.0367582 0.0457806 0.000156738)
(-0.0547378 0.0509786 0.000131841)
(-0.0737993 0.0530956 2.22197e-05)
(-0.0929578 0.0523165 -0.000175073)
(-0.111198 0.0487804 -0.000469231)
(-0.127464 0.0427307 -0.000875076)
(-0.14069 0.0347409 -0.00141065)
(-0.00155863 0.0138549 -0.000281935)
(-0.00885503 0.0358235 0.000170616)
(-0.0224823 0.0522015 0.000370452)
(-0.0395539 0.0635239 0.000445336)
(-0.0587277 0.0703467 0.000442226)
(-0.0790217 0.0730549 0.000361018)
(-0.0994131 0.0718281 0.000195214)
(-0.118807 0.0667398 -7.23847e-05)
(-0.135974 0.0579787 -0.000470006)
(-0.149451 0.0462022 -0.00104214)
(-0.00155901 0.0186877 0.000127287)
(-0.00889423 0.0470653 0.000609082)
(-0.0226136 0.06776 0.000819251)
(-0.0397941 0.0819191 0.000913947)
(-0.0590825 0.0904095 0.000942531)
(-0.0795092 0.0937398 0.000903695)
(-0.100065 0.0920614 0.000784831)
(-0.119645 0.0853027 0.000557272)
(-0.136922 0.0734388 0.000174059)
(-0.149899 0.0569492 -0.000463392)
(-0.00143652 0.0233616 0.000735727)
(-0.0083034 0.0580017 0.00122885)
(-0.0212361 0.0829333 0.00144189)
(-0.0374723 0.0998781 0.00155962)
(-0.0557046 0.110012 0.00162992)
(-0.0749972 0.113978 0.0016499)
(-0.0943937 0.111892 0.00159966)
(-0.112866 0.103471 0.00143713)
(-0.129204 0.0882654 0.00109548)
(-0.140835 0.0659931 0.00037093)
(-0.00120846 0.0275466 0.00152313)
(-0.00716085 0.0679199 0.00201228)
(-0.0185086 0.0967697 0.00222094)
(-0.0327949 0.116274 0.00236353)
(-0.0487719 0.127874 0.00248393)
(-0.0655079 0.132359 0.0025791)
(-0.0820642 0.129856 0.00262258)
(-0.0975058 0.1199 0.00255802)
(-0.111097 0.10155 0.002308)
(-0.120081 0.0729477 0.00147961)
(-0.000907055 0.0309744 0.00245276)
(-0.00562104 0.0762222 0.00292741)
(-0.0147781 0.10843 0.00312498)
(-0.0263038 0.130036 0.00329143)
(-0.0389758 0.142651 0.00346623)
(-0.0517516 0.147173 0.00365102)
(-0.0635038 0.143788 0.00382196)
(-0.0730337 0.131973 0.00391988)
(-0.0800706 0.110575 0.00391643)
(-0.0835417 0.0766881 0.00323507)
(0.000261318 -0.000264068 5.99642e-08)
(-8.16774e-05 0.000180819 1.27836e-06)
(-0.00188972 0.000639789 1.90344e-06)
(-0.00470598 0.000942144 2.4283e-06)
(-0.00817096 0.00110999 2.72898e-06)
(-0.0119751 0.00117881 2.845e-06)
(-0.0158629 0.00117348 2.83934e-06)
(-0.0196196 0.00110617 2.7135e-06)
(-0.0230549 0.000983386 2.44973e-06)
(-0.0260079 0.000816048 2.03377e-06)
(-0.000202118 8.22968e-05 -1.03182e-06)
(-0.00242154 0.0023483 2.82249e-07)
(-0.00765245 0.00447696 -1.12594e-06)
(-0.0149163 0.00598424 -1.73372e-06)
(-0.0235444 0.00688829 -2.0277e-06)
(-0.0329272 0.00727971 -2.21365e-06)
(-0.0424907 0.00723773 -2.21473e-06)
(-0.0517153 0.0068157 -2.0575e-06)
(-0.0601347 0.00606304 -1.80555e-06)
(-0.0673631 0.0050607 -1.55816e-06)
(-0.000731222 0.00199565 -1.79821e-06)
(-0.00484861 0.00767277 1.64507e-06)
(-0.0131798 0.0125894 9.07979e-08)
(-0.0241263 0.0161337 -4.36151e-08)
(-0.0368051 0.0183107 1.14545e-07)
(-0.0504407 0.0192524 1.11492e-07)
(-0.0642599 0.01909 1.17505e-07)
(-0.077529 0.017931 1.53184e-07)
(-0.0895677 0.0159048 1.93055e-07)
(-0.0997986 0.0132351 1.16332e-07)
(-0.00113627 0.00514695 -2.56741e-06)
(-0.00679901 0.0154255 2.26767e-06)
(-0.0176707 0.0237523 2.7147e-08)
(-0.0315387 0.0296911 -1.47456e-07)
(-0.047332 0.0333321 1.21824e-07)
(-0.0641669 0.0348648 1.5615e-07)
(-0.0811388 0.0344563 1.83893e-07)
(-0.0973551 0.0322503 2.52228e-07)
(-0.111947 0.0284536 3.80893e-07)
(-0.12413 0.0234657 3.26758e-07)
(-0.001402 0.00921822 -3.08487e-06)
(-0.00814269 0.025031 2.62446e-06)
(-0.0208239 0.0372238 -2.5338e-07)
(-0.0367605 0.0457773 -5.79997e-07)
(-0.0547364 0.0509749 -3.13247e-07)
(-0.0737978 0.0530918 -2.88211e-07)
(-0.0929552 0.0523128 -2.46638e-07)
(-0.111194 0.0487778 -1.13893e-07)
(-0.127461 0.0427321 2.77971e-07)
(-0.140696 0.0347441 4.59899e-07)
(-0.00153197 0.0138543 -3.32237e-06)
(-0.00883734 0.0358245 2.87612e-06)
(-0.022495 0.0522006 -3.322e-07)
(-0.0395571 0.0635219 -7.35957e-07)
(-0.0587266 0.0703441 -4.7688e-07)
(-0.0790203 0.0730518 -4.67426e-07)
(-0.0994101 0.0718245 -4.52135e-07)
(-0.118799 0.0667367 -3.48045e-07)
(-0.135967 0.0579829 4.40063e-07)
(-0.149464 0.0462129 1.19313e-06)
(-0.00153226 0.0186888 -3.30972e-06)
(-0.00887687 0.0470653 2.92765e-06)
(-0.0226272 0.0677598 -3.5376e-07)
(-0.039798 0.0819184 -8.04655e-07)
(-0.0590822 0.090408 -5.87971e-07)
(-0.0795086 0.0937376 -6.12073e-07)
(-0.100063 0.0920579 -6.8438e-07)
(-0.119632 0.0852982 -8.36647e-07)
(-0.136905 0.0734484 5.64445e-07)
(-0.149927 0.0569841 2.95174e-06)
(-0.00141149 0.0233644 -3.04657e-06)
(-0.00828745 0.0580009 2.79276e-06)
(-0.0212495 0.0829339 -3.22918e-07)
(-0.0374768 0.0998789 -7.87412e-07)
(-0.055705 0.110012 -6.31624e-07)
(-0.0749977 0.113976 -6.48961e-07)
(-0.0943927 0.111887 -7.3863e-07)
(-0.112844 0.103456 -1.34e-06)
(-0.129156 0.0882606 1.57353e-06)
(-0.140879 0.0660482 1.03299e-05)
(-0.00118668 0.0275509 -2.54873e-06)
(-0.00714717 0.0679187 2.52113e-06)
(-0.0185208 0.0967715 -2.21317e-07)
(-0.0327997 0.116277 -6.70203e-07)
(-0.0487738 0.127877 -6.28363e-07)
(-0.0655122 0.132361 -7.20001e-07)
(-0.0820744 0.129852 -1.01204e-06)
(-0.09749 0.119867 -3.45963e-06)
(-0.111 0.101478 -9.21581e-07)
(-0.120127 0.0729162 2.31803e-05)
(-0.000889548 0.0309795 -1.86707e-06)
(-0.00560992 0.076221 2.17882e-06)
(-0.0147877 0.108433 -1.83734e-08)
(-0.0263074 0.130043 -3.80335e-07)
(-0.0389774 0.142662 -4.379e-07)
(-0.0517586 0.147193 -7.20596e-07)
(-0.063535 0.143827 -1.6073e-06)
(-0.0730725 0.132032 -8.99514e-06)
(-0.0799909 0.110632 -2.0648e-05)
(-0.0836161 0.0767947 6.20058e-06)
(0.000261321 -0.000264064 -5.20943e-08)
(-8.16695e-05 0.000180824 -1.25366e-06)
(-0.00188971 0.000639794 -1.87444e-06)
(-0.00470596 0.000942149 -2.39844e-06)
(-0.00817094 0.00110999 -2.6996e-06)
(-0.0119751 0.00117881 -2.81672e-06)
(-0.0158629 0.00117348 -2.81327e-06)
(-0.0196196 0.00110617 -2.69041e-06)
(-0.0230549 0.000983388 -2.4298e-06)
(-0.0260078 0.00081605 -2.01685e-06)
(-0.000202112 8.23069e-05 1.05222e-06)
(-0.00242153 0.00234831 -2.52512e-07)
(-0.00765242 0.00447697 1.15846e-06)
(-0.0149162 0.00598425 1.76741e-06)
(-0.0235444 0.0068883 2.06044e-06)
(-0.0329271 0.00727971 2.24498e-06)
(-0.0424906 0.00723773 2.24335e-06)
(-0.0517152 0.0068157 2.08293e-06)
(-0.0601346 0.00606304 1.82741e-06)
(-0.067363 0.0050607 1.57677e-06)
(-0.000731215 0.00199566 1.82891e-06)
(-0.00484858 0.00767278 -1.61041e-06)
(-0.0131798 0.0125894 -5.56801e-08)
(-0.0241263 0.0161337 7.92652e-08)
(-0.036805 0.0183107 -8.01552e-08)
(-0.0504406 0.0192524 -7.89648e-08)
(-0.0642597 0.01909 -8.82428e-08)
(-0.0775289 0.0179309 -1.27493e-07)
(-0.0895675 0.0159048 -1.70909e-07)
(-0.0997984 0.0132351 -9.72512e-08)
(-0.00113626 0.00514695 2.60334e-06)
(-0.00679898 0.0154255 -2.2308e-06)
(-0.0176706 0.0237523 8.98203e-09)
(-0.0315386 0.0296911 1.8362e-07)
(-0.0473319 0.0333321 -8.71701e-08)
(-0.0641667 0.0348647 -1.23616e-07)
(-0.0811386 0.0344563 -1.55347e-07)
(-0.0973549 0.0322503 -2.27287e-07)
(-0.111947 0.0284536 -3.59006e-07)
(-0.12413 0.0234657 -3.07637e-07)
(-0.00140199 0.00921822 3.1223e-06)
(-0.00814265 0.025031 -2.58678e-06)
(-0.0208238 0.0372238 2.89977e-07)
(-0.0367604 0.0457772 6.16425e-07)
(-0.0547363 0.0509749 3.4763e-07)
(-0.0737977 0.0530918 3.19923e-07)
(-0.0929551 0.0523128 2.74178e-07)
(-0.111193 0.0487778 1.37468e-07)
(-0.127461 0.042732 -2.57675e-07)
(-0.140696 0.0347441 -4.41967e-07)
(-0.00153196 0.0138543 3.35864e-06)
(-0.00883731 0.0358245 -2.83947e-06)
(-0.0224949 0.0522006 3.67869e-07)
(-0.039557 0.0635219 7.71052e-07)
(-0.0587265 0.0703441 5.09583e-07)
(-0.0790202 0.0730518 4.96588e-07)
(-0.0994099 0.0718245 4.76674e-07)
(-0.118799 0.0667366 3.69119e-07)
(-0.135967 0.0579828 -4.21714e-07)
(-0.149464 0.0462129 -1.17821e-06)
(-0.00153225 0.0186888 3.34338e-06)
(-0.00887684 0.0470653 -2.8933e-06)
(-0.0226271 0.0677597 3.87513e-07)
(-0.0397979 0.0819183 8.37276e-07)
(-0.0590821 0.0904079 6.17606e-07)
(-0.0795085 0.0937375 6.38009e-07)
(-0.100062 0.0920578 7.06201e-07)
(-0.119632 0.0852982 8.5543e-07)
(-0.136905 0.0734484 -5.48664e-07)
(-0.149926 0.0569841 -2.93971e-06)
(-0.00141148 0.0233644 3.07718e-06)
(-0.00828742 0.0580009 -2.7618e-06)
(-0.0212494 0.0829339 3.53383e-07)
(-0.0374767 0.0998788 8.16149e-07)
(-0.0557049 0.110012 6.57358e-07)
(-0.0749977 0.113976 6.71125e-07)
(-0.0943926 0.111887 7.56964e-07)
(-0.112844 0.103456 1.35548e-06)
(-0.129156 0.0882605 -1.56089e-06)
(-0.140879 0.0660481 -1.03204e-05)
(-0.00118668 0.0275508 2.57531e-06)
(-0.00714715 0.0679186 -2.49416e-06)
(-0.0185208 0.0967714 2.47471e-07)
(-0.0327996 0.116277 6.94504e-07)
(-0.0487738 0.127877 6.49912e-07)
(-0.0655121 0.132361 7.38237e-07)
(-0.0820743 0.129852 1.02726e-06)
(-0.0974899 0.119867 3.47266e-06)
(-0.111 0.101478 9.32402e-07)
(-0.120127 0.0729162 -2.31722e-05)
(-0.000889545 0.0309795 1.88883e-06)
(-0.00560991 0.0762209 -2.15625e-06)
(-0.0147877 0.108433 3.99901e-08)
(-0.0263074 0.130043 4.00084e-07)
(-0.0389774 0.142662 4.5514e-07)
(-0.0517585 0.147193 7.35841e-07)
(-0.063535 0.143827 1.62077e-06)
(-0.0730725 0.132032 9.00681e-06)
(-0.0799909 0.110632 2.06582e-05)
(-0.0836161 0.0767947 -6.19192e-06)
(0.000256727 -0.000259827 -4.10076e-08)
(-8.82758e-05 0.000186408 -0.000200018)
(-0.0018932 0.000652984 -0.000393532)
(-0.00470835 0.000960547 -0.000522651)
(-0.00817223 0.00113115 -0.000547505)
(-0.0119755 0.00120126 -0.000450054)
(-0.0158626 0.00119588 -0.000225335)
(-0.0196185 0.00112731 0.000125174)
(-0.0230527 0.00100226 0.000594624)
(-0.0260046 0.000832077 0.00116963)
(-0.000208838 8.91122e-05 0.000199545)
(-0.00242415 0.00235021 -3.91842e-06)
(-0.00764547 0.00448739 -0.000144672)
(-0.0149121 0.0059993 -0.000212009)
(-0.0235424 0.00690491 -0.000189839)
(-0.0329266 0.00729699 -6.36839e-05)
(-0.0424915 0.00725481 0.000172009)
(-0.0517171 0.00683165 0.000518324)
(-0.0601364 0.00607709 0.000972503)
(-0.0673641 0.0050728 0.00152672)
(-0.000745959 0.00200063 0.000396563)
(-0.00485898 0.00766669 0.000131249)
(-0.0131735 0.0125861 -9.81964e-06)
(-0.0241244 0.0161302 -5.77903e-05)
(-0.0368051 0.0183055 -2.00225e-05)
(-0.0504409 0.0192462 0.000111999)
(-0.0642606 0.0190834 0.000341866)
(-0.07753 0.0179243 0.000671941)
(-0.0895678 0.0158981 0.00110328)
(-0.0997967 0.0132296 0.00163337)
(-0.00115713 0.00515106 0.000514877)
(-0.00681399 0.0154219 0.000174392)
(-0.0176626 0.0237528 1.28541e-05)
(-0.0315371 0.0296931 -3.64577e-05)
(-0.047333 0.0333336 2.16524e-07)
(-0.0641677 0.0348659 0.000126348)
(-0.08114 0.034457 0.000344115)
(-0.0973568 0.0322501 0.000658067)
(-0.111948 0.0284516 0.00107452)
(-0.124126 0.0234635 0.00159827)
(-0.00142664 0.00922068 0.000490069)
(-0.00815951 0.025029 8.52217e-05)
(-0.0208129 0.0372254 -9.75702e-05)
(-0.036758 0.0457806 -0.000156776)
(-0.0547375 0.0509786 -0.000131877)
(-0.0737989 0.0530956 -2.22532e-05)
(-0.0929574 0.0523165 0.000175044)
(-0.111197 0.0487804 0.000469206)
(-0.127463 0.0427306 0.000875055)
(-0.140689 0.0347408 0.00141063)
(-0.0015586 0.0138549 0.000281897)
(-0.00885494 0.0358234 -0.000170655)
(-0.0224822 0.0522014 -0.00037049)
(-0.0395537 0.0635238 -0.000445373)
(-0.0587274 0.0703466 -0.000442261)
(-0.0790213 0.0730548 -0.000361049)
(-0.0994127 0.071828 -0.00019524)
(-0.118806 0.0667397 7.23624e-05)
(-0.135973 0.0579786 0.000469987)
(-0.14945 0.0462021 0.00104213)
(-0.00155898 0.0186877 -0.000127323)
(-0.00889415 0.0470652 -0.000609118)
(-0.0226135 0.0677599 -0.000819287)
(-0.0397939 0.081919 -0.000913982)
(-0.0590823 0.0904094 -0.000942562)
(-0.0795089 0.0937397 -0.000903722)
(-0.100065 0.0920613 -0.000784854)
(-0.119644 0.0853026 -0.000557292)
(-0.136921 0.0734387 -0.000174076)
(-0.149899 0.0569492 0.00046338)
(-0.0014365 0.0233616 -0.000735759)
(-0.00830334 0.0580016 -0.00122888)
(-0.021236 0.0829332 -0.00144192)
(-0.0374722 0.099878 -0.00155965)
(-0.0557044 0.110012 -0.00162994)
(-0.074997 0.113978 -0.00164993)
(-0.0943935 0.111892 -0.00159968)
(-0.112865 0.103471 -0.00143714)
(-0.129203 0.0882653 -0.00109549)
(-0.140835 0.0659931 -0.00037094)
(-0.00120844 0.0275465 -0.00152316)
(-0.00716081 0.0679197 -0.00201231)
(-0.0185086 0.0967695 -0.00222097)
(-0.0327948 0.116273 -0.00236355)
(-0.0487718 0.127874 -0.00248396)
(-0.0655078 0.132359 -0.00257912)
(-0.0820641 0.129856 -0.0026226)
(-0.0975056 0.1199 -0.00255803)
(-0.111097 0.10155 -0.00230801)
(-0.120081 0.0729476 -0.00147961)
(-0.000907045 0.0309743 -0.00245278)
(-0.00562101 0.0762221 -0.00292743)
(-0.0147781 0.10843 -0.00312501)
(-0.0263037 0.130036 -0.00329145)
(-0.0389758 0.142651 -0.00346625)
(-0.0517515 0.147173 -0.00365103)
(-0.0635037 0.143788 -0.00382197)
(-0.0730337 0.131973 -0.0039199)
(-0.0800706 0.110575 -0.00391644)
(-0.0835417 0.0766881 -0.00323508)
(-0.0283727 0.000640544 -0.00182961)
(-0.0301457 0.000459469 -0.00254975)
(-0.0313962 0.000310026 -0.00330792)
(-0.0322369 0.000199171 -0.00408762)
(-0.0327839 0.00012434 -0.00487805)
(-0.0331374 7.8762e-05 -0.00567304)
(-0.0333761 5.52585e-05 -0.00646972)
(-0.0335585 4.81044e-05 -0.00726742)
(-0.0337278 5.34066e-05 -0.00806705)
(-0.0339167 6.86715e-05 -0.00887079)
(-0.0341492 9.19651e-05 -0.00968214)
(-0.0344415 0.000120843 -0.010506)
(-0.0347976 0.000151137 -0.0113487)
(-0.035204 0.000175678 -0.0122177)
(-0.0356195 0.000183243 -0.0131214)
(-0.0359649 0.00015835 -0.0140669)
(-0.0361125 8.26049e-05 -0.0150585)
(-0.0358875 -6.36267e-05 -0.0160927)
(-0.0350818 -0.000288012 -0.0171562)
(-0.0334903 -0.00058111 -0.018221)
(-0.0731658 0.00395826 -0.00216655)
(-0.077529 0.0029038 -0.00287211)
(-0.0806374 0.00202244 -0.00362521)
(-0.0827606 0.00135383 -0.00441106)
(-0.0841713 0.000887344 -0.00521847)
(-0.0851042 0.000588742 -0.00603975)
(-0.0857431 0.000419526 -0.00687016)
(-0.0862251 0.000346798 -0.00770724)
(-0.08665 0.000345693 -0.0085504)
(-0.0870899 0.000397511 -0.00940058)
(-0.0875934 0.000485655 -0.0102601)
(-0.0881858 0.000590456 -0.0111326)
(-0.0888617 0.000683519 -0.0120227)
(-0.0895727 0.000722309 -0.012936)
(-0.0902089 0.000646438 -0.0138779)
(-0.0905794 0.000378415 -0.0148528)
(-0.0903985 -0.000167396 -0.0158616)
(-0.0892866 -0.00106525 -0.0169006)
(-0.0868051 -0.00233834 -0.0179563)
(-0.0825392 -0.00391957 -0.0190049)
(-0.107867 0.0102941 -0.00225159)
(-0.113801 0.00754404 -0.00293745)
(-0.117936 0.00526373 -0.00367365)
(-0.120709 0.0035412 -0.0044461)
(-0.122526 0.00233858 -0.00524356)
(-0.123714 0.00156257 -0.00605792)
(-0.124519 0.00111226 -0.00688382)
(-0.125116 0.000901942 -0.00771808)
(-0.125628 0.000865864 -0.00855936)
(-0.12614 0.000953114 -0.00940781)
(-0.126707 0.00111769 -0.0102648)
(-0.127352 0.00130638 -0.011133)
(-0.128063 0.00144586 -0.0120158)
(-0.128772 0.0014308 -0.0129174)
(-0.129337 0.00111616 -0.0138422)
(-0.129516 0.000319785 -0.0147937)
(-0.128941 -0.00115588 -0.0157737)
(-0.127117 -0.0034731 -0.0167799)
(-0.123452 -0.00667899 -0.0178033)
(-0.117356 -0.0106023 -0.0188251)
(-0.133393 0.0180081 -0.00222166)
(-0.139856 0.0129983 -0.00291494)
(-0.144117 0.00894301 -0.00365817)
(-0.146827 0.0059467 -0.00443661)
(-0.14852 0.00389151 -0.00523865)
(-0.149583 0.00258028 -0.00605622)
(-0.150278 0.00182005 -0.0068841)
(-0.150777 0.00145534 -0.00771918)
(-0.151194 0.00137069 -0.00855993)
(-0.151602 0.00147862 -0.00940609)
(-0.152048 0.00170165 -0.0102584)
(-0.152552 0.00195187 -0.0111185)
(-0.153101 0.00210976 -0.0119888)
(-0.153637 0.00200409 -0.0128725)
(-0.154031 0.00139748 -0.0137735)
(-0.154051 -1.3468e-05 -0.014696)
(-0.153323 -0.00256799 -0.0156442)
(-0.1513 -0.00656307 -0.0166205)
(-0.147263 -0.0121161 -0.0176229)
(-0.140391 -0.0189706 -0.0186415)
(-0.150113 0.0260144 -0.00207337)
(-0.156008 0.0182502 -0.00280578)
(-0.159444 0.0122162 -0.00358188)
(-0.16137 0.00792668 -0.00438616)
(-0.16243 0.00508003 -0.00520697)
(-0.163017 0.00330953 -0.00603736)
(-0.163359 0.00229903 -0.00687339)
(-0.163582 0.00181359 -0.0077129)
(-0.163759 0.00168902 -0.00855485)
(-0.163931 0.00180718 -0.00939891)
(-0.164124 0.00206779 -0.0102453)
(-0.164351 0.00235963 -0.0110947)
(-0.164613 0.00253088 -0.0119484)
(-0.164886 0.00235955 -0.0128086)
(-0.165098 0.00152732 -0.0136784)
(-0.165097 -0.000392758 -0.0145631)
(-0.164584 -0.00391255 -0.0154703)
(-0.163038 -0.00953902 -0.0164094)
(-0.159637 -0.0175787 -0.0173897)
(-0.153225 -0.0278047 -0.0184178)
(-0.157932 0.0332442 -0.00180214)
(-0.162015 0.0222695 -0.00261776)
(-0.163635 0.0142641 -0.00345653)
(-0.164115 0.00890002 -0.0043064)
(-0.164133 0.00551665 -0.00515821)
(-0.164003 0.00349664 -0.00600864)
(-0.163849 0.00237806 -0.00685695)
(-0.163704 0.001851 -0.00770313)
(-0.163573 0.00171622 -0.0085473)
(-0.163447 0.00184089 -0.00938942)
(-0.163324 0.00211944 -0.0102293)
(-0.163208 0.00243798 -0.0110666)
(-0.163116 0.00263855 -0.0119011)
(-0.163072 0.00248025 -0.0127333)
(-0.1631 0.00159692 -0.0135654)
(-0.163189 -0.000541938 -0.014403)
(-0.163215 -0.00464121 -0.0152569)
(-0.162815 -0.0115197 -0.0161448)
(-0.161167 -0.0218891 -0.0170919)
(-0.156667 -0.0358454 -0.018138)
(-0.156121 0.0383691 -0.0014258)
(-0.156894 0.0238648 -0.00238482)
(-0.155734 0.0142809 -0.00331555)
(-0.154304 0.00840065 -0.00422465)
(-0.153101 0.00495773 -0.00511231)
(-0.152212 0.00302274 -0.00598367)
(-0.151574 0.00200086 -0.00684381)
(-0.151094 0.00153904 -0.00769598)
(-0.150688 0.00143299 -0.00854185)
(-0.150296 0.00155958 -0.00938181)
(-0.149881 0.00182964 -0.0102151)
(-0.149434 0.00215075 -0.0110402)
(-0.148979 0.00239098 -0.011855)
(-0.148586 0.00233574 -0.0126578)
(-0.148379 0.00163074 -0.0134482)
(-0.148529 -0.000295147 -0.0142306)
(-0.149194 -0.00431853 -0.0150163)
(-0.150371 -0.0116379 -0.0158325)
(-0.151537 -0.0236804 -0.0167234)
(-0.150669 -0.0415068 -0.017792)
(-0.142842 0.039412 -0.000993259)
(-0.138501 0.0215704 -0.00216884)
(-0.133931 0.0115764 -0.00320948)
(-0.130629 0.00622467 -0.00417729)
(-0.128446 0.00341813 -0.00509295)
(-0.127051 0.00197553 -0.00597696)
(-0.126142 0.0012667 -0.00684269)
(-0.125495 0.000969429 -0.00769689)
(-0.124956 0.000920494 -0.00854243)
(-0.124424 0.00103372 -0.00937969)
(-0.123836 0.00125456 -0.0102071)
(-0.123165 0.00153002 -0.0110216)
(-0.122426 0.00178087 -0.0118189)
(-0.121704 0.00186522 -0.012594)
(-0.121183 0.00151972 -0.0133424)
(-0.121191 0.000254917 -0.0140635)
(-0.122197 -0.00282184 -0.0147723)
(-0.124776 -0.00920929 -0.0154959)
(-0.129331 -0.021329 -0.0162946)
(-0.134089 -0.0424857 -0.0173725)
(-0.113879 0.034033 -0.000767016)
(-0.102761 0.0145129 -0.00217703)
(-0.0954092 0.00633036 -0.00325225)
(-0.0913659 0.00287879 -0.00422217)
(-0.0891061 0.00138602 -0.00512833)
(-0.0878145 0.000733384 -0.00600191)
(-0.087034 0.000454806 -0.00686026)
(-0.0864952 0.000357728 -0.00770992)
(-0.0860392 0.000362971 -0.00855264)
(-0.0855667 0.000437283 -0.00938752)
(-0.0850122 0.000564754 -0.0102116)
(-0.0843367 0.000732314 -0.0110198)
(-0.083533 0.000917826 -0.0118052)
(-0.0826486 0.00107235 -0.0125587)
(-0.0818331 0.0010835 -0.0132694)
(-0.08142 0.000692189 -0.0139285)
(-0.0820019 -0.000703654 -0.0145432)
(-0.0847142 -0.00454106 -0.0151223)
(-0.091736 -0.0140345 -0.0157021)
(-0.103969 -0.0364141 -0.0166381)
(-0.0584778 0.0210228 -0.00136436)
(-0.0435103 0.00600324 -0.00273749)
(-0.0374796 0.00179859 -0.00347115)
(-0.0353547 0.000557463 -0.00421092)
(-0.0344637 0.000178443 -0.0049702)
(-0.0340295 6.59016e-05 -0.00574407)
(-0.0337859 3.74143e-05 -0.00652952)
(-0.0336111 3.75244e-05 -0.00732119)
(-0.0334433 5.09971e-05 -0.0081143)
(-0.0332436 7.49858e-05 -0.00890446)
(-0.0329811 0.000110423 -0.00968653)
(-0.0326285 0.000159331 -0.0104536)
(-0.0321627 0.000223387 -0.0111957)
(-0.0315717 0.000300924 -0.0118982)
(-0.030874 0.000377337 -0.0125402)
(-0.0301641 0.000395757 -0.0130917)
(-0.0297345 0.000154125 -0.0135132)
(-0.0304459 -0.0011024 -0.0137691)
(-0.0356113 -0.00584341 -0.01376)
(-0.0524237 -0.0232131 -0.0140711)
(-0.028376 0.000627478 1.5157e-06)
(-0.0301484 0.000449411 1.04837e-06)
(-0.0313981 0.000302676 6.84058e-07)
(-0.0322381 0.000194001 4.23377e-07)
(-0.0327845 0.000120789 2.52538e-07)
(-0.0331377 7.63157e-05 1.50212e-07)
(-0.0333761 5.34894e-05 9.70154e-08)
(-0.0335583 4.66756e-05 7.73172e-08)
(-0.0337275 5.20623e-05 8.1776e-08)
(-0.0339163 6.72256e-05 1.0343e-07)
(-0.0341488 9.02965e-05 1.38752e-07)
(-0.0344409 0.000118908 1.8383e-07)
(-0.034797 0.000148994 2.32288e-07)
(-0.0352034 0.000173538 2.7386e-07)
(-0.035619 0.000181506 2.92168e-07)
(-0.0359648 0.00015764 2.64088e-07)
(-0.036113 8.38056e-05 1.49287e-07)
(-0.0358892 -5.94456e-05 -9.56542e-08)
(-0.035085 -0.000279781 -5.17144e-07)
(-0.033495 -0.000568236 -1.13982e-06)
(-0.0731647 0.00394756 -1.37734e-06)
(-0.0775273 0.0028951 -1.14465e-06)
(-0.0806352 0.00201586 -8.97475e-07)
(-0.0827584 0.00134908 -6.76869e-07)
(-0.0841693 0.000884037 -4.96729e-07)
(-0.0851025 0.00058647 -3.63607e-07)
(-0.0857418 0.000417929 -2.75995e-07)
(-0.0862241 0.000345586 -2.28694e-07)
(-0.0866493 0.000344641 -2.13123e-07)
(-0.0870894 0.00039645 -2.20566e-07)
(-0.0875929 0.000484463 -2.40889e-07)
(-0.0881851 0.000589064 -2.61584e-07)
(-0.0888607 0.00068193 -2.6504e-07)
(-0.0895711 0.000720631 -2.27764e-07)
(-0.0902065 0.000644931 -1.22691e-07)
(-0.090576 0.000377524 7.50623e-08)
(-0.0903943 -0.000166997 3.88573e-07)
(-0.0892819 -0.00106264 8.14608e-07)
(-0.0868011 -0.00233263 1.32451e-06)
(-0.0825367 -0.00391077 1.79709e-06)
(-0.107869 0.0102961 -1.69898e-07)
(-0.113801 0.00754457 -2.94596e-07)
(-0.117935 0.00526384 -3.18768e-07)
(-0.120707 0.00354119 -2.99858e-07)
(-0.122524 0.00233862 -2.53851e-07)
(-0.123712 0.0015627 -2.00668e-07)
(-0.124518 0.00111251 -1.52912e-07)
(-0.125115 0.000902305 -1.15576e-07)
(-0.125627 0.000866353 -8.87339e-08)
(-0.126139 0.000953729 -7.07507e-08)
(-0.126706 0.00111841 -5.81364e-08)
(-0.127351 0.00130715 -4.59229e-08)
(-0.128062 0.00144657 -2.93088e-08)
(-0.12877 0.00143128 -2.84263e-09)
(-0.129335 0.00111623 4.02562e-08)
(-0.129514 0.000319225 1.02656e-07)
(-0.128938 -0.00115725 1.79447e-07)
(-0.127114 -0.00347525 2.7489e-07)
(-0.123451 -0.00668183 3.68394e-07)
(-0.117358 -0.0106072 3.03759e-07)
(-0.133397 0.0180051 -2.56031e-07)
(-0.139857 0.0129948 -4.1971e-07)
(-0.144115 0.00894082 -4.12256e-07)
(-0.146825 0.00594552 -3.64664e-07)
(-0.148518 0.00389107 -2.88676e-07)
(-0.149581 0.00258029 -2.12692e-07)
(-0.150276 0.00182028 -1.50688e-07)
(-0.150775 0.00145567 -1.03934e-07)
(-0.151192 0.00137106 -7.0925e-08)
(-0.151601 0.00147898 -4.89241e-08)
(-0.152047 0.00170196 -3.44187e-08)
(-0.152551 0.00195209 -2.41147e-08)
(-0.1531 0.00210982 -1.52243e-08)
(-0.153635 0.00200391 -3.76904e-09)
(-0.154029 0.00139703 1.87683e-08)
(-0.154048 -1.40986e-05 6.10233e-08)
(-0.15332 -0.0025686 1.15434e-07)
(-0.151297 -0.00656292 2.0736e-07)
(-0.147261 -0.0121138 3.72604e-07)
(-0.140396 -0.0189681 3.16988e-07)
(-0.15012 0.0260061 -7.19609e-07)
(-0.156007 0.0182432 -7.99117e-07)
(-0.15944 0.0122129 -6.34513e-07)
(-0.161367 0.00792546 -4.92376e-07)
(-0.162426 0.00507996 -3.44092e-07)
(-0.163014 0.00331 -2.24425e-07)
(-0.163357 0.00229964 -1.42766e-07)
(-0.163581 0.00181417 -9.02614e-08)
(-0.163758 0.00168951 -5.88245e-08)
(-0.16393 0.00180755 -4.23226e-08)
(-0.164123 0.00206805 -3.56381e-08)
(-0.16435 0.00235974 -3.55072e-08)
(-0.164612 0.0025308 -3.9641e-08)
(-0.164884 0.00235925 -4.30822e-08)
(-0.165096 0.00152685 -3.15529e-08)
(-0.165095 -0.000393156 1.13942e-08)
(-0.16458 -0.00391255 7.74656e-08)
(-0.163032 -0.00953712 2.18274e-07)
(-0.159634 -0.0175711 6.52107e-07)
(-0.153233 -0.0277935 8.92121e-07)
(-0.157946 0.0332271 -1.58886e-06)
(-0.16201 0.0222581 -1.31945e-06)
(-0.163627 0.0142606 -8.00711e-07)
(-0.164109 0.00889971 -5.32572e-07)
(-0.164129 0.00551756 -3.11826e-07)
(-0.164 0.00349786 -1.63259e-07)
(-0.163846 0.00237915 -8.06427e-08)
(-0.163703 0.00185186 -3.74174e-08)
(-0.163571 0.00171687 -1.6647e-08)
(-0.163446 0.00184138 -8.90419e-09)
(-0.163323 0.00211981 -9.54219e-09)
(-0.163207 0.00243822 -1.67528e-08)
(-0.163115 0.00263862 -2.99836e-08)
(-0.163071 0.00248009 -4.68656e-08)
(-0.163098 0.00159659 -4.61024e-08)
(-0.163186 -0.00054205 1.42047e-09)
(-0.16321 -0.00464078 2.08551e-08)
(-0.162804 -0.0115164 1.45797e-07)
(-0.161158 -0.0218747 1.10889e-06)
(-0.156681 -0.0358212 2.24984e-06)
(-0.15615 0.0383453 -4.28898e-06)
(-0.156879 0.0238571 -2.75113e-06)
(-0.155719 0.0142841 -1.23033e-06)
(-0.154296 0.00840439 -6.39121e-07)
(-0.153096 0.00496075 -2.7015e-07)
(-0.152209 0.00302496 -8.22049e-08)
(-0.151573 0.00200236 -9.93702e-09)
(-0.151093 0.00154008 1.35841e-08)
(-0.150687 0.00143378 1.693e-08)
(-0.150295 0.00156027 1.08158e-08)
(-0.14988 0.0018303 -1.27641e-09)
(-0.149433 0.00215141 -1.88564e-08)
(-0.148978 0.00239156 -4.28171e-08)
(-0.148585 0.00233602 -7.33202e-08)
(-0.148378 0.00163038 -7.38628e-08)
(-0.148526 -0.000296261 5.67764e-08)
(-0.149187 -0.00432036 1.12721e-07)
(-0.150353 -0.0116403 3.68847e-07)
(-0.151513 -0.0236701 2.63508e-06)
(-0.150698 -0.041475 6.1922e-06)
(-0.142897 0.0393726 -7.33434e-06)
(-0.13847 0.0215796 -2.87531e-06)
(-0.133913 0.0115962 -5.44356e-07)
(-0.130624 0.00623564 -2.18387e-07)
(-0.128443 0.00342361 2.26812e-08)
(-0.12705 0.00197843 1.08688e-07)
(-0.126142 0.00126829 1.01266e-07)
(-0.125495 0.000970456 8.20913e-08)
(-0.124956 0.000921399 6.73407e-08)
(-0.124424 0.00103474 5.68738e-08)
(-0.123836 0.00125582 4.79081e-08)
(-0.123164 0.00153157 3.62528e-08)
(-0.122426 0.00178261 1.57269e-08)
(-0.121704 0.00186676 -3.20093e-08)
(-0.121183 0.00152019 -1.17886e-07)
(-0.121191 0.000252877 -1.29062e-07)
(-0.122195 -0.0028298 3.89753e-08)
(-0.124757 -0.0092295 -3.17347e-07)
(-0.129289 -0.0213401 2.37064e-06)
(-0.134144 -0.0424343 9.99003e-06)
(-0.113945 0.0338495 -9.23644e-06)
(-0.102697 0.0144588 4.03397e-06)
(-0.0953983 0.00632072 4.41963e-06)
(-0.0913744 0.00287249 1.82438e-06)
(-0.0891107 0.00138139 9.19297e-07)
(-0.0878165 0.000730585 5.42978e-07)
(-0.0870349 0.000453031 3.25129e-07)
(-0.0864953 0.000356452 2.33845e-07)
(-0.0860388 0.000361905 2.17743e-07)
(-0.085566 0.000436236 2.42794e-07)
(-0.0850115 0.000563611 2.92324e-07)
(-0.0843361 0.00073104 3.52114e-07)
(-0.083533 0.000916512 3.96971e-07)
(-0.0826498 0.00107133 3.60759e-07)
(-0.0818361 0.00108351 1.50293e-07)
(-0.0814273 0.000694231 -1.98619e-07)
(-0.082018 -0.000699971 -1.22564e-06)
(-0.0847096 -0.00453395 -5.39179e-06)
(-0.0916541 -0.0139757 -7.06059e-06)
(-0.104019 -0.0361825 1.11621e-05)
(-0.0585136 0.0208878 -5.02313e-05)
(-0.0433612 0.00594069 -8.03612e-06)
(-0.0374387 0.00177377 -4.49863e-07)
(-0.035351 0.000543573 -1.30332e-06)
(-0.034461 0.000170505 -8.34444e-07)
(-0.0340275 6.15734e-05 -3.7448e-07)
(-0.033785 3.48931e-05 -2.02345e-07)
(-0.0336107 3.57777e-05 -1.37161e-07)
(-0.0334432 4.94715e-05 -1.16891e-07)
(-0.0332436 7.33593e-05 -1.25914e-07)
(-0.0329812 0.000108504 -1.54921e-07)
(-0.0326287 0.000157048 -1.95665e-07)
(-0.0321628 0.000220861 -2.36234e-07)
(-0.0315715 0.000298676 -2.54496e-07)
(-0.0308728 0.000376602 -1.6444e-07)
(-0.0301631 0.000398562 2.67945e-07)
(-0.0297364 0.000163218 6.23957e-07)
(-0.0304075 -0.00108068 -1.68693e-06)
(-0.0354164 -0.00577655 3.85808e-06)
(-0.0524145 -0.023038 6.17651e-05)
(-0.028376 0.000627479 -1.50155e-06)
(-0.0301484 0.000449411 -1.03626e-06)
(-0.0313981 0.000302676 -6.74278e-07)
(-0.032238 0.000194001 -4.16285e-07)
(-0.0327844 0.000120789 -2.47493e-07)
(-0.0331376 7.63156e-05 -1.469e-07)
(-0.033376 5.34892e-05 -9.44713e-08)
(-0.0335582 4.66752e-05 -7.574e-08)
(-0.0337275 5.20619e-05 -8.11369e-08)
(-0.0339162 6.7225e-05 -1.03952e-07)
(-0.0341487 9.02958e-05 -1.40288e-07)
(-0.0344408 0.000118907 -1.86895e-07)
(-0.0347969 0.000148994 -2.37391e-07)
(-0.0352033 0.000173537 -2.80709e-07)
(-0.035619 0.000181505 -3.00648e-07)
(-0.0359647 0.000157639 -2.74523e-07)
(-0.036113 8.38046e-05 -1.61693e-07)
(-0.0358891 -5.94469e-05 8.14144e-08)
(-0.035085 -0.000279783 5.00993e-07)
(-0.033495 -0.000568238 1.12139e-06)
(-0.0731645 0.00394756 1.39345e-06)
(-0.0775271 0.00289509 1.15857e-06)