/*--------------------------------*- C++ -*----------------------------------*\
| =========                 |                                                 |
| \\      /  F ield         | OpenFOAM: The Open Source CFD Toolbox           |
|  \\    /   O peration     | Version:  2.4.0                                 |
|   \\  /    A nd           | Web:      www.OpenFOAM.org                      |
|    \\/     M anipulation  |                                                 |
\*---------------------------------------------------------------------------*/
FoamFile
{
    version     2.0;
    format      ascii;
    class       surfaceScalarField;
    location    "0.0095";
    object      phi;
}
// * * * * * * * * * * * * * * * * * * * * * * * * * * * * * * * * * * * * * //

dimensions      [0 3 -1 0 0 0 0];

internalField   nonuniform List<scalar> 
12720
(
1.01871e-07
-1.03931e-07
-2.30317e-10
-5.70442e-07
7.97296e-07
6.82608e-08
-2.08925e-06
1.69307e-06
1.39889e-07
-4.19259e-06
2.33206e-06
1.93088e-07
-6.6493e-06
2.71732e-06
2.1405e-07
-9.26359e-06
2.88976e-06
1.96387e-07
-1.18721e-05
2.88516e-06
1.38146e-07
-1.43343e-05
2.72673e-06
3.94787e-08
-1.6529e-05
2.43426e-06
-9.77423e-08
2.03964e-06
-2.69488e-07
-1.83654e-05
-8.33836e-07
6.09746e-07
-6.8475e-08
-3.30139e-06
3.28213e-06
1.53069e-09
-7.51551e-06
5.72686e-06
5.40661e-08
-1.29339e-05
7.50803e-06
8.55595e-08
-1.91106e-05
8.61049e-06
9.01895e-08
-2.56318e-05
9.10397e-06
6.28951e-08
-3.21148e-05
9.06042e-06
1.5963e-09
-3.82154e-05
8.53735e-06
-9.44711e-08
-4.36373e-05
7.59859e-06
-2.24932e-07
6.35099e-06
-3.87788e-07
-4.81658e-05
-1.87696e-06
2.30324e-06
-1.41874e-07
-6.11214e-06
7.73417e-06
-4.87996e-08
-1.27335e-05
1.23486e-05
3.96682e-09
-2.09001e-05
1.56961e-05
2.88446e-08
-3.00243e-05
1.77731e-05
2.81578e-08
-3.95605e-05
1.86791e-05
-1.0223e-09
-4.89779e-05
1.85167e-05
-5.99893e-08
-5.77804e-05
1.73784e-05
-1.49952e-07
-6.55311e-05
1.53867e-05
-2.71925e-07
1.27635e-05
-4.25866e-07
-7.19113e-05
-2.74242e-06
4.78785e-06
-1.91873e-07
-8.47176e-06
1.37598e-05
-7.121e-08
-1.70916e-05
2.09391e-05
-1.11594e-08
-2.74628e-05
2.60596e-05
1.43738e-08
-3.88802e-05
2.92042e-05
1.44608e-08
-5.07068e-05
3.05192e-05
-1.20207e-08
-6.23057e-05
3.01296e-05
-6.58093e-08
-7.30578e-05
2.81461e-05
-1.48925e-07
-8.239e-05
2.47403e-05
-2.64338e-07
2.0263e-05
-4.14786e-07
-8.98669e-05
-3.35751e-06
7.83686e-06
-1.94864e-07
-1.01794e-05
2.09384e-05
-5.03361e-08
-2.02624e-05
3.0969e-05
1.75182e-08
-3.22277e-05
3.7991e-05
4.69483e-08
-4.52783e-05
4.22437e-05
5.19511e-08
-5.8714e-05
4.39421e-05
3.24524e-08
-7.18194e-05
4.32233e-05
-1.25455e-08
-8.38678e-05
4.0187e-05
-8.67846e-08
-9.41322e-05
3.5015e-05
-1.9637e-07
2.81606e-05
-3.49023e-07
-0.000102001
-3.69218e-06
1.1194e-05
-1.3524e-07
-1.11285e-05
2.87698e-05
2.70296e-08
-2.20424e-05
4.18233e-05
1.01436e-07
-3.49107e-05
5.08197e-05
1.37094e-07
-4.88813e-05
5.61993e-05
1.5095e-07
-6.32193e-05
5.82631e-05
1.43155e-07
-7.71619e-05
5.7149e-05
1.11417e-07
-8.98953e-05
5.29043e-05
4.9044e-08
-0.000100504
4.56432e-05
-5.48716e-08
3.58107e-05
-2.17742e-07
-0.000108069
-3.73501e-06
1.45916e-05
-5.45852e-09
-1.12681e-05
3.67047e-05
1.67462e-07
-2.23162e-05
5.28099e-05
2.46143e-07
-3.53203e-05
6.37808e-05
2.89668e-07
-4.94144e-05
7.02731e-05
3.16119e-07
-6.38611e-05
7.26859e-05
3.25255e-07
-7.78919e-05
7.11516e-05
3.12522e-07
-9.06559e-05
6.56211e-05
2.67016e-07
-0.000101032
5.60268e-05
1.71405e-07
4.25295e-05
-1.09298e-08
-0.000107549
-3.49285e-06
1.77698e-05
1.94696e-07
-1.06033e-05
4.41942e-05
3.71142e-07
-2.10676e-05
6.32156e-05
4.51403e-07
-3.33881e-05
7.60581e-05
5.03931e-07
-4.67154e-05
8.35769e-05
5.46475e-07
-6.03316e-05
8.6275e-05
5.78256e-07
-7.35056e-05
8.42959e-05
5.92003e-07
-8.54538e-05
7.74884e-05
5.71862e-07
-9.49091e-05
6.55218e-05
4.9433e-07
4.7818e-05
2.86984e-07
-9.93975e-05
-3.00018e-06
2.05005e-05
4.58181e-07
-9.21835e-06
5.07435e-05
6.3196e-07
-1.84257e-05
7.23722e-05
7.11032e-07
-2.92523e-05
8.68456e-05
7.72929e-07
-4.08659e-05
9.51631e-05
8.34057e-07
-5.2548e-05
9.79228e-05
8.93528e-07
-6.35984e-05
9.53109e-05
9.41585e-07
-7.34259e-05
8.71303e-05
9.56831e-07
-8.08778e-05
7.287e-05
9.13618e-07
5.11448e-05
6.79885e-07
-8.15287e-05
-2.32784e-06
7.71649e-07
2.26206e-05
-7.30158e-06
9.38326e-07
5.59832e-05
-1.47234e-05
1.01348e-06
7.97559e-05
-2.33777e-05
1.0838e-06
9.54681e-05
-3.24052e-05
1.16398e-06
0.000104155
-4.09834e-05
1.25457e-06
0.000106427
-4.82524e-05
1.34627e-06
0.00010243
-5.36853e-05
1.4151e-06
9.17706e-05
-5.68762e-05
1.45182e-06
7.33169e-05
1.27558e-06
-4.90864e-05
4.37664e-05
1.05913e-07
-1.0739e-07
-5.1206e-11
-5.66839e-07
7.94945e-07
-1.66e-11
-2.08718e-06
1.68522e-06
-9.50313e-12
-4.19127e-06
2.32077e-06
-6.74062e-12
-6.64863e-06
2.70446e-06
-4.83438e-12
-9.26344e-06
2.87615e-06
-3.575e-12
-1.18724e-05
2.87156e-06
-2.72188e-12
-1.43353e-05
2.71392e-06
-2.1125e-12
-1.65308e-05
2.42284e-06
-1.67813e-12
2.02985e-06
-1.375e-12
-1.83676e-05
-8.30459e-07
6.05897e-07
-1.6425e-11
-3.30268e-06
3.28367e-06
-1.09044e-11
-7.5193e-06
5.72437e-06
-8.81562e-12
-1.29361e-05
7.50395e-06
-6.81562e-12
-1.91115e-05
8.60643e-06
-5.10625e-12
-2.56317e-05
9.09998e-06
-3.84375e-12
-3.21139e-05
9.0566e-06
-2.94375e-12
-3.82141e-05
8.53393e-06
-2.30312e-12
-4.36363e-05
7.59587e-06
-1.84062e-12
6.34853e-06
-1.50937e-12
-4.81653e-05
-1.86838e-06
2.30002e-06
-9.23125e-12
-6.11073e-06
7.73755e-06
-8.6125e-12
-1.27363e-05
1.23493e-05
-7.33975e-12
-2.09008e-05
1.56963e-05
-5.86506e-12
-3.00242e-05
1.77741e-05
-4.61041e-12
-3.95602e-05
1.86805e-05
-3.61366e-12
-4.89772e-05
1.85184e-05
-2.86275e-12
-5.778e-05
1.73804e-05
-2.29875e-12
-6.55317e-05
1.53895e-05
-1.87063e-12
1.27659e-05
-1.545e-12
-7.19128e-05
-2.73007e-06
4.78533e-06
-6.30938e-12
-8.46949e-06
1.37618e-05
-6.475e-12
-1.7095e-05
2.09382e-05
-5.70939e-12
-2.74631e-05
2.60575e-05
-4.76937e-12
-3.88796e-05
2.92021e-05
-3.96659e-12
-5.07061e-05
3.05172e-05
-3.27519e-12
-6.23047e-05
3.01277e-05
-2.71156e-12
-7.30572e-05
2.81449e-05
-2.24969e-12
-8.23916e-05
2.47413e-05
-1.86781e-12
2.02647e-05
-1.56156e-12
-8.98703e-05
-3.34302e-06
7.83549e-06
-4.32812e-12
-1.01775e-05
2.09395e-05
-4.7e-12
-2.02673e-05
3.0968e-05
-4.33062e-12
-3.22284e-05
3.7989e-05
-3.8075e-12
-4.52777e-05
4.22413e-05
-3.3675e-12
-5.87127e-05
4.39396e-05
-2.93969e-12
-7.18172e-05
4.32207e-05
-2.53938e-12
-8.38659e-05
4.01849e-05
-2.16562e-12
-9.41337e-05
3.50169e-05
-1.8275e-12
2.81655e-05
-1.54344e-12
-0.000102006
-3.67652e-06
1.1194e-05
-3.09375e-12
-1.1127e-05
2.87703e-05
-3.51563e-12
-2.20483e-05
4.1823e-05
-3.36375e-12
-3.49118e-05
5.08187e-05
-3.12125e-12
-4.88809e-05
5.61977e-05
-2.9375e-12
-6.32181e-05
5.82614e-05
-2.69656e-12
-7.71587e-05
5.71468e-05
-2.40281e-12
-8.98912e-05
5.29017e-05
-2.08219e-12
-0.000100506
4.5648e-05
-1.77437e-12
3.58265e-05
-1.52188e-12
-0.000108079
-3.71919e-06
1.45931e-05
-2.41562e-12
-1.12669e-05
3.67047e-05
-2.80313e-12
-2.23228e-05
5.28102e-05
-2.73875e-12
-3.53219e-05
6.37809e-05
-2.6625e-12
-4.94144e-05
7.02728e-05
-2.63312e-12
-6.38602e-05
7.2685e-05
-2.49344e-12
-7.78869e-05
7.11491e-05
-2.24719e-12
-9.06462e-05
6.56146e-05
-1.95e-12
-0.000101035
5.6029e-05
-1.67719e-12
4.25608e-05
-1.46563e-12
-0.000107568
-3.47822e-06
1.77725e-05
-2.00937e-12
-1.06026e-05
4.41937e-05
-2.29062e-12
-2.10743e-05
6.32168e-05
-2.30562e-12
-3.33901e-05
7.60597e-05
-2.33687e-12
-4.6716e-05
8.35784e-05
-2.37562e-12
-6.03319e-05
8.62756e-05
-2.26594e-12
-7.34984e-05
8.42934e-05
-2.02562e-12
-8.543e-05
7.74731e-05
-1.75312e-12
-9.49075e-05
6.54971e-05
-1.50938e-12
4.78277e-05
-1.3125e-12
-9.94313e-05
-2.98757e-06
2.0504e-05
-1.64687e-12
-9.21808e-06
5.07428e-05
-1.90625e-12
-1.8432e-05
7.23744e-05
-1.97344e-12
-2.92548e-05
8.68494e-05
-2.05562e-12
-4.08679e-05
9.51684e-05
-2.10031e-12
-5.25529e-05
9.79309e-05
-1.97813e-12
-6.35966e-05
9.53237e-05
-1.73125e-12
-7.33875e-05
8.71403e-05
-1.5e-12
-8.08597e-05
7.28662e-05
-1.31875e-12
5.11727e-05
-1.09375e-12
-8.15669e-05
-2.31773e-06
-1.3625e-12
2.26243e-05
-7.30128e-06
-1.5875e-12
5.59821e-05
-1.47283e-05
-1.67544e-12
7.97581e-05
-2.33794e-05
-1.76625e-12
9.54725e-05
-3.24077e-05
-1.78219e-12
0.000104162
-4.0996e-05
-1.62938e-12
0.000106439
-4.82759e-05
-1.38437e-12
0.000102454
-5.36703e-05
-1.24375e-12
9.18094e-05
-5.68729e-05
-1.1875e-12
7.33528e-05
-1.00625e-12
-4.91246e-05
4.37996e-05
1.05977e-07
-1.07327e-07
2.32943e-10
-5.66778e-07
7.94994e-07
-6.82599e-08
-2.08715e-06
1.68525e-06
-1.39888e-07
-4.19125e-06
2.32079e-06
-1.93088e-07
-6.64862e-06
2.70447e-06
-2.14049e-07
-9.26344e-06
2.87615e-06
-1.96387e-07
-1.18724e-05
2.87156e-06
-1.38146e-07
-1.43353e-05
2.71392e-06
-3.94786e-08
-1.65308e-05
2.42284e-06
9.77425e-08
2.02985e-06
2.69488e-07
-1.83676e-05
-8.30411e-07
6.05958e-07
6.84757e-08
-3.30263e-06
3.28373e-06
-1.53007e-09
-7.51927e-06
5.72442e-06
-5.40655e-08
-1.29361e-05
7.50396e-06
-8.55591e-08
-1.91115e-05
8.60643e-06
-9.01893e-08
-2.56317e-05
9.09998e-06
-6.28948e-08
-3.21139e-05
9.0566e-06
-1.59613e-09
-3.82141e-05
8.53393e-06
9.44713e-08
-4.36362e-05
7.59587e-06
2.24932e-07
6.34852e-06
3.87786e-07
-4.81652e-05
-1.86835e-06
2.30006e-06
1.41875e-07
-6.11072e-06
7.73761e-06
4.88e-08
-1.27363e-05
1.23494e-05
-3.96641e-09
-2.09007e-05
1.56963e-05
-2.88443e-08
-3.00242e-05
1.77741e-05
-2.81576e-08
-3.95602e-05
1.86805e-05
1.02251e-09
-4.89772e-05
1.85184e-05
5.99896e-08
-5.778e-05
1.73804e-05
1.49952e-07
-6.55317e-05
1.53895e-05
2.71925e-07
1.27659e-05
4.25868e-07
-7.19128e-05
-2.73005e-06
4.78536e-06
1.91873e-07
-8.46945e-06
1.37618e-05
7.12104e-08
-1.7095e-05
2.09382e-05
1.11597e-08
-2.74631e-05
2.60575e-05
-1.43735e-08
-3.88796e-05
2.92021e-05
-1.44606e-08
-5.07061e-05
3.05172e-05
1.20209e-08
-6.23047e-05
3.01277e-05
6.58097e-08
-7.30572e-05
2.8145e-05
1.48925e-07
-8.23916e-05
2.47413e-05
2.64338e-07
2.02647e-05
4.14788e-07
-8.98703e-05
-3.34301e-06
7.8355e-06
1.94865e-07
-1.01774e-05
2.09396e-05
5.03364e-08
-2.02673e-05
3.09681e-05
-1.75179e-08
-3.22284e-05
3.7989e-05
-4.69484e-08
-4.52777e-05
4.22413e-05
-5.19511e-08
-5.87127e-05
4.39396e-05
-3.24522e-08
-7.18172e-05
4.32207e-05
1.25457e-08
-8.38659e-05
4.01849e-05
8.6785e-08
-9.41337e-05
3.50169e-05
1.9637e-07
2.81655e-05
3.49022e-07
-0.000102006
-3.67652e-06
1.1194e-05
1.3524e-07
-1.1127e-05
2.87703e-05
-2.70294e-08
-2.20483e-05
4.18231e-05
-1.01436e-07
-3.49118e-05
5.08187e-05
-1.37094e-07
-4.88809e-05
5.61977e-05
-1.50949e-07
-6.32181e-05
5.82614e-05
-1.43155e-07
-7.71587e-05
5.71468e-05
-1.11417e-07
-8.98912e-05
5.29017e-05
-4.90439e-08
-0.000100506
4.5648e-05
5.48717e-08
3.58265e-05
2.17742e-07
-0.000108079
-3.71919e-06
1.45931e-05
5.45867e-09
-1.12669e-05
3.67047e-05
-1.67462e-07
-2.23228e-05
5.28103e-05
-2.46143e-07
-3.53219e-05
6.37809e-05
-2.89668e-07
-4.94144e-05
7.02728e-05
-3.16119e-07
-6.38602e-05
7.2685e-05
-3.25254e-07
-7.78869e-05
7.11491e-05
-3.12521e-07
-9.06462e-05
6.56146e-05
-2.67016e-07
-0.000101035
5.6029e-05
-1.71405e-07
4.25609e-05
1.09298e-08
-0.000107568
-3.47822e-06
1.77726e-05
-1.94696e-07
-1.06026e-05
4.41937e-05
-3.71142e-07
-2.10743e-05
6.32168e-05
-4.51405e-07
-3.33901e-05
7.60597e-05
-5.03931e-07
-4.6716e-05
8.35784e-05
-5.46474e-07
-6.03319e-05
8.62756e-05
-5.78255e-07
-7.34984e-05
8.42934e-05
-5.92002e-07
-8.543e-05
7.74731e-05
-5.7186e-07
-9.49075e-05
6.54971e-05
-4.94332e-07
4.78278e-05
-2.86984e-07
-9.94313e-05
-2.98757e-06
2.0504e-05
-4.5818e-07
-9.21808e-06
5.07428e-05
-6.31959e-07
-1.8432e-05
7.23747e-05
-7.11034e-07
-2.92548e-05
8.68494e-05
-7.72931e-07
-4.08679e-05
9.51684e-05
-8.34055e-07
-5.25529e-05
9.79309e-05
-8.93527e-07
-6.35966e-05
9.53237e-05
-9.41584e-07
-7.33875e-05
8.71403e-05
-9.56833e-07
-8.08597e-05
7.28662e-05
-9.13619e-07
5.11727e-05
-6.79883e-07
-8.15669e-05
-2.31773e-06
-7.7165e-07
2.26242e-05
-7.30128e-06
-9.38324e-07
5.59821e-05
-1.47283e-05
-1.01348e-06
7.97584e-05
-2.33794e-05
-1.0838e-06
9.54725e-05
-3.24077e-05
-1.16398e-06
0.000104162
-4.0996e-05
-1.25457e-06
0.000106439
-4.82759e-05
-1.34627e-06
0.000102454
-5.36703e-05
-1.4151e-06
9.18094e-05
-5.68729e-05
-1.45182e-06
7.33528e-05
-1.27558e-06
-4.91246e-05
4.37996e-05
1.02207e-07
-1.03594e-07
-5.70159e-07
7.97479e-07
-2.08913e-06
1.69315e-06
-4.19252e-06
2.33209e-06
-6.64924e-06
2.71734e-06
-9.26353e-06
2.88977e-06
-1.1872e-05
2.88516e-06
-1.43343e-05
2.72674e-06
-1.6529e-05
2.43426e-06
2.03964e-06
-1.83654e-05
-8.33653e-07
6.10032e-07
-3.30119e-06
3.28232e-06
-7.5154e-06
5.72694e-06
-1.29339e-05
7.50809e-06
-1.91105e-05
8.6105e-06
-2.56317e-05
9.10398e-06
-3.21148e-05
9.06043e-06
-3.82153e-05
8.53736e-06
-4.36372e-05
7.59859e-06
6.35099e-06
-4.81658e-05
-1.87688e-06
2.30337e-06
-6.11205e-06
7.73432e-06
-1.27334e-05
1.23487e-05
-2.09e-05
1.56961e-05
-3.00242e-05
1.77732e-05
-3.95604e-05
1.86791e-05
-4.89778e-05
1.85167e-05
-5.77804e-05
1.73784e-05
-6.55311e-05
1.53868e-05
1.27635e-05
-7.19113e-05
-2.74238e-06
4.78792e-06
-8.4717e-06
1.37599e-05
-1.70915e-05
2.09392e-05
-2.74627e-05
2.60597e-05
-3.88801e-05
2.92043e-05
-5.07068e-05
3.05192e-05
-6.23057e-05
3.01296e-05
-7.30578e-05
2.81461e-05
-8.239e-05
2.47403e-05
2.0263e-05
-8.98669e-05
-3.35749e-06
7.83688e-06
-1.01793e-05
2.09384e-05
-2.02623e-05
3.0969e-05
-3.22277e-05
3.79911e-05
-4.52783e-05
4.22437e-05
-5.8714e-05
4.39422e-05
-7.18194e-05
4.32234e-05
-8.38678e-05
4.01871e-05
-9.41322e-05
3.5015e-05
2.81606e-05
-0.000102001
-3.69217e-06
1.1194e-05
-1.11285e-05
2.87698e-05
-2.20423e-05
4.18234e-05
-3.49107e-05
5.08197e-05
-4.88813e-05
5.61993e-05
-6.32192e-05
5.82632e-05
-7.71619e-05
5.71493e-05
-8.98953e-05
5.29043e-05
-0.000100504
4.56432e-05
3.58107e-05
-0.000108069
-3.73497e-06
1.45916e-05
-1.1268e-05
3.67048e-05
-2.23162e-05
5.281e-05
-3.53203e-05
6.37808e-05
-4.94144e-05
7.02731e-05
-6.38611e-05
7.26859e-05
-7.78919e-05
7.11519e-05
-9.06559e-05
6.56211e-05
-0.000101032
5.60268e-05
4.25296e-05
-0.000107549
-3.49285e-06
1.77698e-05
-1.06033e-05
4.41942e-05
-2.10676e-05
6.32156e-05
-3.3388e-05
7.60581e-05
-4.67154e-05
8.35769e-05
-6.03316e-05
8.6275e-05
-7.35056e-05
8.42959e-05
-8.54538e-05
7.74884e-05
-9.49091e-05
6.55218e-05
4.7818e-05
-9.93972e-05
-3.00018e-06
2.05005e-05
-9.21835e-06
5.07435e-05
-1.84257e-05
7.23722e-05
-2.92523e-05
8.68456e-05
-4.08659e-05
9.51631e-05
-5.2548e-05
9.79228e-05
-6.35984e-05
9.53109e-05
-7.34259e-05
8.71303e-05
-8.08778e-05
7.287e-05
5.11448e-05
-8.15288e-05
-2.32784e-06
2.26206e-05
-7.30158e-06
5.59833e-05
-1.47234e-05
7.97559e-05
-2.33777e-05
9.54681e-05
-3.24052e-05
0.000104155
-4.09834e-05
0.000106427
-4.82524e-05
0.00010243
-5.36853e-05
9.17706e-05
-5.68762e-05
7.33169e-05
-4.90864e-05
4.37664e-05
-1.98037e-05
1.59852e-06
-4.69264e-07
-2.08631e-05
1.17953e-06
-6.89061e-07
-2.16053e-05
8.28425e-07
-9.21679e-07
-2.21067e-05
5.61626e-07
-1.16172e-06
-2.24409e-05
3.75556e-07
-1.40561e-06
-2.26694e-05
2.57312e-07
-1.65126e-06
-2.28402e-05
1.92328e-07
-1.8977e-06
-2.29903e-05
1.68202e-07
-2.14468e-06
-2.31481e-05
1.75541e-07
-2.39256e-06
-2.33353e-05
2.07115e-07
-2.6422e-06
-2.35678e-05
2.56117e-07
-2.89498e-06
-2.38537e-05
3.13974e-07
-3.15286e-06
-2.41893e-05
3.67941e-07
-3.4183e-06
-2.45533e-05
3.98802e-07
-3.69441e-06
-2.48999e-05
3.79293e-07
-3.9844e-06
-2.51509e-05
2.74429e-07
-4.29119e-06
-2.51929e-05
4.56831e-08
-4.61649e-06
-2.48825e-05
-3.38998e-07
-4.95954e-06
-2.40669e-05
-8.91584e-07
-5.31538e-06
-1.5822e-06
-5.67392e-06
-2.26228e-05
-5.17155e-05
4.97161e-06
-5.7877e-07
-5.43436e-05
3.67295e-06
-7.91648e-07
-5.62036e-05
2.59062e-06
-1.02064e-06
-5.74799e-05
1.76935e-06
-1.26098e-06
-5.83465e-05
1.19466e-06
-1.50897e-06
-5.89481e-05
8.25496e-07
-1.76204e-06
-5.93979e-05
6.16631e-07
-2.01855e-06
-5.97814e-05
5.29294e-07
-2.2777e-06
-6.0162e-05
5.33329e-07
-2.53929e-06
-6.05856e-05
6.04564e-07
-2.80376e-06
-6.10805e-05
7.19858e-07
-3.07206e-06
-6.16543e-05
8.51028e-07
-3.34562e-06
-6.22862e-05
9.58413e-07
-3.62634e-06
-6.29144e-05
9.84994e-07
-3.91642e-06
-6.34238e-05
8.529e-07
-4.21807e-06
-6.36338e-05
4.65371e-07
-4.53315e-06
-6.3295e-05
-2.81032e-07
-4.86235e-06
-6.21045e-05
-1.46987e-06
-5.20425e-06
-5.97499e-05
-3.12282e-06
-5.55447e-06
-5.14705e-06
-5.90448e-06
-5.59891e-05
-7.68109e-05
9.88828e-06
-6.08949e-07
-8.03563e-05
7.22754e-06
-8.14733e-07
-8.28125e-05
5.05147e-06
-1.03777e-06
-8.44688e-05
3.42692e-06
-1.27349e-06
-8.55778e-05
2.30352e-06
-1.51813e-06
-8.63384e-05
1.58576e-06
-1.76895e-06
-8.68991e-05
1.1769e-06
-2.02409e-06
-8.73669e-05
9.97088e-07
-2.28244e-06
-8.78181e-05
9.85344e-07
-2.54358e-06
-8.83053e-05
1.0932e-06
-2.8076e-06
-8.88584e-05
1.27488e-06
-3.07512e-06
-8.94806e-05
1.47588e-06
-3.34714e-06
-9.014e-05
1.62113e-06
-3.62514e-06
-9.07559e-05
1.60432e-06
-3.91076e-06
-9.11812e-05
1.28107e-06
-4.20574e-06
-9.11856e-05
4.7165e-07
-4.51172e-06
-9.04484e-05
-1.0183e-06
-4.8296e-06
-8.85709e-05
-3.35066e-06
-5.15878e-06
-8.51253e-05
-6.57471e-06
-5.49643e-06
-1.0523e-05
-5.83608e-06
-7.97644e-05
-9.5365e-05
1.53827e-05
-5.9874e-07
-9.91341e-05
1.09899e-05
-8.06534e-07
-0.000101607
7.51734e-06
-1.03182e-06
-0.000103192
5.00502e-06
-1.26969e-06
-0.000104206
3.31218e-06
-1.51616e-06
-0.000104875
2.25046e-06
-1.7684e-06
-0.000105351
1.65027e-06
-2.02454e-06
-0.000105736
1.38123e-06
-2.28347e-06
-0.0001061
1.34855e-06
-2.54464e-06
-0.000106487
1.48e-06
-2.80799e-06
-0.000106921
1.70964e-06
-3.07382e-06
-0.000107405
1.96058e-06
-3.34279e-06
-0.000107911
2.12744e-06
-3.61588e-06
-0.000108367
2.05953e-06
-3.89438e-06
-0.000108635
1.54811e-06
-4.17984e-06
-0.00010849
3.24449e-07
-4.47402e-06
-0.000107594
-1.9181e-06
-4.77875e-06
-0.000105487
-5.46082e-06
-5.09534e-06
-0.00010162
-1.04403e-05
-5.42356e-06
-1.66626e-05
-5.76045e-06
-9.54775e-05
-0.000107327
2.06812e-05
-5.45518e-07
-0.000110588
1.42289e-05
-7.6638e-07
-0.000112478
9.39234e-06
-1.00315e-06
-0.000113547
6.06066e-06
-1.25042e-06
-0.000114148
3.90623e-06
-1.50397e-06
-0.0001145
2.59711e-06
-1.76126e-06
-0.000114725
1.87198e-06
-2.02077e-06
-0.000114893
1.54773e-06
-2.28169e-06
-0.000115046
1.50077e-06
-2.54359e-06
-0.00011521
1.64289e-06
-2.80635e-06
-0.000115399
1.89783e-06
-3.07003e-06
-0.000115619
2.17872e-06
-3.33489e-06
-0.000115859
2.36545e-06
-3.60145e-06
-0.000116084
2.28131e-06
-3.87046e-06
-0.000116212
1.67061e-06
-4.14321e-06
-0.000116076
1.8315e-07
-4.42181e-06
-0.000115382
-2.61861e-06
-4.7093e-06
-0.000113651
-7.19775e-06
-5.00963e-06
-0.000110181
-1.38978e-05
-5.32684e-06
-2.26451e-05
-5.66437e-06
-0.000104164
-0.000112389
2.49306e-05
-4.47035e-07
-0.000114352
1.61596e-05
-6.96588e-07
-0.000115074
1.01014e-05
-9.55733e-07
-0.000115243
6.22004e-06
-1.21978e-06
-0.000115197
3.85662e-06
-1.48507e-06
-0.000115088
2.48661e-06
-1.75019e-06
-0.000114969
1.75326e-06
-2.01472e-06
-0.000114854
1.4328e-06
-2.27852e-06
-0.000114741
1.38776e-06
-2.54158e-06
-0.000114626
1.52833e-06
-2.80383e-06
-0.00011451
1.7825e-06
-3.06514e-06
-0.000114402
2.07065e-06
-3.32532e-06
-0.000114318
2.28046e-06
-3.58426e-06
-0.000114279
2.23867e-06
-3.84211e-06
-0.000114291
1.67741e-06
-4.09959e-06
-0.000114311
1.95658e-07
-4.3588e-06
-0.000114171
-2.77172e-06
-4.62407e-06
-0.000113456
-7.93266e-06
-4.90225e-06
-0.000111314
-1.60249e-05
-5.20316e-06
-2.74266e-05
-5.54261e-06
-0.000106433
-0.000109877
2.69825e-05
-3.10163e-07
-0.00010969
1.58639e-05
-6.09677e-07
-0.000108752
9.12741e-06
-9.01932e-07
-0.000107798
5.25105e-06
-1.18795e-06
-0.000107029
3.08448e-06
-1.46695e-06
-0.000106451
1.91e-06
-1.74038e-06
-0.000106008
1.31262e-06
-2.00982e-06
-0.000105637
1.06366e-06
-2.27631e-06
-0.000105287
1.03773e-06
-2.54037e-06
-0.00010492
1.16155e-06
-2.80205e-06
-0.000104521
1.38201e-06
-3.061e-06
-0.000104095
1.64279e-06
-3.31654e-06
-0.00010368
1.86194e-06
-3.5678e-06
-0.000103352
1.90419e-06
-3.81397e-06
-0.000103224
1.54088e-06
-4.05479e-06
-0.000103425
3.87628e-07
-4.29158e-06
-0.000104023
-2.18353e-06
-4.52929e-06
-0.000104847
-7.1215e-06
-4.77745e-06
-0.000105015
-1.57666e-05
-5.05237e-06
-2.96219e-05
-5.39275e-06
-0.000102431
-9.84531e-05
2.53689e-05
-1.52475e-07
-9.52994e-05
1.25562e-05
-5.27723e-07
-9.25109e-05
6.30923e-06
-8.60099e-07
-9.05434e-05
3.27081e-06
-1.16837e-06
-8.92334e-05
1.77674e-06
-1.45847e-06
-8.83622e-05
1.0437e-06
-1.73729e-06
-8.77456e-05
6.99153e-07
-2.0094e-06
-8.72488e-05
5.68106e-07
-2.2771e-06
-8.67788e-05
5.67643e-07
-2.54138e-06
-8.62747e-05
6.55937e-07
-2.80231e-06
-8.57022e-05
8.06812e-07
-3.05921e-06
-8.50575e-05
9.94269e-07
-3.31083e-06
-8.43797e-05
1.17855e-06
-3.55537e-06
-8.37709e-05
1.28725e-06
-3.79088e-06
-8.34244e-05
1.18213e-06
-4.0155e-06
-8.36378e-05
5.9413e-07
-4.22892e-06
-8.48009e-05
-1.00613e-06
-4.43578e-06
-8.72819e-05
-4.65281e-06
-4.64674e-06
-9.06263e-05
-1.23081e-05
-4.88254e-06
-2.7628e-05
-5.21616e-06
-9.17647e-05
-7.54169e-05
1.89073e-05
-6.45476e-08
-6.89897e-05
7.1107e-06
-5.22042e-07
-6.49828e-05
2.86077e-06
-8.70114e-07
-6.27264e-05
1.24029e-06
-1.18177e-06
-6.14233e-05
5.8695e-07
-1.46999e-06
-6.06345e-05
3.16128e-07
-1.74601e-06
-6.01061e-05
2.06626e-07
-2.01607e-06
-5.9685e-05
1.73665e-07
-2.28254e-06
-5.92763e-05
1.84763e-07
-2.5461e-06
-5.88176e-05
2.27183e-07
-2.80639e-06
-5.82686e-05
2.95159e-07
-3.06222e-06
-5.76115e-05
3.83912e-07
-3.31163e-06
-5.6862e-05
4.84977e-07
-3.55183e-06
-5.60948e-05
5.78981e-07
-3.77931e-06
-5.54899e-05
6.19739e-07
-3.98988e-06
-5.53853e-05
4.95519e-07
-4.18005e-06
-5.64073e-05
-7.71737e-08
-4.3525e-06
-5.97445e-05
-1.87367e-06
-4.50972e-06
-6.6516e-05
-6.86477e-06
-4.66367e-06
-2.07341e-05
-4.93207e-06
-7.33037e-05
-3.52196e-05
-2.81982e-07
-2.7999e-05
-7.27663e-07
-2.51376e-05
-9.60683e-07
-2.40451e-05
-1.19487e-06
-2.3545e-05
-1.43373e-06
-2.32748e-05
-1.67661e-06
-2.30974e-05
-1.92291e-06
-2.29456e-05
-2.17094e-06
-2.27809e-05
-2.41911e-06
-2.25758e-05
-2.66585e-06
-2.23072e-05
-2.9092e-06
-2.19555e-05
-3.14646e-06
-2.1508e-05
-3.37379e-06
-2.09676e-05
-3.58558e-06
-2.03762e-05
-3.77393e-06
-1.98762e-05
-3.92754e-06
-1.98764e-05
-4.03162e-06
-2.1834e-05
-4.07569e-06
-2.94454e-05
-4.01826e-06
-4.0415e-06
-4.37509e-05
-1.98058e-05
1.59021e-06
-1.14688e-12
-2.08648e-05
1.17291e-06
-9.59375e-13
-2.16064e-05
8.23457e-07
-7.96875e-13
-2.21074e-05
5.58033e-07
-6.70313e-13
-2.24413e-05
3.73022e-07
-5.7875e-13
-2.26696e-05
2.5552e-07
-5.0625e-13
-2.28403e-05
1.91002e-07
-4.32813e-13
-2.29903e-05
1.67115e-07
-3.51563e-13
-2.31479e-05
1.74515e-07
-2.76875e-13
-2.3335e-05
2.06014e-07
-2.2375e-13
-2.35675e-05
2.54845e-07
-1.86875e-13
-2.38533e-05
3.12484e-07
-1.54687e-13
-2.41889e-05
3.66253e-07
-1.17813e-13
-2.4553e-05
3.97032e-07
-7.5625e-14
-2.48998e-05
3.77697e-07
-3.53125e-14
-2.51512e-05
2.73436e-07
-4.375e-15
-2.51938e-05
4.58834e-08
2.3125e-14
-2.48843e-05
-3.36918e-07
5.725e-14
-2.40699e-05
-8.86896e-07
1.00313e-13
-1.57464e-06
1.375e-13
-2.26265e-05
-5.17148e-05
4.9685e-06
-1.25e-12
-5.43426e-05
3.66999e-06
-1.03125e-12
-5.62024e-05
2.58825e-06
-8.49063e-13
-5.74788e-05
1.76759e-06
-7.09063e-13
-5.83456e-05
1.19343e-06
-6.07812e-13
-5.89475e-05
8.2469e-07
-5.275e-13
-5.93975e-05
6.16116e-07
-4.51563e-13
-5.97812e-05
5.2897e-07
-3.67812e-13
-6.01619e-05
5.33114e-07
-2.84375e-13
-6.05856e-05
6.04387e-07
-2.175e-13
-6.10804e-05
7.19663e-07
-1.6625e-13
-6.16541e-05
8.50765e-07
-1.20937e-13
-6.22854e-05
9.58031e-07
-7.71875e-14
-6.29131e-05
9.84466e-07
-3.75e-14
-6.34222e-05
8.52248e-07
-8.75e-15
-6.36316e-05
4.64689e-07
9.39062e-15
-6.32922e-05
-2.8157e-07
2.4375e-14
-6.21016e-05
-1.46993e-06
4.5e-14
-5.97477e-05
-3.12204e-06
6.875e-14
-5.14587e-06
8.4375e-14
-5.59879e-05
-7.68122e-05
9.88784e-06
-1.28625e-12
-8.03563e-05
7.22645e-06
-1.06906e-12
-8.28119e-05
5.05065e-06
-8.89062e-13
-8.44681e-05
3.42645e-06
-7.50625e-13
-8.55772e-05
2.30335e-06
-6.44375e-13
-8.63378e-05
1.58582e-06
-5.50937e-13
-8.68984e-05
1.1771e-06
-4.57812e-13
-8.73662e-05
9.97394e-07
-3.53125e-13
-8.78178e-05
9.85725e-07
-2.43125e-13
-8.83053e-05
1.09364e-06
-1.55562e-13
-8.88581e-05
1.27536e-06
-1.00875e-13
-8.948e-05
1.47635e-06
-6.83125e-14
-9.01394e-05
1.62152e-06
-4.49062e-14
-9.07553e-05
1.60453e-06
-2.58437e-14
-9.11803e-05
1.28101e-06
-1.52188e-14
-9.11844e-05
4.71257e-07
-1.7e-14
-9.04469e-05
-1.01905e-06
-2.59375e-14
-8.85697e-05
-3.35147e-06
-3e-14
-8.51259e-05
-6.57509e-06
-2.21875e-14
-1.0524e-05
-6.5625e-15
-7.97666e-05
-9.53672e-05
1.53788e-05
-1.3125e-12
-9.91341e-05
1.09864e-05
-1.10156e-12
-0.000101606
7.51538e-06
-9.24375e-13
-0.000103191
5.00416e-06
-7.86562e-13
-0.000104205
3.312e-06
-6.80625e-13
-0.000104873
2.25064e-06
-5.725e-13
-0.00010535
1.65059e-06
-4.5875e-13
-0.000105736
1.38158e-06
-3.3625e-13
-0.0001061
1.34889e-06
-2.04125e-13
-0.000106487
1.48031e-06
-9.89375e-14
-0.000106921
1.70989e-06
-4.21563e-14
-0.000107405
1.96076e-06
-2.17187e-14
-0.000107911
2.12749e-06
-1.74375e-14
-0.000108366
2.0594e-06
-2.21875e-14
-0.000108634
1.54781e-06
-4.18187e-14
-0.000108489
3.24058e-07
-7.8625e-14
-0.000107593
-1.91836e-06
-1.1875e-13
-0.000105486
-5.46016e-06
-1.40938e-13
-0.000101622
-1.04369e-05
-1.32188e-13
-1.66576e-05
-1e-13
-9.54819e-05
-0.00010733
2.06728e-05
-1.31094e-12
-0.000110587
1.42227e-05
-1.10969e-12
-0.000112476
9.39006e-06
-9.27187e-13
-0.000113544
6.06018e-06
-7.775e-13
-0.000114147
3.90659e-06
-6.74687e-13
-0.000114499
2.59776e-06
-5.6375e-13
-0.000114724
1.87262e-06
-4.44062e-13
-0.000114893
1.54828e-06
-3.275e-13
-0.000115046
1.50121e-06
-1.97281e-13
-0.00011521
1.64324e-06
-7.89375e-14
-0.000115399
1.89809e-06
-5.53125e-15
-0.000115619
2.17889e-06
1.89375e-14
-0.000115859
2.36549e-06
5.8125e-15
-0.000116084
2.28119e-06
-3.8625e-14
-0.000116211
1.67034e-06
-1.10219e-13
-0.000116075
1.82898e-07
-1.91125e-13
-0.00011538
-2.61844e-06
-2.53281e-13
-0.000113648
-7.19587e-06
-2.71563e-13
-0.000110183
-1.389e-05
-2.42188e-13
-2.26324e-05
-1.84375e-13
-0.000104171
-0.000112393
2.49172e-05
-1.325e-12
-0.000114348
1.61533e-05
-1.15625e-12
-0.000115071
1.01015e-05
-9.72812e-13
-0.000115241
6.22134e-06
-7.89375e-13
-0.000115196
3.8581e-06
-6.86562e-13
-0.000115087
2.4879e-06
-5.8e-13
-0.000114969
1.75424e-06
-4.54813e-13
-0.000114854
1.43353e-06
-3.47031e-13
-0.00011474
1.38832e-06
-2.28e-13
-0.000114626
1.52881e-06
-1.02712e-13
-0.00011451
1.78293e-06
-1.27437e-14
-0.000114402
2.07104e-06
1.225e-14
-0.000114318
2.28078e-06
-3.12812e-14
-0.000114278
2.23882e-06
-1.27625e-13
-0.00011429
1.67731e-06
-2.41875e-13
-0.000114309
1.95402e-07
-3.3075e-13
-0.000114166
-2.77202e-06
-3.55062e-13
-0.000113449
-7.93222e-06
-3.0625e-13
-0.000111316
-1.60163e-05
-2.0625e-13
-2.74067e-05
-9.375e-14
-0.000106445
-0.000109883
2.69618e-05
-1.31562e-12
-0.000109681
1.58646e-05
-1.18437e-12
-0.000108745
9.13538e-06
-1.01875e-12
-0.000107794
5.25628e-06
-7.76875e-13
-0.000107027
3.08757e-06
-6.86562e-13
-0.000106449
1.9119e-06
-6.15219e-13
-0.000106007
1.31381e-06
-4.995e-13
-0.000105637
1.06449e-06
-3.88344e-13
-0.000105287
1.03844e-06
-2.67813e-13
-0.00010492
1.16227e-06
-1.3725e-13
-0.000104521
1.38283e-06
-4.47594e-14
-0.000104096
1.64373e-06
-3.80937e-14
-0.000103681
1.86295e-06
-1.24156e-13
-0.000103352
1.90507e-06
-2.61531e-13
-0.000103223
1.54125e-06
-3.82812e-13
-0.000103422
3.87018e-07
-4.21187e-13
-0.000104015
-2.18667e-06
-3.50719e-13
-0.000104832
-7.12934e-06
-2e-13
-0.000105017
-1.57672e-05
-2.1875e-14
-2.95932e-05
1.25e-13
-0.000102455
-9.84622e-05
2.52943e-05
-1.125e-12
-9.52838e-05
1.25407e-05
-9.375e-13
-9.25034e-05
6.31257e-06
-8.11875e-13
-9.05413e-05
3.27241e-06
-5.32187e-13
-8.92325e-05
1.77703e-06
-5.0925e-13
-8.83619e-05
1.04372e-06
-5.475e-13
-8.77456e-05
6.99078e-07
-5.03438e-13
-8.72488e-05
5.68018e-07
-4.06969e-13
-8.67788e-05
5.67586e-07
-2.80563e-13
-8.62747e-05
6.55924e-07
-1.48188e-13
-8.57022e-05
8.06847e-07
-6.9375e-14
-8.50578e-05
9.94353e-07
-9.41563e-14
-8.438e-05
1.17868e-06
-2.13438e-13
-8.37713e-05
1.2874e-06
-3.54906e-13
-8.3425e-05
1.18226e-06
-4.2875e-13
-8.36378e-05
5.94064e-07
-3.71937e-13
-8.47941e-05
-1.00776e-06
-2.07188e-13
-8.72609e-05
-4.6576e-06
-3.59375e-14
-9.06306e-05
-1.22921e-05
8.4375e-14
-2.75303e-05
1.5625e-13
-9.18038e-05
-7.54184e-05
1.88003e-05
-9.9375e-13
-6.89647e-05
7.07042e-06
-8.84375e-13
-6.49825e-05
2.84859e-06
-8.5625e-13
-6.27312e-05
1.23311e-06
-4.75e-13
-6.14258e-05
5.82398e-07
-3.9375e-13
-6.06358e-05
3.1346e-07
-4.61563e-13
-6.01067e-05
2.04946e-07
-4.69688e-13
-5.96851e-05
1.72425e-07
-3.90625e-13
-5.92762e-05
1.83654e-07
-2.6125e-13
-5.88173e-05
2.26011e-07
-1.37188e-13
-5.82683e-05
2.93802e-07
-8.6875e-14
-5.76115e-05
3.82324e-07
-1.45938e-13
-5.68626e-05
4.83226e-07
-2.76875e-13
-5.60965e-05
5.77363e-07
-3.875e-13
-5.54938e-05
6.18918e-07
-3.84688e-13
-5.53941e-05
4.96498e-07
-2.48031e-13
-5.64122e-05
-7.32197e-08
-9.6875e-14
-5.97152e-05
-1.864e-06
-7.8125e-14
-6.65041e-05
-6.82139e-06
-1.15625e-13
-2.05928e-05
-1.05879e-23
-7.33397e-05
-3.51833e-05
-8.75e-13
-2.79352e-05
-8e-13
-2.51222e-05
-8.02812e-13
-2.40427e-05
-4.84375e-13
-2.35433e-05
-3.62812e-13
-2.32739e-05
-3.84375e-13
-2.3097e-05
-3.89062e-13
-2.29455e-05
-3.23125e-13
-2.27809e-05
-2.1375e-13
-2.25759e-05
-1.2375e-13
-2.23074e-05
-1.14062e-13
-2.19557e-05
-1.95625e-13
-2.15081e-05
-3.075e-13
-2.09672e-05
-3.575e-13
-2.03756e-05
-2.80312e-13
-1.98766e-05
-1.275e-13
-1.98641e-05
-9.375e-14
-2.17533e-05
-2.375e-13
-2.93737e-05
-1.25e-14
4.375e-13
-4.3784e-05
-1.98058e-05
1.59021e-06
4.69266e-07
-2.08648e-05
1.17291e-06
6.8906e-07
-2.16064e-05
8.23457e-07
9.21678e-07
-2.21074e-05
5.58033e-07
1.16172e-06
-2.24413e-05
3.73022e-07
1.40561e-06
-2.26696e-05
2.5552e-07
1.65126e-06
-2.28402e-05
1.91001e-07
1.8977e-06
-2.29902e-05
1.67115e-07
2.14468e-06
-2.31479e-05
1.74515e-07
2.39256e-06
-2.3335e-05
2.06013e-07
2.6422e-06
-2.35675e-05
2.54845e-07
2.89498e-06
-2.38533e-05
3.12484e-07
3.15286e-06
-2.41889e-05
3.66253e-07
3.4183e-06
-2.4553e-05
3.97032e-07
3.69441e-06
-2.48998e-05
3.77697e-07
3.9844e-06
-2.51512e-05
2.73436e-07
4.29119e-06
-2.51938e-05
4.58834e-08
4.61649e-06
-2.48843e-05
-3.36918e-07
4.95954e-06
-2.40699e-05
-8.86896e-07
5.31538e-06
-1.57464e-06
5.67392e-06
-2.26265e-05
-5.17148e-05
4.9685e-06
5.78772e-07
-5.43426e-05
3.66999e-06
7.91647e-07
-5.62024e-05
2.58825e-06
1.02064e-06
-5.74788e-05
1.76759e-06
1.26098e-06
-5.83456e-05
1.19343e-06
1.50897e-06
-5.89475e-05
8.2469e-07