/*--------------------------------*- C++ -*----------------------------------*\
| =========                 |                                                 |
| \\      /  F ield         | OpenFOAM: The Open Source CFD Toolbox           |
|  \\    /   O peration     | Version:  2.4.0                                 |
|   \\  /    A nd           | Web:      www.OpenFOAM.org                      |
|    \\/     M anipulation  |                                                 |
\*---------------------------------------------------------------------------*/
FoamFile
{
    version     2.0;
    format      ascii;
    class       volScalarField;
    location    "0.0037";
    object      T;
}
// * * * * * * * * * * * * * * * * * * * * * * * * * * * * * * * * * * * * * //

dimensions      [0 0 0 1 0 0 0];

internalField   nonuniform List<scalar> 
4800
(
100.193
100.58
100.966
101.352
101.735
102.114
102.484
102.841
103.179
103.49
100.58
101.739
102.899
104.057
105.21
106.351
107.467
108.544
109.562
110.502
100.966
102.899
104.834
106.769
108.699
110.612
112.489
114.305
116.025
117.612
101.352
104.057
106.769
109.487
112.205
114.91
117.575
120.163
122.621
124.89
101.735
105.21
108.699
112.205
115.726
119.248
122.74
126.152
129.409
132.417
102.114
106.35
110.612
114.909
119.248
123.617
127.987
132.298
136.447
140.291
102.484
107.467
112.489
117.575
122.74
127.987
133.296
138.606
143.791
148.637
102.841
108.543
114.305
120.163
126.152
132.297
138.606
145.041
151.478
157.62
103.179
109.562
116.025
122.621
129.409
136.447
143.792
151.478
159.459
167.442
103.49
110.502
117.612
124.89
132.418
140.292
148.638
157.62
167.442
178.209
100.193
100.58
100.966
101.352
101.735
102.114
102.484
102.841
103.179
103.49
100.58
101.739
102.899
104.057
105.21
106.351
107.467
108.543
109.562
110.502
100.966
102.899
104.834
106.769
108.699
110.612
112.489
114.305
116.024
117.611
101.352
104.057
106.769
109.487
112.205
114.91
117.575
120.163
122.621
124.889
101.735
105.21
108.699
112.205
115.726
119.248
122.74
126.152
129.409
132.417
102.114
106.351
110.612
114.91
119.248
123.617
127.987
132.298
136.447
140.291
102.484
107.467
112.489
117.575
122.74
127.987
133.296
138.606
143.792
148.637
102.841
108.544
114.305
120.163
126.152
132.298
138.606
145.042
151.478
157.62
103.179
109.562
116.025
122.622
129.409
136.447
143.792
151.478
159.46
167.442
103.49
110.503
117.613
124.891
132.418
140.292
148.638
157.621
167.443
178.21
100.193
100.58
100.966
101.352
101.735
102.114
102.484
102.841
103.179
103.49
100.58
101.739
102.899
104.057
105.21
106.351
107.467
108.543
109.562
110.502
100.966
102.899
104.834
106.769
108.699
110.612
112.489
114.305
116.024
117.611
101.352
104.057
106.769
109.487
112.205
114.91
117.575
120.163
122.621
124.889
101.735
105.21
108.699
112.205
115.726
119.248
122.74
126.152
129.409
132.417
102.114
106.351
110.612
114.91
119.248
123.617
127.987
132.298
136.447
140.291
102.484
107.467
112.489
117.575
122.74
127.987
133.296
138.606
143.792
148.637
102.841
108.544
114.305
120.163
126.152
132.298
138.606
145.042
151.478
157.62
103.179
109.562
116.025
122.622
129.409
136.447
143.792
151.478
159.46
167.442
103.49
110.503
117.613
124.891
132.418
140.292
148.638
157.621
167.443
178.21
100.193
100.58
100.966
101.352
101.735
102.114
102.484
102.841
103.179
103.49
100.58
101.739
102.899
104.057
105.21
106.351
107.467
108.544
109.562
110.502
100.966
102.899
104.834
106.769
108.699
110.612
112.489
114.305
116.025
117.612
101.352
104.057
106.769
109.487
112.205
114.91
117.575
120.163
122.621
124.89
101.735
105.21
108.699
112.205
115.726
119.248
122.74
126.152
129.409
132.417
102.114
106.35
110.612
114.909
119.248
123.617
127.987
132.298
136.447
140.291
102.484
107.467
112.489
117.575
122.74
127.987
133.296
138.606
143.791
148.637
102.841
108.543
114.305
120.163
126.152
132.297
138.606
145.041
151.478
157.62
103.179
109.562
116.025
122.621
129.409
136.447
143.792
151.478
159.459
167.442
103.49
110.502
117.612
124.89
132.418
140.292
148.638
157.62
167.442
178.209
103.77
104.013
104.22
104.389
104.524
104.628
104.705
104.759
104.794
104.81
104.81
104.794
104.759
104.705
104.627
104.523
104.389
104.219
104.013
103.77
111.345
112.078
112.696
113.201
113.601
113.909
114.138
114.298
114.399
114.448
114.448
114.399
114.297
114.137
113.909
113.601
113.2
112.695
112.078
111.345
119.031
120.259
121.286
122.118
122.772
123.272
123.639
123.895
124.057
124.135
124.135
124.057
123.895
123.638
123.27
122.771
122.116
121.284
120.258
119.03
126.91
128.642
130.071
131.213
132.099
132.766
133.253
133.589
133.8
133.901
133.901
133.799
133.588
133.251
132.765
132.097
131.211
130.069
128.64
126.909
135.08
137.328
139.146
140.566
141.645
142.444
143.017
143.409
143.653
143.769
143.769
143.652
143.408
143.015
142.442
141.643
140.564
139.144
137.325
135.078
143.665
146.444
148.619
150.262
151.473
152.348
152.963
153.379
153.634
153.756
153.756
153.634
153.378
152.962
152.346
151.471
150.26
148.617
146.442
143.663
152.848
156.167
158.626
160.392
161.64
162.512
163.111
163.509
163.751
163.866
163.866
163.751
163.508
163.11
162.51
161.638
160.39
158.624
156.165
152.846
162.924
166.749
169.328
171.04
172.182
172.949
173.462
173.796
173.997
174.092
174.091
173.997
173.795
173.461
172.948
172.181
171.039
169.326
166.748
162.923
174.481
178.58
180.896
182.26
183.102
183.641
183.992
184.216
184.35
184.413
184.413
184.35
184.216
183.991
183.641
183.101
182.259
180.896
178.58
174.48
188.977
192.195
193.418
194.001
194.325
194.523
194.649
194.728
194.775
194.797
194.797
194.775
194.728
194.649
194.523
194.325
194.001
193.418
192.195
188.977
103.77
104.013
104.219
104.389
104.523
104.627
104.705
104.759
104.793
104.81
104.81
104.793
104.759
104.704
104.627
104.523
104.388
104.219
104.013
103.769
111.345
112.078
112.696
113.201
113.601
113.909
114.137
114.297
114.398
114.447
114.447
114.398
114.297
114.136
113.908
113.6
113.199
112.694
112.076
111.343
119.031
120.259
121.286
122.118
122.772
123.271
123.639
123.895
124.056
124.134
124.134
124.056
123.894
123.637
123.269
122.77
122.115
121.283
120.256
119.029
126.91
128.641
130.071
131.213
132.099
132.766
133.252
133.588
133.799
133.9
133.9
133.798
133.587
133.25
132.764
132.096
131.21
130.068
128.638
126.907
135.079
137.327
139.146
140.566
141.645
142.443
143.016
143.408
143.652
143.769
143.768
143.651
143.407
143.014
142.441
141.642
140.563
139.142
137.324
135.076
143.665
146.444
148.619
150.262
151.473
152.347
152.963
153.378
153.634
153.755
153.755
153.633
153.376
152.961
152.345
151.47
150.259
148.615
146.441
143.662
152.848
156.167
158.626
160.391
161.639
162.511
163.11
163.508
163.75
163.865
163.865
163.75
163.507
163.109
162.509
161.636
160.388
158.622
156.163
152.845
162.924
166.749
169.327
171.04
172.182
172.949
173.461
173.795
173.996
174.091
174.09
173.995
173.794
173.46
172.947
172.18
171.037
169.325
166.746
162.921
174.481
178.58
180.896
182.259
183.102
183.641
183.991
184.216
184.349
184.412
184.412
184.349
184.215
183.99
183.639
183.1
182.257
180.894
178.578
174.479
188.977
192.195
193.418
194
194.325
194.523
194.648
194.728
194.775
194.796
194.796
194.774
194.727
194.648
194.522
194.324
194
193.417
192.194
188.975
103.77
104.013
104.219
104.389
104.523
104.627
104.705
104.759
104.793
104.81
104.81
104.793
104.759
104.704
104.627
104.523
104.388
104.219
104.013
103.769
111.345
112.078
112.696
113.201
113.601
113.909
114.137
114.297
114.398
114.447
114.447
114.398
114.297
114.136
113.908
113.6
113.199
112.694
112.076
111.343
119.031
120.259
121.286
122.118
122.772
123.271
123.639
123.895
124.056
124.134
124.134
124.056
123.894
123.637
123.269
122.77
122.115
121.283
120.256
119.029
126.91
128.641
130.071
131.213
132.099
132.766
133.252
133.588
133.799
133.9
133.9
133.798
133.587
133.25
132.764
132.096
131.21
130.068
128.638
126.907
135.079
137.327
139.146
140.566
141.645
142.443
143.016
143.408
143.652
143.769
143.768
143.651
143.407
143.014
142.441
141.642
140.563
139.142
137.324
135.076
143.665
146.444
148.619
150.262
151.473
152.347
152.963
153.378
153.634
153.755
153.755
153.633
153.376
152.961
152.345
151.47
150.259
148.615
146.441
143.662
152.848
156.167
158.626
160.391
161.639
162.511
163.11
163.508
163.75
163.865
163.865
163.75
163.507
163.109
162.509
161.636
160.388
158.622
156.163
152.845
162.924
166.749
169.327
171.04
172.182
172.949
173.461
173.795
173.996
174.091
174.09
173.995
173.794
173.46
172.947
172.18
171.037
169.325
166.746
162.921
174.481
178.58
180.896
182.259
183.102
183.641
183.991
184.216
184.349
184.412
184.412
184.349
184.215
183.99
183.639
183.1
182.257
180.894
178.578
174.479
188.977
192.195
193.418
194
194.325
194.523
194.648
194.728
194.775
194.796
194.796
194.774
194.727
194.648
194.522
194.324
194
193.417
192.194
188.975
103.77
104.013
104.22
104.389
104.524
104.628
104.705
104.759
104.794
104.81
104.81
104.794
104.759
104.705
104.627
104.523
104.389
104.219
104.013
103.77
111.345
112.078
112.696
113.201
113.601
113.909
114.138
114.298
114.399
114.448
114.448
114.399
114.297
114.137
113.909
113.601
113.2
112.695
112.078
111.345
119.031
120.259
121.286
122.118
122.772
123.272
123.639
123.895
124.057
124.135
124.135
124.057
123.895
123.638
123.27
122.771
122.116
121.284
120.258
119.03
126.91
128.642
130.071
131.213
132.099
132.766
133.253
133.589
133.8
133.901
133.901
133.799
133.588
133.251
132.765
132.097
131.211
130.069
128.64
126.909
135.08
137.328
139.146
140.566
141.645
142.444
143.017
143.409
143.653
143.769
143.769
143.652
143.408
143.015
142.442
141.643
140.564
139.144
137.325
135.078
143.665
146.444
148.619
150.262
151.473
152.348
152.963
153.379
153.634
153.756
153.756
153.634
153.378
152.962
152.346
151.471
150.26
148.617
146.442
143.663
152.848
156.167
158.626
160.392
161.64
162.512
163.111
163.509
163.751
163.866
163.866
163.751
163.508
163.11
162.51
161.638
160.39
158.624
156.165
152.846
162.924
166.749
169.328
171.04
172.182
172.949
173.462
173.796
173.997
174.092
174.091
173.997
173.795
173.461
172.948
172.181
171.039
169.326
166.748
162.923
174.481
178.58
180.896
182.26
183.102
183.641
183.992
184.216
184.35
184.413
184.413
184.35
184.216
183.991
183.641
183.101
182.259
180.896
178.58
174.48
188.977
192.195
193.418
194.001
194.325
194.523
194.649
194.728
194.775
194.797
194.797
194.775
194.728
194.649
194.523
194.325
194.001
193.418
192.195
188.977
103.49
103.179
102.841
102.485
102.114
101.736
101.352
100.966
100.58
100.193
110.502
109.562
108.544
107.467
106.351
105.211
104.058
102.9
101.74
100.58
117.611
116.024
114.305
112.489
110.612
108.699
106.77
104.835
102.9
100.966
124.888
122.62
120.163
117.575
114.91
112.206
109.487
106.77
104.058
101.352
132.415
129.408
126.152
122.74
119.248
115.727
112.206
108.7
105.211
101.736
140.29
136.446
132.297
127.988
123.618
119.249
114.911
110.613
106.351
102.114
148.636
143.791
138.607
133.297
127.988
122.741
117.577
112.491
107.468
102.485
157.62
151.478
145.042
138.608
132.299
126.154
120.165
114.306
108.545
102.842
167.443
159.461
151.48
143.794
136.45
129.412
122.624
116.027
109.564
103.179
178.21
167.444
157.623
148.641
140.295
132.421
124.893
117.615
110.504
103.491
103.489
103.178
102.841
102.484
102.113
101.735
101.351
100.966
100.579
100.193
110.5
109.561
108.542
107.466
106.35
105.21
104.057
102.898
101.739
100.579
117.609
116.023
114.303
112.488
110.611
108.698
106.768
104.833
102.898
100.966
124.887
122.619
120.161
117.574
114.908
112.204
109.486
106.768
104.057
101.351
132.414
129.406
126.15
122.739
119.247
115.725
112.204
108.698
105.21
101.735
140.288
136.444
132.296
127.986
123.616
119.247
114.909
110.611
106.35
102.114
148.634
143.789
138.605
133.295
127.987
122.74
117.575
112.489
107.466
102.484
157.618
151.476
145.041
138.606
132.298
126.152
120.163
114.305
108.543
102.841
167.441
159.459
151.478
143.792
136.448
129.41
122.622
116.025
109.562
103.178
178.209
167.442
157.621
148.639
140.293
132.419
124.891
117.613
110.503
103.49
103.489
103.178
102.841
102.484
102.113
101.735
101.351
100.966
100.579
100.193
110.5
109.561
108.542
107.466
106.35
105.21
104.057
102.898
101.739
100.579
117.609
116.023
114.303
112.488
110.611
108.698
106.768
104.833
102.898
100.966
124.887
122.619
120.161
117.574
114.908
112.204
109.486
106.768
104.057
101.351
132.414
129.406
126.15
122.739
119.247
115.725
112.204
108.698
105.21
101.735
140.288
136.444
132.296
127.986
123.616
119.247
114.909
110.611
106.35
102.114
148.634
143.789
138.605
133.295
127.987
122.74
117.575
112.489
107.466
102.484
157.618
151.476
145.041
138.606
132.298
126.152
120.163
114.305
108.543
102.841
167.441
159.459
151.478
143.792
136.448
129.41
122.622
116.025
109.562
103.178
178.209
167.442
157.621
148.639
140.293
132.419
124.891
117.613
110.503
103.49
103.49
103.179
102.841
102.485
102.114
101.736
101.352
100.966
100.58
100.193
110.502
109.562
108.544
107.467
106.351
105.211
104.058
102.9
101.74
100.58
117.611
116.024
114.305
112.489
110.612
108.699
106.77
104.835
102.9
100.966
124.888
122.62
120.163
117.575
114.91
112.206
109.487
106.77
104.058
101.352
132.415
129.408
126.152
122.74
119.248
115.727
112.206
108.7
105.211
101.736
140.29
136.446
132.297
127.988
123.618
119.249
114.911
110.613
106.351
102.114
148.636
143.791
138.607
133.297
127.988
122.741
117.577
112.491
107.468
102.485
157.62
151.478
145.042
138.608
132.299
126.154
120.165
114.306
108.545
102.842
167.443
159.461
151.48
143.794
136.45
129.412
122.624
116.027
109.564
103.179
178.21
167.444
157.623
148.641
140.295
132.421
124.893
117.615
110.504
103.491
188.979
174.484
162.929
152.853
143.671
135.085
126.915
119.035
111.348
103.771
192.197
178.584
166.756
156.174
146.453
137.336
128.649
120.265
112.082
104.015
193.421
180.902
169.337
158.637
148.631
139.158
130.082
121.294
112.702
104.222
194.004
182.268
171.053
160.407
150.279
140.583
131.228
122.13
113.209
104.392
194.33
183.114
172.2
161.661
151.497
141.669
132.12
122.789
113.612
104.528
194.529
183.658
172.974
162.542
152.382
142.477
132.797
123.296
113.925
104.633
194.657
184.015
173.497
163.155
153.011
143.065
133.296
123.673
114.16
104.713
194.74
184.249
173.846
163.571
153.447
143.477
133.65
123.944
114.329
104.77
194.791
184.396
174.068
163.839
153.731
143.749
133.886
124.125
114.443
104.809
194.82
184.478
174.192
163.991
153.893
143.905
134.022
124.231
114.509
104.832
194.829
184.505
174.234
164.043
153.95
143.961
134.072
124.269
114.534
104.84
194.821
184.482
174.199
164.002
153.908
143.921
134.039
124.244
114.519
104.835
194.794
184.404
174.083
163.864
153.763
143.786
133.922
124.156
114.463
104.816
194.743
184.261
173.872
163.614
153.505
143.543
133.716
124
114.366
104.783
194.66
184.031
173.537
163.225
153.108
143.177
133.408
123.768
114.223
104.735
194.527
183.671
173.029
162.652
152.54
142.663
132.981
123.45
114.028
104.669
194.307
183.103
172.269
161.832
151.753
141.969
132.416
123.036
113.776
104.585
193.905
182.179
171.128
160.676
150.694
141.065
131.698
122.517
113.462
104.48
193.043
180.595
169.411
159.077
149.309
139.927
130.815
121.89
113.088
104.355
190.722
177.772
166.876
156.948
147.573
138.553
129.775
121.161
112.656
104.212
188.977
174.482
162.926
152.851
143.669
135.083
126.914
119.034
111.347
103.77
192.195
178.582
166.753
156.172
146.45
137.334
128.647
120.263
112.081
104.014
193.419
180.9
169.334
158.634
148.629
139.155
130.08
121.292
112.7
104.221
194.002
182.265
171.05
160.404
150.277
140.581
131.226
122.128
113.207
104.391
194.328
183.111
172.197
161.658
151.495
141.667
132.118
122.787
113.611
104.526
194.527
183.655
172.971
162.54
152.379
142.475
132.794
123.294
113.923
104.632
194.655
184.012
173.494
163.152
153.009
143.062
133.293
123.671
114.158
104.712
194.738
184.246
173.842
163.568
153.444
143.474
133.647
123.941
114.327
104.769
194.789
184.393
174.064
163.836
153.728
143.746
133.883
124.123
114.441
104.808
194.818
184.475
174.189
163.988
153.89
143.902
134.02
124.228
114.507
104.83
194.827
184.502
174.23
164.04
153.947
143.958
134.069
124.267
114.532
104.839
194.819
184.478
174.195
163.998
153.904
143.918
134.036
124.242
114.516
104.834
194.791
184.401
174.08
163.86
153.76
143.782
133.919
124.154
114.461
104.815
194.741
184.258
173.868
163.61
153.501
143.54
133.713
123.997
114.364
104.782
194.658
184.027
173.533
163.221
153.105
143.174
133.405
123.765
114.221
104.734
194.525
183.667
173.025
162.649
152.536
142.659
132.978
123.448
114.026
104.668
194.304
183.1
172.265
161.829
151.75
141.966
132.413
123.034
113.773
104.583
193.902
182.175
171.124
160.672
150.69
141.062
131.695
122.514
113.46
104.478
193.04
180.591
169.407
159.073
149.305
139.924
130.812
121.887
113.085
104.354
190.719
177.769
166.872
156.944
147.569
138.55
129.772
121.158
112.654
104.211
188.977
174.482
162.926
152.851
143.669
135.083
126.914
119.034
111.347
103.77
192.195
178.582
166.753
156.172
146.45
137.334
128.647
120.263
112.081
104.014
193.419
180.9
169.334
158.634
148.629
139.155
130.08
121.292
112.7
104.221
194.002
182.265
171.05
160.404
150.277
140.581
131.226
122.128
113.207
104.391
194.328
183.111
172.197
161.658
151.495
141.667
132.118
122.787
113.611
104.526
194.527
183.655
172.971
162.54
152.379
142.475
132.794
123.294
113.923
104.632
194.655
184.012
173.494
163.152
153.009
143.062
133.293
123.671
114.158
104.712
194.738
184.246
173.842
163.568
153.444
143.474
133.647
123.941
114.327
104.769
194.789
184.393
174.064
163.836
153.728
143.746
133.883
124.123
114.441
104.808
194.818
184.475
174.189
163.988
153.89
143.902
134.02
124.228
114.507
104.83
194.827
184.502
174.23
164.04
153.947
143.958
134.069
124.267
114.532
104.839
194.819
184.478
174.195
163.998
153.904
143.918
134.036
124.242
114.516
104.834
194.791
184.401
174.08
163.86
153.76
143.782
133.919
124.154
114.461
104.815
194.741
184.258
173.868
163.61
153.501
143.54
133.713
123.997
114.364
104.782
194.658
184.027
173.533
163.221
153.105
143.174
133.405
123.765
114.221
104.734
194.525
183.667
173.025
162.649
152.536
142.659
132.978
123.448
114.026
104.668
194.304
183.1
172.265
161.829
151.75
141.966
132.413
123.034
113.773
104.583
193.902
182.175
171.124
160.672
150.69
141.062
131.695
122.514
113.46
104.478
193.04
180.591
169.407
159.073
149.305
139.924
130.812
121.887
113.085
104.354
190.719
177.769
166.872
156.944
147.569
138.55
129.772
121.158
112.654
104.211
188.979
174.484
162.929
152.853
143.671
135.085
126.915
119.035
111.348
103.771
192.197
178.584
166.756
156.174
146.453
137.336
128.649
120.265
112.082
104.015
193.421
180.902
169.337
158.637
148.631
139.158
130.082
121.294
112.702
104.222
194.004
182.268
171.053
160.407
150.279
140.583
131.228
122.13
113.209
104.392
194.33
183.114
172.2
161.661
151.497
141.669
132.12
122.789
113.612
104.528
194.529
183.658
172.974
162.542
152.382
142.477
132.797
123.296
113.925
104.633
194.657
184.015
173.497
163.155
153.011
143.065
133.296
123.673
114.16
104.713
194.74
184.249
173.846
163.571
153.447
143.477
133.65
123.944
114.329
104.77
194.791
184.396
174.068
163.839
153.731
143.749
133.886
124.125
114.443
104.809
194.82
184.478
174.192
163.991
153.893
143.905
134.022
124.231
114.509
104.832
194.829
184.505
174.234
164.043
153.95
143.961
134.072
124.269
114.534
104.84
194.821
184.482
174.199
164.002
153.908
143.921
134.039
124.244
114.519
104.835
194.794
184.404
174.083
163.864
153.763
143.786
133.922
124.156
114.463
104.816
194.743
184.261
173.872
163.614
153.505
143.543
133.716
124
114.366
104.783
194.66
184.031
173.537
163.225
153.108
143.177
133.408
123.768
114.223
104.735
194.527
183.671
173.029
162.652
152.54
142.663
132.981
123.45
114.028
104.669
194.307
183.103
172.269
161.832
151.753
141.969
132.416
123.036
113.776
104.585
193.905
182.179
171.128
160.676
150.694
141.065
131.698
122.517
113.462
104.48
193.043
180.595
169.411
159.077
149.309
139.927
130.815
121.89
113.088
104.355
190.722
177.773
166.876
156.948
147.573
138.553
129.775
121.161
112.656
104.212
182.808
172.931
163.417
154.313
145.529
136.98
128.604
120.351
112.179
104.055
175.624
167.781
159.61
151.42
143.306
135.287
127.354
119.49
111.675
103.888
169.665
163.039
155.901
148.526
141.06
133.57
126.085
118.616
111.163
103.72
164.776
158.911
152.525
145.818
138.922
131.919
124.86
117.771
110.667
103.557
160.784
155.428
149.59
143.406
136.986
130.409
123.731
116.988
110.207
103.405
157.573
152.573
147.135
141.353
135.316
129.094
122.741
116.299
109.801
103.271
155.067
150.321
145.173
139.693
133.951
128.01
121.92
115.725
109.462
103.159
153.219
148.651
143.705
138.441
132.914
127.181
121.29
115.284
109.2
103.073
152.001
147.545
142.73
137.604
132.219
126.624
120.865
114.986
109.022
103.014
151.397
146.996
142.244
137.186
131.87
126.343
120.652
114.836
108.934
102.989
182.804
172.927
163.414
154.31
145.525
136.977
128.601
120.348
112.177
104.053
175.621
167.778
159.606
151.416
143.303
135.284
127.351
119.487
111.672
103.887
169.662
163.036
155.897
148.523
141.057
133.566
126.082
118.613
111.16
103.718
164.773
158.908
152.522
145.815
138.918
131.916
124.856
117.767
110.664
103.555
160.782
155.426
149.587
143.403
136.983
130.406
123.727
116.985
110.204
103.403
157.57
152.571
147.132
141.351
135.313
129.09
122.737
116.295
109.797
103.269
155.064
150.319
145.17
139.69
133.948
128.006
121.916
115.721
109.458
103.156
153.217
148.648
143.703
138.438
132.911
127.178
121.286
115.279
109.195
103.069
151.999
147.543
142.727
137.601
132.215
126.62
120.861
114.981
109.016
103.009
151.394
146.993
142.241
137.183
131.866
126.339
120.647
114.83
108.927
102.983
182.804
172.927
163.414
154.31
145.525
136.977
128.601
120.348
112.177
104.053
175.621
167.778
159.606
151.416
143.303
135.284
127.351
119.487
111.672
103.887
169.662
163.036
155.897
148.523
141.057
133.566
126.082
118.613
111.16
103.718
164.773
158.908
152.522
145.815
138.918
131.916
124.856
117.767
110.664
103.555
160.782
155.426
149.587
143.403
136.983
130.406
123.727
116.985
110.204
103.403
157.57
152.571
147.132
141.351
135.313
129.09
122.737
116.295
109.798
103.269
155.064
150.319
145.17
139.69
133.948
128.006
121.916
115.721
109.458
103.156
153.217
148.648
143.703
138.438
132.911
127.178
121.286
115.279
109.195
103.069
151.999
147.543
142.728
137.601
132.215
126.62
120.861
114.98
109.016
103.009
151.394
146.993
142.241
137.183
131.866
126.339
120.647
114.83
108.927
102.983
182.808
172.931
163.417
154.313
145.529
136.98
128.604
120.351
112.179
104.055
175.624
167.781
159.61
151.42
143.306
135.287
127.354
119.49
111.675
103.888
169.665
163.039
155.901
148.526
141.06
133.57
126.085
118.616
111.163
103.72
164.776
158.911
152.525
145.818
138.922
131.919
124.86
117.771
110.667
103.557
160.784
155.428
149.59
143.406
136.986
130.409
123.731
116.988
110.207
103.405
157.573
152.574
147.135
141.354
135.316
129.094
122.741
116.299
109.801
103.271
155.067
150.321
145.173
139.693
133.951
128.01
121.92
115.726
109.462
103.159
153.219
148.651
143.706
138.441
132.915
127.181
121.29
115.284
109.2
103.073
152.001
147.545
142.73
137.604
132.219
126.624
120.865
114.986
109.022
103.014
151.397
146.996
142.244
137.186
131.87
126.343
120.651
114.836
108.934
102.989
191.997
194.888
196.087
196.722
197.117
197.383
197.566
197.691
197.769
197.807
197.807
197.77
197.692
197.568
197.384
197.119
196.724
196.089
194.889
191.997
182.315
186.382
188.848
190.43
191.502
192.253
192.781
193.144
193.371
193.481
193.482
193.373
193.146
192.784
192.256
191.506
190.434
188.851
186.384
182.315
175.321
179.539
182.556
184.714
186.275
187.411
188.23
188.8
189.16
189.335
189.336
189.162
188.803
188.235
187.417
186.281
184.72
182.561
179.543
175.323
169.865
174
177.226
179.7
181.58
182.996
184.04
184.776
185.246
185.476
185.477
185.249
184.781
184.047
183.004
181.589
179.709
177.235
174.008
169.872
165.5
169.504
172.787
175.421
177.496
179.102
180.309
181.172
181.728
182.001
182.002
181.732
181.179
180.319
179.114
177.51
175.435
172.802
169.519
165.514
162.018
165.894
169.17
171.875
174.063
175.791
177.111
178.064
178.684
178.989
178.991
178.689
178.074
177.124
175.807
174.082
171.896
169.192
165.918
162.041
159.31
163.078
166.322
169.053
171.302
173.105
174.498
175.514
176.178
176.506
176.509
176.185
175.526
174.515
173.126
171.327
169.082
166.353
163.111
159.344
157.316
161
164.209
166.944
169.223
171.069
172.508
173.564
174.258
174.603
174.606
174.267
173.579
172.529
171.096
169.255
166.98
164.249
161.043
157.361
156.001
159.628
162.809
165.541
167.834
169.703
171.168
172.248
172.959
173.314
173.317
172.97
172.266
171.192
169.734
167.871
165.584
162.857
159.68
156.056
155.348
158.946
162.112
164.841
167.138
169.017
170.494
171.585
172.305
172.664
172.667
172.316
171.604
170.52
169.051
167.179
164.887
162.164
159.003
155.409
191.999
194.89
196.089
196.724
197.118
197.383
197.567
197.692
197.769
197.807
197.807
197.769
197.692
197.567
197.383
197.117
196.723
196.087
194.888
191.995
182.318
186.385
188.85
190.433
191.504
192.254
192.782
193.144
193.372
193.481
193.482
193.372
193.145
192.783
192.255
191.504
190.432
188.849
186.381
182.312
175.324
179.542
182.559
184.716
186.277
187.413
188.232
188.8
189.16
189.335
189.335
189.161
188.802
188.234
187.415
186.279
184.718
182.559
179.541
175.32
169.868
174.003
177.228
179.702
181.582
182.998
184.042
184.777
185.247
185.476
185.477
185.249
184.78
184.046
183.003
181.588
179.707
177.233
174.006
169.869
165.503
169.507
172.79
175.423
177.498
179.104
180.311
181.173
181.728
182.001
182.002
181.731
181.178
180.318
179.112
177.508
175.433
172.8
169.516
165.511
162.021
165.897
169.172
171.878
174.065
175.793
177.112
178.065
178.684
178.989
178.991
178.689
178.073
177.122
175.806
174.08
171.894
169.19
165.916
162.039
159.313
163.081
166.324
169.055
171.304
173.106
174.499
175.514
176.178
176.506
176.508
176.184
175.525
174.513
173.124
171.325
169.08
166.351
163.109
159.342
157.319
161.003
164.211
166.946
169.225
171.071
172.509
173.565
174.258
174.603
174.605
174.266
173.579
172.528
171.094
169.253
166.979
164.247
161.041
157.359
156.004
159.631
162.811
165.543
167.836
169.705
171.169
172.249
172.96
173.314
173.317
172.969
172.265
171.191
169.733
167.869
165.582
162.855
159.678
156.054
155.351
158.948
162.114
164.843
167.14
169.019
170.495
171.586
172.305
172.663
172.667
172.315
171.603
170.519
169.05
167.177
164.886
162.162
159.001
155.406
191.999
194.89
196.089
196.724
197.118
197.383
197.567
197.692
197.769
197.807
197.807
197.769
197.692
197.567
197.383
197.117
196.723
196.087
194.888
191.995
182.318
186.385
188.85
190.433
191.504
192.254
192.782
193.144
193.372
193.481
193.482
193.372
193.145
192.783
192.255
191.504
190.432
188.849
186.381
182.312
175.324
179.542
182.559
184.716
186.277
187.413
188.232
188.8
189.16
189.335
189.335
189.161
188.802
188.234
187.415
186.279
184.718
182.559
179.541
175.32
169.868
174.003
177.228
179.702
181.582
182.998
184.042
184.777
185.247
185.476
185.477
185.249
184.78
184.046
183.003
181.588
179.707
177.233
174.006
169.869
165.503
169.507
172.79
175.423
177.498
179.104
180.311
181.173
181.728
182.001
182.002
181.731
181.178
180.318
179.112
177.508
175.433
172.8
169.516
165.511
162.021
165.897
169.172
171.878
174.065
175.793
177.112
178.065
178.684
178.989
178.991
178.689
178.073
177.122
175.806
174.08
171.894
169.19
165.916
162.039
159.313
163.081
166.324
169.055
171.304
173.106
174.499
175.514
176.178
176.506
176.509
176.184
175.525
174.513
173.124
171.325
169.08
166.351
163.109
159.342
157.319
161.003
164.211
166.946
169.225
171.071
172.509
173.565
174.258
174.603
174.605
174.266
173.579
172.528
171.094
169.253
166.979
164.247
161.041
157.359
156.004
159.631
162.811
165.543
167.836
169.705
171.169
172.249
172.96
173.314
173.317
172.969
172.265
171.191
169.733
167.869
165.582
162.855
159.678
156.054
155.351
158.948
162.114
164.843
167.14
169.019
170.495
171.586
172.305
172.663
172.667
172.315
171.603
170.519
169.05
167.177
164.886
162.162
159.001
155.406
191.997
194.888
196.087
196.722
197.117
197.383
197.566
197.691
197.769
197.807
197.807
197.77
197.692
197.568
197.384
197.119
196.724
196.089
194.889
191.997
182.315
186.382
188.848
190.43
191.502
192.253
192.781
193.144
193.371
193.481
193.482
193.373
193.146
192.784
192.256
191.506
190.434
188.851
186.384
182.315
175.321
179.539
182.556
184.714
186.275
187.411
188.23
188.8
189.16
189.335
189.336
189.162
188.803
188.235
187.417
186.281
184.72
182.561
179.543
175.323
169.865
174
177.226
179.7
181.58
182.996
184.04
184.776
185.246
185.476
185.477
185.249
184.781
184.047
183.004
181.589
179.709
177.235
174.008
169.872
165.5
169.504
172.787
175.421
177.496
179.102
180.309
181.172
181.728
182.001
182.002
181.732
181.179
180.319
179.114
177.51
175.435
172.802
169.519
165.514
162.018
165.894
169.17
171.875
174.063
175.791
177.111
178.065
178.684
178.989
178.991
178.689
178.074
177.124
175.807
174.082
171.896
169.193
165.918
162.041
159.31
163.078
166.322
169.053
171.302
173.105
174.498
175.514
176.178
176.506
176.509
176.185
175.526
174.515
173.126
171.327
169.082
166.353
163.111
159.345
157.316
161
164.209
166.944
169.223
171.069
172.508
173.564
174.258
174.603
174.606
174.267
173.579
172.529
171.096
169.255
166.98
164.249
161.043
157.362
156.001
159.628
162.809
165.541
167.834
169.703
171.168
172.248
172.959
173.314
173.317
172.97
172.266
171.192
169.734
167.871
165.584
162.857
159.68
156.056
155.348
158.946
162.112
164.841
167.138
169.017
170.494
171.585
172.305
172.663
172.667
172.316
171.604
170.52
169.051
167.179
164.887
162.164
159.003
155.409
104.056
112.183
120.358
128.615
136.993
145.542
154.326
163.428
172.938
182.811
103.889
111.678
119.496
127.364
135.299
143.319
151.432
159.62
167.789
175.627
103.72
111.166
118.622
126.093
133.58
141.07
148.535
155.907
163.043
169.666
103.556
110.668
117.774
124.865
131.925
138.926
145.821
152.526
158.909
164.771
103.404
110.206
116.988
123.731
130.408
136.983
143.401
149.582
155.418
160.772
103.269
109.797
116.294
122.734
129.084
135.304
141.338
147.116
152.552
157.55
103.155
109.455
115.715
121.905
127.99
133.927
139.665
145.142
150.288
155.032
103.067
109.189
115.266
121.265
127.15
132.877
138.399
143.661
148.605
153.173
103.007
109.009
114.959
120.83
126.58
132.17
137.551
142.674
147.488
151.945
102.973
108.917
114.804
120.61
126.293
131.814
137.125
142.181
146.932
151.334
104.057
112.185