/*--------------------------------*- C++ -*----------------------------------*\
| =========                 |                                                 |
| \\      /  F ield         | OpenFOAM: The Open Source CFD Toolbox           |
|  \\    /   O peration     | Version:  2.4.0                                 |
|   \\  /    A nd           | Web:      www.OpenFOAM.org                      |
|    \\/     M anipulation  |                                                 |
\*---------------------------------------------------------------------------*/
FoamFile
{
    version     2.0;
    format      ascii;
    class       volScalarField;
    location    "0.115";
    object      T;
}
// * * * * * * * * * * * * * * * * * * * * * * * * * * * * * * * * * * * * * //

dimensions      [0 0 0 1 0 0 0];

internalField   nonuniform List<scalar> 
1600
(
98.8877
96.6773
94.5099
92.414
90.4174
88.5478
86.8319
85.2955
83.9636
82.8598
82.0063
81.4239
81.1319
81.1474
81.4861
82.1613
83.1843
84.5644
86.3085
88.4212
90.905
93.76
96.9841
100.573
104.52
108.817
113.452
118.414
123.688
129.258
135.104
141.207
147.545
154.096
160.833
167.731
174.761
181.897
189.108
196.364
98.8881
96.6786
94.5122
92.4171
90.4215
88.5527
86.8377
85.3023
83.9713
82.8684
82.0159
81.4347
81.1437
81.1605
81.5004
82.1768
83.2011
84.5824
86.3277
88.4415
90.9263
93.7821
97.0068
100.596
104.543
108.84
113.475
118.436
123.709
129.277
135.122
141.223
147.56
154.108
160.844
167.739
174.769
181.902
189.111
196.365
98.889
96.6813
94.5167
92.4234
90.4295
88.5626
86.8493
85.3157
83.9866
82.8857
82.0352
81.456
81.1673
81.1863
81.5285
82.2073
83.234
84.6177
86.3653
88.4813
90.9681
93.8256
97.0516
100.642
104.589
108.886
113.52
118.48
123.751
129.317
135.159
141.257
147.59
154.134
160.866
167.757
174.782
181.912
189.117
196.367
98.8904
96.6854
94.5236
92.433
90.4419
88.5776
86.8671
85.3363
84.01
82.9119
82.0644
81.4883
81.2027
81.225
81.5706
82.2528
83.2829
84.67
86.4208
88.5399
91.0294
93.8893
97.1172
100.709
104.657
108.953
113.587
118.545
123.814
129.376
135.213
141.307
147.635
154.174
160.899
167.785
174.804
181.927
189.126
196.37
98.8923
96.6911
94.533
92.4462
90.4588
88.5983
86.8915
85.3643
84.0418
82.9476
82.1041
81.5319
81.2504
81.2769
81.6267
82.3132
83.3476
84.7389
86.4938
88.6168
91.1098
93.9728
97.2032
100.796
104.746
109.042
113.674
118.631
123.896
129.454
135.286
141.374
147.695
154.226
160.944
167.822
174.832
181.948
189.138
196.374
98.8948
96.6984
94.5452
92.4632
90.4805
88.6247
86.9227
85.4003
84.0825
82.993
82.1543
81.5871
81.3105
81.342
81.6969
82.3884
83.4279
84.8242
86.5839
88.7114
91.2086
94.0752
97.3086
100.904
104.854
109.151
113.782
118.736
123.998
129.55
135.377
141.457
147.769
154.292
161
167.868
174.868
181.973
189.153
196.38
98.8978
96.7074
94.5602
92.4842
90.5074
88.6574
86.9611
85.4445
84.1324
83.0487
82.2156
81.6541
81.3833
81.4206
81.7812
82.4786
83.5238
84.9257
86.6908
88.8234
91.3253
94.196
97.4327
101.031
104.982
109.279
113.909
118.86
124.118
129.665
135.484
141.555
147.858
154.37
161.067
167.923
174.911
182.004
189.172
196.386
98.9015
96.7184
94.5784
92.5096
90.5399
88.6969
87.0074
85.4976
84.1922
83.1151
82.2886
81.7337
81.4694
81.5131
81.8801
82.5839
83.6353
85.0432
86.8142
88.9522
91.4591
94.3342
97.5746
101.175
105.128
109.425
114.055
119.003
124.256
129.796
135.607
141.669
147.961
154.461
161.144
167.986
174.961
182.039
189.193
196.393
98.9058
96.7314
94.6001
92.5397
90.5783
88.7436
87.0622
85.5602
84.2626
83.193
82.374
81.8263
81.5692
81.62
81.994
82.7044
83.7625
85.1768
86.9538
89.0974
91.6095
94.4891
97.7332
101.336
105.291
109.589
114.217
119.162
124.41
129.944
135.746
141.797
148.077
154.563
161.232
168.058
175.017
182.079
189.217
196.401
98.9109
96.7466
94.6254
92.575
90.6234
88.7981
87.1261
85.6331
84.3443
83.2833
82.4726
81.9329
81.6836
81.7419
82.1232
82.8407
83.9055
85.3262
87.1093
89.2585
91.7756
94.6595
97.9072
101.513
105.47
109.767
114.394
119.336
124.579
130.106
135.899
141.939
148.205
154.676
161.329
168.139
175.08
182.124
189.244
196.41
98.9169
96.7643
94.6549
92.6159
90.6756
88.8613
87.1999
85.7172
84.4383
83.3869
82.5853
82.0544
81.8134
81.8797
82.2686
82.9933
84.0648
85.4918
87.2806
89.4351
91.9568
94.8447
98.0955
101.704
105.661
109.959
114.584
119.523
124.761
130.28
136.064
142.092
148.345
154.8
161.436
168.227
175.148
182.173
189.274
196.419
98.9237
96.7848
94.6888
92.6631
90.7357
88.9339
87.2846
85.8136
84.5458
83.5049
82.7133
82.1919
81.9598
82.0344
82.431
83.1628
84.2408
85.6738
87.4678
89.627
92.1525
95.0436
98.2969
101.907
105.865
110.162
114.785
119.721
124.953
130.466
136.24
142.257
148.495
154.934
161.551
168.322
175.223
182.227
189.306
196.43
98.9315
96.8082
94.7276
92.7171
90.8043
89.0168
87.3812
85.9232
84.6678
83.6386
82.8579
82.3467
82.124
82.2071
82.6115
83.3503
84.4345
85.8728
87.6714
89.8342
92.3628
95.256
98.5106
102.121
106.079
110.374
114.995
119.927
125.154
130.66
136.425
142.429
148.653
155.075
161.673
168.424
175.303
182.284
189.34
196.441
98.9405
96.8349
94.7719
92.7785
90.8825
89.1111
87.4909
86.0475
84.8059
83.7895
83.0207
82.5204
82.3075
82.3995
82.8117
83.5572
84.647
86.0899
87.8922
90.0577
92.588
95.4821
98.7367
102.346
106.303
110.596
115.213
120.141
125.363
130.861
136.616
142.609
148.819
155.224
161.803
168.532
175.388
182.345
189.377
196.454
98.9506
96.8652
94.8221
92.8482
90.9711
89.2179
87.615
86.1879
84.9616
83.9593
83.2035
82.7148
82.5123
82.6134
83.0333
83.7852
84.8801
86.3269
88.1317
90.2987
92.8293
95.7228
98.976
102.583
106.537
110.826
115.439
120.361
125.577
131.067
136.813
142.795
148.991
155.379
161.938
168.645
175.477
182.409
189.416
196.466
98.9621
96.8995
94.879
92.9271
91.0713
89.3385
87.7549
86.3461
85.1367
84.15
83.4082
82.932
82.7405
82.8509
83.2785
84.0365
85.136
86.5857
88.3922
90.5593
93.0889
95.9803
99.2303
102.834
106.782
111.066
115.673
120.589
125.797
131.279
137.015
142.985
149.167
155.539
162.079
168.764
175.571
182.477
189.457
196.48
98.975
96.9383
94.9431
93.016
91.1842
89.4743
87.9124
86.5239
85.3332
84.3636
83.6372
83.1745
82.9946
83.1147
83.5501
84.3139
85.4174
86.8694
88.6763
90.8425
93.3696
96.2573
99.5025
103.1
107.042
111.319
115.918
120.826
126.024
131.497
137.222
143.18
149.348
155.704
162.224
168.887
175.669
182.548
189.5
196.494
98.9896
96.9819
95.0153
93.1161
91.3111
89.6269
88.0892
86.7233
85.5534
84.6026
83.893
83.4449
83.2774
83.4077
83.851
84.6206
85.7276
87.1811
88.9877
91.1517
93.6751
96.5575
99.7963
103.386
107.32
111.587
116.177
121.074
126.262
131.723
137.437
143.381
149.535
155.874
162.375
169.015
175.772
182.623
189.545
196.509
99.006
97.0309
95.0964
93.2285
91.4536
89.7981
88.2875
86.9467
85.7998
84.8698
84.1785
83.7463
83.5921
83.7331
84.1846
84.96
86.0703
87.5248
89.3302
91.491
94.0094
96.8852
100.116
103.697
107.62
111.876
116.454
121.339
126.514
131.962
137.661
143.591
149.728
156.05
162.531
169.148
175.879
182.701
189.592
196.525
99.0244
97.086
95.1874
93.3545
91.6134
89.9899
88.5094
87.1965
86.0751
85.168
84.4969
84.082
83.9423
84.0948
84.555
85.3361
86.4497
87.9047
89.7083
91.865
94.3774
97.2453
100.466
104.036
107.947
112.191
116.755
121.625
126.785
132.217
137.9
143.813
149.932
156.234
162.694
169.288
175.992
182.784
189.643
196.541
99.045
97.1476
95.2894
93.4957
91.7922
90.2045
88.7576
87.4757
86.3825
85.5007
84.8517
84.4558
84.3318
84.4967
84.9661
85.7534
86.8701
88.3255
90.1267
92.2787
94.7839
97.6428
100.853
104.41
108.308
112.536
117.084
121.937
127.08
132.493
138.158
144.051
150.15
156.43
162.867
169.435
176.111
182.871
189.697
196.559
99.0681
97.2167
95.4036
93.6537
91.9923
90.4445
89.0348
87.7873
86.7254
85.8715
85.2469
84.8717
84.7649
84.9434
85.4228
86.2166
87.3366
88.7921
90.5906
92.7371
95.2346
98.0833
101.281
104.825
108.707
112.918
117.448
122.282
127.404
132.797
138.44
144.311
150.386
156.642
163.052
169.593
176.238
182.966
189.755
196.578
99.0939
97.2941
95.5314
93.8304
92.216
90.7125
89.3443
88.135
87.1076
86.2844
85.6866
85.3343
85.2462
85.4395
85.9298
86.7307
87.8542
89.3099
91.1054
93.246
95.7348
98.5725
101.757
105.285
109.15
113.343
117.852
122.665
127.764
133.133
138.752
144.597
150.646
156.874
163.255
169.764
176.376
183.068
189.817
196.599
99.1229
97.3806
95.6744
94.0281
92.466
91.012
89.6897
88.5226
87.5334
86.744
86.1757
85.8484
85.7808
85.9903
86.4924
87.3012
88.4285
89.8845
91.6768
93.8111
96.2906
99.1164
102.287
105.798
109.644
113.817
118.304
123.092
128.167
133.509
139.1
144.916
150.935
157.131
163.478
169.953
176.528
183.179
189.887
196.622
99.1553
97.4776
95.8345
94.2494
92.7455
91.3464
90.0751
88.9546
88.0074
87.2553
86.7193
86.4193
86.3742
86.6012
87.1164
87.9337
89.0654
90.5218
92.3108
94.4383
96.9081
99.7211
102.876
106.37
110.196
114.346
118.809
123.571
128.618
133.931
139.49
145.274
151.258
157.418
163.728
170.163
176.696
183.303
189.963
196.647
99.1917
97.5863
96.0139
94.497
93.0582
91.72
90.5051
89.4361
88.5351
87.8238
87.323
87.0528
87.0321
87.2784
87.8077
88.6344
89.771
91.2279
93.0136
95.1342
97.5935
100.393
103.532
107.006
110.811
114.937
119.374
124.108
129.124
134.405
139.93
145.677
151.622
157.742
164.009
170.399
176.884
183.441
190.049
196.676
99.2326
97.7084
96.2152
94.7747
93.4082
92.1376
90.9851
89.9727
89.1223
88.4554
87.993
87.7552
87.7609
88.028
88.5726
89.4095
90.5515
92.0093
93.7916
95.905
98.3535
101.139
104.26
107.715
111.497
115.597
120.006
124.71
129.693
134.938
140.425
146.132
152.034
158.108
164.327
170.665
177.097
183.597
190.145
196.708
99.2787
97.8457
96.4416
95.0864
93.8005
92.605
91.5212
90.5708
89.7757
89.1571
88.7362
88.5332
88.5674
88.8567
89.4179
90.2658
91.4136
92.8725
94.6515
96.7574
99.1947
101.965
105.069
108.502
112.26
116.334
120.713
125.384
130.332
135.539
140.984
146.646
152.501
158.524
164.688
170.968
177.338
183.774
190.255
196.744
99.3307
98.0007
96.6967
95.4372
94.2411
93.1286
92.1204
91.2379
90.5026
89.9362
89.5598
89.3941
89.4585
89.7716
90.3503
91.2099
92.3641
93.8243
95.6
97.6984
100.124
102.88
105.964
109.376
113.108
117.154
121.502
126.138
131.049
136.214
141.614
147.228
153.03
158.996
165.099
171.314
177.614
183.976
190.379
196.786
99.3897
98.1764
96.9854
95.8332
94.7372
93.7165
92.7911
91.9822
91.3116
90.801
90.472
90.3456
90.442
90.7799
91.377
92.2489
93.4098
94.8715
96.6439
98.7345
101.148
103.888
106.954
110.342
114.049
118.065
122.38
126.981
131.851
136.973
142.325
147.885
153.63
159.533
165.568
171.709
177.93
184.208
190.522
196.834
99.457
98.3764
97.3136
96.282
95.2975
94.3778
93.5427
92.8134
92.2119
91.7604
91.4813
91.3961
91.5256
91.8893
92.5053
93.3899
94.5576
96.0209
97.79
99.8728
102.275
104.998
108.044
111.41
115.089
119.075
123.357
127.919
132.748
137.823
143.125
148.629
154.311
160.145
166.104
172.162
178.293
184.475
190.686
196.889
99.5343
98.6059
97.6888
96.7932
95.9327
95.124
94.3867
93.7425
93.214
92.8245
92.597
92.5542
92.7175
93.1074
93.7425
94.6398
95.8144
97.2792
99.0449
101.12
103.509
106.217
109.243
112.585
116.237
120.192
124.439
128.963
133.749
138.776
144.024
149.468
155.083
160.842
166.718
172.683
178.713
184.785
190.875
196.953
99.624
98.8714
98.1214
97.3792
96.6563
95.9686
95.3364
94.782
94.3297
94.0039
93.8291
93.8289
94.0262
94.442
95.0959
96.0056
97.1868
98.6529
100.415
102.482
104.859
107.55
110.557
113.875
117.5
121.424
125.636
130.121
134.863
139.841
145.034
150.415
155.959
161.638
167.423
173.286
179.201
185.145
191.097
197.029
99.7295
99.1825
98.6251
98.0563
97.4852
96.9284
96.4072
95.9463
95.5718
95.3102
95.1877
95.2296
95.4598
95.9006
96.5725
97.4939
98.6811
100.148
101.906
103.965
106.33
109.005
111.992
115.287
118.885
122.779
126.956
131.403
136.101
141.03
146.166
151.484
156.955
162.549
168.237
173.987
179.772
185.57
191.358
197.121
99.8559
99.5533
99.2197
98.8462
98.4413
98.0235
97.6175
97.2513
96.9542
96.7554
96.6835
96.7654
97.0267
97.4907
98.1791
99.1108
100.303
101.77
103.524
105.574
107.927
110.587
113.554
116.827
120.4
124.264
128.408
132.817
137.473
142.354
147.436
152.691
158.088
163.595
169.18
174.808
180.449
186.079
191.675
197.233
100.012
100.006
99.9337
99.7785
99.552
99.2782
98.988
98.7145
98.4916
98.352
98.3268
98.4453
98.7344
99.2191
99.9216
100.862
102.058
103.524
105.274
107.316
109.657
112.302
115.251
118.502
122.051
125.888
130.001
134.375
138.992
143.828
148.858
154.052
159.378
164.8
170.28
175.779
181.261
186.7
192.065
197.373
100.213
100.578
100.81
100.894
100.852
100.721
100.542
100.354
100.199
100.112
100.128
100.277
100.59
101.092
101.805
102.752
103.95
105.415
107.16
109.193
111.523
114.154
117.087
120.32
123.846
127.659
131.744
136.088
140.669
145.466
150.45
155.591
160.852
166.194
171.573
176.942
182.254
187.476
192.558
197.55
100.491
101.335
101.914
102.244
102.382
102.383
102.302
102.189
102.089
102.046
102.094
102.269
102.599
103.114
103.835
104.786
105.985
107.447
109.186
111.212
113.533
116.152
119.07
122.287
125.795
129.587
133.651
137.969
142.522
147.286
152.232
157.329
162.536
167.812
173.103
178.354
183.498
188.481
193.212
197.793
100.958
102.397
103.326
103.889
104.183
104.292
104.287
104.231
104.173
104.16
104.232
104.423
104.766
105.288
106.015
106.967
108.165
109.625
111.36
113.379
115.692
118.302
121.21
124.414
127.909
131.687
135.734
140.033
144.566
149.307
154.227
159.292
164.461
169.688
174.916
180.078
185.083
189.842
194.175
198.215
101.817
104.008
105.225
105.944
106.333
106.502
106.537
106.508
106.471
106.473
106.555
106.754
107.102
107.627
108.355
109.307
110.504
111.961
113.693
115.708
118.016
120.62
123.522
126.719
130.207
133.976
138.013
142.303
146.825
151.553
156.458
161.505
166.652
171.851
177.041
182.152
187.079
191.708
195.765
199.247
)
;

boundaryField
{
    carasuperior
    {
        type            fixedGradient;
        gradient        uniform 100;
    }
    lateralizquierda
    {
        type            fixedValue;
        value           uniform 100;
    }
    lateralderecha
    {
        type            fixedValue;
        value           uniform 200;
    }
    carainferior
    {
        type            zeroGradient;
    }
    frontAndBack
    {
        type            empty;
    }
}


// ************************************************************************* //
