/*--------------------------------*- C++ -*----------------------------------*\
| =========                 |                                                 |
| \\      /  F ield         | OpenFOAM: The Open Source CFD Toolbox           |
|  \\    /   O peration     | Version:  2.4.0                                 |
|   \\  /    A nd           | Web:      www.OpenFOAM.org                      |
|    \\/     M anipulation  |                                                 |
\*---------------------------------------------------------------------------*/
FoamFile
{
    version     2.0;
    format      ascii;
    class       volScalarField;
    location    "2.2";
    object      p;
}
// * * * * * * * * * * * * * * * * * * * * * * * * * * * * * * * * * * * * * //

dimensions      [0 2 -2 0 0 0 0];

internalField   nonuniform List<scalar> 
4800
(
-1.01168e-06
-0.0015736
-0.00320023
-0.00438143
-0.0047994
-0.00430667
-0.00285838
-0.000460066
0.00284187
0.00695061
0.00156759
-3.47235e-05
-0.00118607
-0.00184532
-0.00189199
-0.00121822
0.000221731
0.00244222
0.00543119
0.00913988
0.00323015
0.00106932
-8.88674e-05
-0.000596103
-0.000519567
0.000198745
0.0015892
0.00367658
0.00647946
0.00999112
0.00433008
0.00153348
0.000206647
-0.000314614
-0.000251499
0.000411484
0.00169369
0.00363778
0.00630511
0.00974688
0.00433188
0.00103401
-0.000470832
-0.00107719
-0.00111743
-0.000601064
0.000497414
0.00225814
0.00481225
0.00831474
0.00288404
-0.000709641
-0.0023596
-0.00309926
-0.00332657
-0.00305703
-0.0022372
-0.000723174
0.00172647
0.00547261
-0.000180633
-0.00383709
-0.00557815
-0.00648533
-0.00698038
-0.00707007
-0.00665329
-0.00549686
-0.00320382
0.00100667
-0.00486116
-0.00834859
-0.0101187
-0.0112175
-0.0120567
-0.0126298
-0.0127786
-0.0121693
-0.0102331
-0.00536205
-0.0109956
-0.0141096
-0.0158461
-0.0171452
-0.0183856
-0.0195563
-0.0204482
-0.0206307
-0.0194384
-0.0137323
-0.0182787
-0.0208679
-0.0225105
-0.0239911
-0.0256479
-0.0275004
-0.0293559
-0.0307897
-0.0315665
-0.0270426
-2.48815e-06
-0.00159488
-0.00323154
-0.00442137
-0.00484447
-0.00435381
-0.00290559
-0.000505355
0.0028008
0.00691632
0.00158447
-3.95124e-05
-0.00116903
-0.00181827
-0.00185994
-0.00118304
0.000257007
0.00247502
0.00545995
0.00916469
0.00325992
0.00104348
-9.02035e-05
-0.000595146
-0.000520995
0.00019741
0.00158775
0.00367449
0.00647663
0.00998939
0.00437337
0.00149736
0.00020666
-0.000311573
-0.00025263
0.000409864
0.00169162
0.00363453
0.00629964
0.00974208
0.00438471
0.000991755
-0.000466122
-0.00106692
-0.00111131
-0.000595258
0.000502572
0.0022611
0.00480869
0.00830799
0.00294152
-0.00075627
-0.00235342
-0.00308619
-0.0033176
-0.00304814
-0.00222853
-0.000716242
0.00172043
0.00545404
-0.000123095
-0.00388484
-0.00557154
-0.00647105
-0.00696956
-0.00705885
-0.00664085
-0.00548192
-0.00321173
0.000959707
-0.00480816
-0.00839435
-0.0101126
-0.0112036
-0.0120453
-0.0126182
-0.0127656
-0.0121461
-0.0102562
-0.00552581
-0.0109514
-0.014151
-0.0158419
-0.0171335
-0.0183748
-0.0195445
-0.0204322
-0.0205753
-0.0194223
-0.0141
-0.0182465
-0.0209037
-0.0225098
-0.0239845
-0.0256407
-0.0274897
-0.0293328
-0.0306505
-0.0312425
-0.0271507
-2.54789e-06
-0.00159497
-0.00323164
-0.00442146
-0.00484453
-0.00435385
-0.00290561
-0.000505375
0.00280078
0.00691631
0.00158439
-3.96153e-05
-0.00116913
-0.00181834
-0.00186
-0.00118308
0.000256982
0.002475
0.00545994
0.00916468
0.00325981
0.00104337
-9.0289e-05
-0.000595213
-0.00052105
0.000197373
0.00158773
0.00367447
0.00647661
0.00998938
0.00437327
0.00149728
0.000206593
-0.000311628
-0.000252678
0.000409832
0.00169161
0.00363452
0.00629963
0.00974207
0.00438464
0.000991691
-0.000466173
-0.00106696
-0.00111135
-0.000595282
0.000502559
0.00226108
0.00480868
0.00830798
0.00294147
-0.000756323
-0.00235346
-0.00308623
-0.00331763
-0.00304816
-0.00222855
-0.00071626
0.00172041
0.00545402
-0.000123142
-0.00388488
-0.00557158
-0.00647109
-0.00696959
-0.00705887
-0.00664087
-0.00548194
-0.00321175
0.000959691
-0.0048082
-0.00839439
-0.0101127
-0.0112036
-0.0120453
-0.0126183
-0.0127656
-0.0121461
-0.0102562
-0.00552582
-0.0109514
-0.014151
-0.0158419
-0.0171335
-0.0183748
-0.0195445
-0.0204323
-0.0205753
-0.0194223
-0.0141
-0.0182466
-0.0209037
-0.0225098
-0.0239845
-0.0256408
-0.0274897
-0.0293328
-0.0306506
-0.0312426
-0.0271507
-1.35208e-06
-0.00157391
-0.00320052
-0.00438165
-0.00479955
-0.00430676
-0.00285843
-0.000460103
0.00284184
0.00695058
0.00156726
-3.50271e-05
-0.00118636
-0.00184553
-0.00189213
-0.00121832
0.000221666
0.00244218
0.00543115
0.00913985
0.00322983
0.00106904
-8.9101e-05
-0.000596268
-0.000519691
0.000198652
0.00158914
0.00367654
0.00647943
0.00999109
0.00432981
0.00153325
0.000206458
-0.000314755
-0.000251615
0.000411394
0.00169364
0.00363774
0.00630508
0.00974684
0.00433169
0.00103384
-0.000470979
-0.0010773
-0.00111752
-0.000601137
0.00049737
0.00225811
0.00481221
0.0083147
0.00288389
-0.000709769
-0.00235972
-0.00309935
-0.00332665
-0.00305709
-0.00223724
-0.00072321
0.00172643
0.00547257
-0.000180766
-0.0038372
-0.00557826
-0.00648542
-0.00698045
-0.00707013
-0.00665334
-0.00549691
-0.00320386
0.00100664
-0.00486128
-0.00834868
-0.0101188
-0.0112175
-0.0120567
-0.0126298
-0.0127787
-0.0121693
-0.0102331
-0.00536208
-0.0109957
-0.0141096
-0.0158462
-0.0171452
-0.0183856
-0.0195563
-0.0204482
-0.0206307
-0.0194384
-0.0137324
-0.0182788
-0.0208679
-0.0225105
-0.0239912
-0.025648
-0.0275005
-0.029356
-0.0307897
-0.0315665
-0.0270426
0.0117132
0.0169434
0.0224731
0.0281757
0.0339676
0.0398002
0.0456503
0.0515124
0.0573943
0.0633151
0.0693059
0.0754103
0.0816847
0.0881969
0.0950197
0.102218
0.10983
0.117836
0.126122
0.134456
0.0134704
0.0182847
0.0234533
0.0288695
0.0344514
0.0401422
0.0459062
0.0517255
0.0575961
0.0635268
0.0695379
0.0756602
0.0819342
0.0884065
0.0951251
0.102129
0.109432
0.117003
0.124745
0.132471
0.0141441
0.0187994
0.0238342
0.0291462
0.0346526
0.0402923
0.0460247
0.0518257
0.0576855
0.0636062
0.0696005
0.0756905
0.0819059
0.0882826
0.0948582
0.101666
0.108724
0.11602
0.123487
0.130984
0.0139192
0.0186204
0.0237055
0.0290646
0.0346099
0.0402795
0.0460325
0.0518447
0.0577043
0.0636098
0.0695676
0.0755918
0.0817032
0.0879289
0.0943021
0.100861
0.107642
0.114672
0.121945
0.12939
0.0127586
0.0177489
0.0230867
0.0286502
0.0343485
0.0401258
0.04595
0.0518035
0.0576775
0.0635694
0.0694807
0.0754172
0.0813892
0.0874139
0.0935191
0.09975
0.106169
0.112861
0.119914
0.12739
0.0106164
0.0162391
0.0220675
0.0279947
0.0339456
0.0398902
0.0458201
0.0517336
0.0576308
0.0635106
0.0693705
0.075207
0.0810176
0.0868056
0.0925876
0.098409
0.10436
0.11059
0.117317
0.12487
0.00762053
0.0143507
0.0209101
0.027315
0.033561
0.0396824
0.0457155
0.0516842
0.0576009
0.0634671
0.0692758
0.0750128
0.0806597
0.0861997
0.0916279
0.0969738
0.102346
0.107946
0.114155
0.121796
0.0041725
0.0125936
0.0200309
0.0269089
0.0333886
0.0396213
0.0457077
0.0516998
0.0576194
0.0634682
0.0692323
0.0748847
0.0803885
0.0857007
0.0907828
0.0956303
0.100346
0.105148
0.110541
0.11814
0.00227613
0.0126076
0.0203434
0.0272418
0.033657
0.0398176
0.0458537
0.0518162
0.0577188
0.0635533
0.0692944
0.0749001
0.0803111
0.0854509
0.0902287
0.0945706
0.0985266
0.102117
0.105686
0.112082
0.00680061
0.017849
0.0234527
0.028967
0.0346192
0.0403704
0.0461998
0.0520704
0.0579457
0.0637897
0.0695584
0.0751911
0.0806009
0.0856622
0.0901952
0.0939468
0.0965745
0.09779
0.0968198
0.0986437
0.0116875
0.0169254
0.0224612
0.0281683
0.0339631
0.0397974
0.0456484
0.0515108
0.0573925
0.063313
0.0693031
0.0754065
0.0816799
0.0881913
0.0950137
0.102213
0.109827
0.117837
0.126129
0.134474
0.0134923
0.018303
0.0234678
0.0288805
0.0344596
0.0401483
0.045911
0.0517296
0.0576
0.063531
0.0695426
0.0756653
0.0819394
0.0884113
0.0951281
0.102128
0.109426
0.11699
0.124723
0.132442
0.0141468
0.0188041
0.0238394
0.0291511
0.0346567
0.0402957
0.0460273
0.0518277
0.057687
0.0636075
0.0696016
0.0756913
0.0819065
0.0882828
0.0948578
0.101665
0.108721
0.116015
0.123481
0.130979
0.0139235
0.0186273
0.0237124
0.0290707
0.0346148
0.040283
0.046035
0.0518464
0.0577055
0.0636106
0.0695682
0.0755922
0.0817035
0.0879291
0.094302
0.10086
0.10764
0.114669
0.12194
0.129385
0.0127702
0.0177619
0.0230972
0.0286584
0.0343543
0.0401296
0.0459525
0.051805
0.0576785
0.0635701
0.0694813
0.0754178
0.0813899
0.0874147
0.0935198
0.0997498
0.106168
0.112858
0.119903
0.127375
0.0106414
0.0162604
0.0220807
0.0280035
0.0339508
0.039893
0.0458214
0.0517343
0.0576311
0.0635108
0.0693707
0.0752072
0.0810181
0.0868064
0.0925886
0.0984095
0.10436
0.110588
0.1173
0.124833
0.00768723
0.0143945
0.0209303
0.0273254
0.0335655
0.0396838
0.0457156
0.051684
0.0576006
0.063467
0.0692759
0.0750131
0.0806604
0.086201
0.0916296
0.0969748
0.102344
0.107941
0.114113
0.121695
0.00428592
0.0126393
0.0200401
0.0269124
0.0333882
0.0396194
0.045706
0.0516984
0.0576182
0.0634672
0.0692314
0.0748841
0.0803881
0.0857011
0.0907843
0.095631
0.100344
0.105153
0.110504
0.117978
0.00241806
0.0125449
0.0202735
0.0272121
0.0336418
0.0398084
0.0458479
0.0518119
0.0577147
0.0635487
0.0692889
0.0748935
0.0803036
0.0854438
0.0902248
0.094572
0.0985461
0.102204
0.105803
0.111907
0.00762842
0.0179881
0.0234623
0.0289894
0.0346337
0.0403771
0.0462036
0.052073
0.057948
0.0637923
0.0695616
0.0751952
0.0806057
0.0856675
0.0901992
0.0939438
0.0965643
0.0978199
0.0967584
0.0976027
0.0116875
0.0169254
0.0224612
0.0281683
0.0339631
0.0397974
0.0456484
0.0515108
0.0573925
0.063313
0.0693031
0.0754065
0.0816799
0.0881913
0.0950137
0.102213
0.109827
0.117837
0.126129
0.134474
0.0134923
0.018303
0.0234678
0.0288805
0.0344596
0.0401483
0.045911
0.0517296
0.0576
0.063531
0.0695426
0.0756653
0.0819394
0.0884113
0.0951281
0.102128
0.109426
0.11699
0.124723
0.132442
0.0141468
0.0188041
0.0238394
0.0291511
0.0346567
0.0402957
0.0460273
0.0518277
0.057687
0.0636075
0.0696016
0.0756913
0.0819065
0.0882828
0.0948578
0.101665
0.108721
0.116015
0.123481
0.130979
0.0139235
0.0186273
0.0237124
0.0290707
0.0346147
0.040283
0.046035
0.0518464
0.0577055
0.0636106
0.0695682
0.0755922
0.0817035
0.0879291
0.094302
0.10086
0.10764
0.114669
0.12194
0.129385
0.0127702
0.0177619
0.0230972
0.0286584
0.0343543
0.0401296
0.0459525
0.051805
0.0576785
0.0635701
0.0694813
0.0754178
0.0813899
0.0874147
0.0935198
0.0997498
0.106168
0.112858
0.119903
0.127375
0.0106414
0.0162604
0.0220807
0.0280035
0.0339508
0.039893
0.0458214
0.0517343
0.0576311
0.0635108
0.0693707
0.0752072
0.0810181
0.0868064
0.0925886
0.0984096
0.10436
0.110588
0.1173
0.124833
0.00768722
0.0143945
0.0209302
0.0273254
0.0335655
0.0396838
0.0457156
0.051684
0.0576006
0.063467
0.0692759
0.0750131
0.0806604
0.086201
0.0916297
0.0969748
0.102344
0.107941
0.114113
0.121695
0.00428592
0.0126393
0.0200401
0.0269124
0.0333882
0.0396194
0.045706
0.0516984
0.0576182
0.0634672
0.0692314
0.0748841
0.0803881
0.0857011
0.0907844
0.095631
0.100344
0.105153
0.110504
0.117978
0.00241805
0.0125449
0.0202735
0.0272121
0.0336418
0.0398084
0.0458479
0.0518119
0.0577147
0.0635487
0.0692889
0.0748935
0.0803036
0.0854438
0.0902248
0.0945721
0.0985461
0.102204
0.105803
0.111907
0.00762841
0.0179881
0.0234623
0.0289894
0.0346337
0.0403771
0.0462036
0.052073
0.057948
0.0637923
0.0695616
0.0751952
0.0806057
0.0856675
0.0901992
0.0939438
0.0965643
0.09782
0.0967585
0.0976027
0.0117132
0.0169434
0.0224731
0.0281757
0.0339676
0.0398002
0.0456503
0.0515124
0.0573943
0.0633151
0.0693059
0.0754103
0.0816847
0.0881969
0.0950197
0.102218
0.10983
0.117836
0.126122
0.134456
0.0134704
0.0182847
0.0234533
0.0288695
0.0344514
0.0401421
0.0459062
0.0517255
0.0575961
0.0635268
0.0695379
0.0756603
0.0819342
0.0884065
0.0951251
0.102129
0.109432
0.117003
0.124745
0.132471
0.0141441
0.0187994
0.0238342
0.0291462
0.0346525
0.0402923
0.0460247
0.0518257
0.0576855
0.0636062
0.0696006
0.0756905
0.0819059
0.0882826
0.0948582
0.101666
0.108724
0.11602
0.123487
0.130984
0.0139192
0.0186204
0.0237055
0.0290646
0.0346099
0.0402795
0.0460325
0.0518447
0.0577043
0.0636098
0.0695676
0.0755918
0.0817032
0.0879289
0.0943021
0.100861
0.107642
0.114672
0.121945
0.12939
0.0127585
0.0177489
0.0230867
0.0286502
0.0343485
0.0401258
0.04595
0.0518035
0.0576775
0.0635694
0.0694807
0.0754172
0.0813892
0.0874139
0.0935191
0.09975
0.106169
0.112861
0.119914
0.12739
0.0106164
0.0162391
0.0220675
0.0279946
0.0339456
0.0398902
0.0458201
0.0517336
0.0576308
0.0635106
0.0693705
0.075207
0.0810176
0.0868056
0.0925876
0.098409
0.10436
0.11059
0.117317
0.12487
0.0076205
0.0143507
0.0209101
0.0273149
0.033561
0.0396824
0.0457155
0.0516842
0.0576009
0.0634671
0.0692758
0.0750128
0.0806597
0.0861997
0.0916279
0.0969738
0.102346
0.107946
0.114155
0.121796
0.00417248
0.0125935
0.0200309
0.0269089
0.0333886
0.0396213
0.0457077
0.0516998
0.0576194
0.0634682
0.0692323
0.0748848
0.0803885
0.0857007
0.0907828
0.0956304
0.100346
0.105148
0.110541
0.11814
0.00227612
0.0126076
0.0203434
0.0272418
0.033657
0.0398176
0.0458536
0.0518162
0.0577188
0.0635533
0.0692944
0.0749002
0.0803112
0.0854509
0.0902287
0.0945706
0.0985266
0.102118
0.105687
0.112082
0.0068006
0.017849
0.0234527
0.028967
0.0346192
0.0403704
0.0461998
0.0520704
0.0579457
0.0637897
0.0695584
0.0751912
0.0806009
0.0856622
0.0901952
0.0939468
0.0965745
0.09779
0.0968199
0.0986438
0.142481
0.149766
0.155903
0.160587
0.163655
0.165106
0.165107
0.164008
0.162345
0.160775
0.139894
0.146653
0.152416
0.15693
0.160061
0.161807
0.162309
0.161845
0.160741
0.159201
0.138251
0.144917
0.150646
0.155189
0.158411
0.160302
0.160982
0.160687
0.159589
0.157573
0.136771
0.143617
0.149547
0.154282
0.157671
0.159696
0.160461
0.160181
0.158931
0.156392
0.135113
0.142376
0.148706
0.153786
0.157443
0.159656
0.160525
0.160259
0.158886
0.155975
0.13326
0.141203
0.148131
0.153694
0.157712
0.160173
0.16119
0.16098
0.159563
0.156471
0.131403
0.140309
0.147979
0.154109
0.158531
0.161273
0.162476
0.162375
0.161008
0.157924
0.129968
0.140122
0.148584
0.155262
0.160044
0.163036
0.164424
0.164469
0.163237
0.160331
0.129189
0.141309
0.150514
0.157551
0.162493
0.165592
0.167098
0.167282
0.166239
0.163647
0.133707
0.147002
0.155374
0.161754
0.166237
0.169098
0.170548
0.170807
0.169965
0.167777
0.142514
0.14981
0.155956
0.160644
0.163712
0.165159
0.16515
0.164037
0.162362
0.160774
0.139858
0.146612
0.15237
0.156883
0.160014
0.161765
0.162273
0.16182
0.160736
0.15918
0.138252
0.144921
0.150652
0.155196
0.158417
0.160307
0.160982
0.160686
0.159607
0.157542
0.136777
0.143629
0.149561
0.154296
0.157684
0.159706
0.160464
0.160182
0.158958
0.156352
0.13512
0.142386
0.148718
0.153796
0.157452
0.159662
0.160524
0.160257
0.158918
0.15593
0.133271
0.141215
0.148143
0.153706
0.157721
0.160179
0.161189
0.160979
0.159598
0.156424
0.131426
0.140325
0.147992
0.154121
0.15854
0.161278
0.162473
0.162374
0.161044
0.157877
0.130107
0.140178
0.148607
0.155277
0.160051
0.163038
0.164421
0.164467
0.16327
0.160286
0.129513
0.141324
0.150491
0.157543
0.162487
0.165589
0.167092
0.167279
0.166267
0.163606
0.133599
0.146635
0.15521
0.161707
0.166218
0.169092
0.170544
0.170805
0.16999
0.167742
0.142514
0.14981
0.155956
0.160644
0.163712
0.165159
0.16515
0.164037
0.162362
0.160774
0.139858
0.146612
0.15237
0.156883
0.160014
0.161765
0.162273
0.16182
0.160736
0.15918
0.138252
0.144921
0.150652
0.155196
0.158417
0.160307
0.160982
0.160686
0.159607
0.157542
0.136777
0.143629
0.149561
0.154296
0.157684
0.159706
0.160464
0.160182
0.158958
0.156352
0.13512
0.142386
0.148718
0.153796
0.157452
0.159662
0.160524
0.160257
0.158918
0.15593
0.133271
0.141215
0.148143
0.153706
0.157721
0.160179
0.161189
0.160979
0.159598
0.156424
0.131426
0.140325
0.147992
0.154121
0.15854
0.161278
0.162473
0.162374
0.161044
0.157877
0.130107
0.140178
0.148608
0.155277
0.160051
0.163038
0.164421
0.164467
0.16327
0.160286
0.129513
0.141324
0.150491
0.157543
0.162487
0.165589
0.167092
0.167279
0.166267
0.163606
0.133599
0.146635
0.15521
0.161707
0.166218
0.169092
0.170544
0.170805
0.16999
0.167742
0.142481
0.149766
0.155903
0.160587
0.163655
0.165106
0.165106
0.164008
0.162345
0.160775
0.139894
0.146653
0.152416
0.15693
0.160061
0.161807
0.162309
0.161845
0.160741
0.159201
0.138251
0.144917
0.150646
0.155189
0.158411
0.160302
0.160982
0.160687
0.159589
0.157573
0.136771
0.143617
0.149547
0.154282
0.157671
0.159696
0.160461
0.160181
0.158931
0.156392
0.135113
0.142376
0.148706
0.153785
0.157443
0.159656
0.160525
0.160259
0.158886
0.155975
0.13326
0.141203
0.148131
0.153694
0.157712
0.160173
0.16119
0.16098
0.159563
0.156471
0.131403
0.140309
0.147979
0.154109
0.158531
0.161273
0.162475
0.162375
0.161008
0.157924
0.129968
0.140122
0.148584
0.155262
0.160044
0.163036
0.164424
0.164469
0.163237
0.160331
0.129189
0.141309
0.150514
0.157551
0.162493
0.165592
0.167098
0.167282
0.166239
0.163647
0.133707
0.147002
0.155374
0.161754
0.166237
0.169098
0.170548
0.170807
0.169965
0.167777
0.167506
0.162981
0.164888
0.168356
0.171377
0.173547
0.174732
0.174978
0.174319
0.172569
0.178497
0.173274
0.173283
0.175071
0.176996
0.178542
0.179448
0.179655
0.179163
0.17784
0.18404
0.180968
0.180692
0.181614
0.182819
0.183886
0.184548
0.184715
0.184368
0.183423
0.189486
0.187823
0.187542
0.188003
0.188741
0.189455
0.189922
0.190052
0.189822
0.189189
0.195066
0.194202
0.194003
0.194239
0.19469
0.195156
0.195477
0.195576
0.195439
0.19505
0.200752
0.200343
0.200235
0.200364
0.200636
0.200932
0.201144
0.201217
0.201148
0.200946
0.206542
0.206396
0.206355
0.206425
0.206576
0.206746
0.206871
0.206917
0.206895
0.206835
0.212423
0.21245
0.212443
0.212462
0.212515
0.212576
0.212617
0.212627
0.21263
0.212683
0.218423
0.218555
0.218555
0.21851
0.218458
0.218403
0.218349
0.218304
0.218309
0.218443
0.224577
0.224771
0.22474
0.224601
0.224414
0.224215
0.224034
0.223906
0.223883
0.224067
0.230951
0.231157
0.231048
0.230763
0.230392
0.229997
0.229644
0.229388
0.229299
0.229493
0.237638
0.23778
0.237524
0.237025
0.236396
0.235737
0.235148
0.234709
0.234502
0.234642
0.244757
0.244711
0.24421
0.243404
0.24243
0.241423
0.240522
0.239832
0.239436
0.23943
0.252453
0.252011
0.251129
0.249906
0.248485
0.247043
0.245751
0.244733
0.24406
0.243772
0.260913
0.259689
0.258258
0.2565
0.254538
0.252586
0.250836
0.249418
0.248363
0.247594
0.270246
0.267726
0.265485
0.263077
0.26052
0.258035
0.255804
0.253934
0.252376
0.25088
0.280529
0.275789
0.272469
0.269375
0.266272
0.263346
0.260705
0.25839
0.256216
0.253671
0.291425
0.283111
0.278503
0.274874
0.27148
0.268409
0.265607
0.262972
0.260111
0.256136
0.302876
0.288709
0.282421
0.278632
0.275535
0.27296
0.27055
0.267944
0.264431
0.258617
0.314131
0.289108
0.281044
0.278482
0.277177
0.276429
0.275487
0.273645
0.269741
0.261712
0.168333
0.163123
0.165001
0.168423
0.171402
0.173558
0.174737
0.17498
0.174341
0.172543
0.178636
0.173211
0.173329
0.175115
0.177017
0.178555
0.179454
0.17966
0.179181
0.177822
0.18405
0.180898
0.180701
0.181634
0.182832
0.183896
0.184555
0.18472
0.184382
0.183411
0.189508
0.187795
0.187546
0.188014
0.18875
0.189463
0.189928
0.190056
0.189832
0.189182
0.19508
0.194188
0.194003
0.194244
0.194695
0.195162
0.195482
0.19558
0.195445
0.195046
0.200757
0.200337
0.200233
0.200365
0.200639
0.200936
0.201147
0.20122
0.201151
0.200945
0.206544
0.206394
0.206354
0.206425
0.206578
0.206749
0.206873
0.206919
0.206896
0.206835
0.212423
0.212451
0.212443
0.212461
0.212515
0.212577
0.212618
0.212628
0.212629
0.212684
0.218421
0.218558
0.218554
0.218509
0.218458
0.218404
0.21835
0.218305
0.218306
0.218445
0.224573
0.224775
0.22474
0.2246
0.224414
0.224215
0.224035
0.223906
0.223879
0.224071
0.230946
0.231162
0.231047
0.230762
0.230391
0.229997
0.229644
0.229388
0.229295
0.229497
0.237632
0.237785
0.237523
0.237023
0.236395
0.235737
0.235149
0.234709
0.234497
0.234647
0.244751
0.244713
0.244208
0.243402
0.242428
0.241422
0.240523
0.239833
0.239433
0.239436
0.252449
0.252006
0.251125
0.249903
0.248483
0.247042
0.245751
0.244735
0.244062
0.243776
0.260912
0.259671
0.258252
0.256495
0.254534
0.252584
0.250836
0.249421
0.248372
0.247595
0.270258
0.267689
0.265478
0.263074
0.260515
0.258034
0.255804
0.253939
0.252397
0.250875
0.28058
0.27572
0.272462
0.269374
0.266267
0.263345
0.260706
0.258398
0.256255
0.253657
0.291496
0.282938
0.278479
0.274872
0.271473
0.268408
0.265609
0.262986
0.260174
0.256107
0.302997
0.288381
0.282424
0.278674
0.27555
0.272972
0.270558
0.267966
0.264529
0.258569
0.315468
0.289208
0.281338
0.278666
0.277246
0.276463
0.275503
0.273675
0.269883
0.261636
0.168333
0.163123
0.165001
0.168423
0.171402
0.173558
0.174737
0.17498
0.174341
0.172543
0.178636
0.173211
0.173329
0.175115
0.177017
0.178555
0.179454
0.17966
0.179181
0.177822
0.18405
0.180898
0.180701
0.181634
0.182832
0.183896
0.184555
0.18472
0.184382
0.183411
0.189508
0.187795
0.187546
0.188014
0.18875
0.189463
0.189928
0.190056
0.189832
0.189182
0.19508
0.194188
0.194003
0.194244
0.194695
0.195162
0.195482
0.19558
0.195445
0.195046
0.200757
0.200337
0.200233
0.200365
0.200639
0.200936
0.201147
0.20122
0.201151
0.200945
0.206544
0.206394
0.206354
0.206425
0.206578
0.206749
0.206873
0.206919
0.206896
0.206835
0.212423
0.212451
0.212443
0.212461
0.212515
0.212577
0.212618
0.212628
0.212629
0.212684
0.218421
0.218558
0.218554
0.218509
0.218458
0.218404
0.21835
0.218305
0.218306
0.218445
0.224573
0.224775
0.22474
0.2246
0.224414
0.224215
0.224035
0.223906
0.223879
0.224071
0.230946
0.231162
0.231047
0.230762
0.230391
0.229997
0.229644
0.229388
0.229295
0.229497
0.237632
0.237785
0.237523
0.237023
0.236395
0.235737
0.235149
0.234709
0.234497
0.234647
0.244751
0.244713
0.244208
0.243402
0.242428
0.241422
0.240523
0.239833
0.239433
0.239436
0.252449
0.252006
0.251125
0.249903
0.248483
0.247042
0.245751
0.244735
0.244062
0.243776
0.260912
0.259671
0.258252
0.256495
0.254534
0.252584
0.250836
0.249421
0.248372
0.247595
0.270258
0.267689
0.265478
0.263074
0.260515
0.258034
0.255804
0.253939
0.252397
0.250875
0.28058
0.27572
0.272462
0.269374
0.266267
0.263345
0.260706
0.258398
0.256255
0.253657
0.291496
0.282938
0.278479
0.274872
0.271473
0.268408
0.265609
0.262986
0.260174
0.256107
0.302997
0.288381
0.282424
0.278674
0.27555
0.272972
0.270558
0.267966
0.264529
0.258569
0.315468
0.289208
0.281338
0.278666
0.277246
0.276463
0.275503
0.273675
0.269883
0.261636
0.167506
0.162981
0.164888
0.168356
0.171377
0.173547
0.174732
0.174978
0.174319
0.172569
0.178497
0.173274
0.173283
0.175071
0.176996
0.178542
0.179448
0.179655
0.179163
0.17784
0.18404
0.180968
0.180692
0.181614
0.182819
0.183886
0.184548
0.184715
0.184368
0.183423
0.189486
0.187823
0.187542
0.188003
0.188741
0.189455
0.189922
0.190052
0.189822
0.189189
0.195066
0.194202
0.194003
0.194239
0.19469
0.195156
0.195477
0.195576
0.195439
0.19505
0.200752
0.200343
0.200235
0.200364
0.200636
0.200932
0.201144
0.201217
0.201148
0.200946
0.206542
0.206396
0.206355
0.206425
0.206576
0.206746
0.206871
0.206917
0.206895
0.206835
0.212423
0.21245
0.212443
0.212462
0.212515
0.212576
0.212617
0.212627
0.21263
0.212683
0.218423
0.218555
0.218555
0.21851
0.218458
0.218403
0.218349
0.218304
0.218309
0.218443
0.224577
0.224771
0.22474
0.224601
0.224414
0.224215
0.224034
0.223906
0.223883
0.224068
0.230951
0.231157
0.231048
0.230763
0.230392
0.229997
0.229644
0.229388
0.229299
0.229493
0.237638
0.23778
0.237524
0.237025
0.236396
0.235737
0.235148
0.234709
0.234502
0.234642
0.244757
0.244711
0.24421
0.243404
0.24243
0.241423
0.240522
0.239832
0.239436
0.23943
0.252453
0.252011
0.251129
0.249906
0.248485
0.247043
0.245751
0.244733
0.24406
0.243772
0.260913
0.259689
0.258258
0.2565
0.254538
0.252586
0.250836
0.249418
0.248363
0.247594
0.270246
0.267726
0.265485
0.263077
0.26052
0.258036
0.255804
0.253934
0.252376
0.25088
0.280529
0.275789
0.272469
0.269375
0.266272
0.263346
0.260705
0.25839
0.256216
0.253671
0.291426
0.283111
0.278503
0.274874
0.27148
0.268409
0.265607
0.262972
0.260111
0.256136
0.302876
0.288709
0.282421
0.278632
0.275535
0.27296
0.27055
0.267944
0.264431
0.258617
0.314132
0.289108
0.281044
0.278482
0.277177
0.276429
0.275487
0.273645
0.269741
0.261712
0.253216
0.261855
0.267243
0.271388
0.274959
0.278203
0.280402
0.280557
0.276888
0.266404
0.224105
0.240051
0.25133
0.260901
0.269981
0.278616
0.285665
0.28946
0.287133
0.274256
0.206676
0.222075
0.235467
0.248968
0.263411
0.278353
0.291964
0.301496
0.302303
0.28772
0.193175
0.207027
0.221212
0.237606
0.257001
0.278783
0.300593
0.318416
0.325085
0.310738
0.183315
0.19593
0.210542
0.229228
0.253152
0.28205
0.3136
0.34279
0.359457
0.34978
0.177365
0.189618
0.205013
0.225975
0.25431
0.290611
0.333494
0.377926
0.411015
0.414973
0.17516
0.188122
0.205072
0.228809
0.261897
0.306229
0.362393
0.427072
0.486298
0.520669
0.175837
0.190259
0.209349
0.236298
0.274577
0.32785
0.399798
0.4905
0.590326
0.694076
0.177743
0.193309
0.21384
0.242834
0.284728
0.345434
0.433283
0.556513
0.725311
1.00513
0.179162
0.194218
0.213567
0.240587
0.279983
0.339124
0.432021
0.586208
0.872514
1.4896
0.253549
0.26137
0.267113
0.271377
0.274956
0.278211
0.280406
0.28059
0.277084
0.266292
0.224532
0.239998
0.25127
0.260868
0.26996
0.278611
0.285657
0.289497
0.287396
0.274104
0.206934
0.222096
0.235437
0.248928
0.263372
0.278327
0.291934
0.30153
0.302643
0.287525
0.193266
0.207013
0.221161
0.237538
0.256928
0.278717
0.300519
0.318433
0.325497
0.310499
0.183343
0.195898
0.210473
0.229131
0.253039
0.281928
0.313462
0.342767
0.359892
0.349524
0.177372
0.189581
0.204934
0.225856
0.254151
0.290411
0.333251
0.377809
0.411372
0.414924
0.175175
0.1881
0.205004
0.228686
0.2617
0.305916
0.361961
0.42674
0.486272
0.521155
0.175881
0.190293
0.20937
0.236298
0.274525
0.327649
0.399423
0.490171
0.589005
0.693752
0.177813
0.193422
0.214024
0.243124
0.285158
0.345994
0.434025
0.557117
0.722072
1.00284
0.179212
0.194258
0.213587
0.240592
0.279997
0.339201
0.432379
0.586644
0.868825
1.49885
0.253549
0.26137
0.267113
0.271377
0.274956
0.278211
0.280406
0.28059
0.277084
0.266292
0.224532
0.239998
0.25127
0.260868
0.26996
0.278611
0.285657
0.289497
0.287396
0.274104
0.206934
0.222096
0.235437
0.248928
0.263372
0.278327
0.291934
0.30153
0.302643
0.287525
0.193266
0.207013
0.221161
0.237538
0.256928
0.278717
0.300519
0.318433
0.325497
0.310499
0.183343
0.195898
0.210473
0.229131
0.253039
0.281928
0.313462
0.342767
0.359892
0.349524
0.177372
0.189581
0.204934
0.225856
0.254151
0.290411
0.333251
0.377809
0.411372
0.414924
0.175175
0.1881
0.205004
0.228686
0.2617
0.305916
0.361961
0.42674
0.486272
0.521155
0.175881
0.190293
0.20937
0.236298
0.274525
0.327649
0.399423
0.490171
0.589005
0.693752
0.177813
0.193422
0.214024
0.243124
0.285158
0.345994
0.434025
0.557117
0.722072
1.00284
0.179212
0.194258
0.213587
0.240592
0.279997
0.339201
0.432379
0.586644
0.868825
1.49885
0.253216
0.261855
0.267243
0.271389
0.274959
0.278203
0.280402
0.280557
0.276888
0.266404
0.224105
0.240051
0.25133
0.260901
0.269982
0.278616
0.285665
0.28946
0.287133
0.274256
0.206676
0.222075
0.235467
0.248968
0.263411
0.278353
0.291964
0.301496
0.302303
0.28772
0.193175
0.207027
0.221212
0.237606
0.257001
0.278783
0.300593
0.318416
0.325085
0.310738
0.183315
0.19593
0.210543
0.229228
0.253153
0.28205
0.3136
0.34279
0.359457
0.34978
0.177365
0.189618
0.205013
0.225975
0.25431
0.290611
0.333494
0.377926
0.411015
0.414973
0.175161
0.188122
0.205072
0.228809
0.261897
0.306229
0.362393
0.427072
0.486298
0.520669
0.175837
0.190259
0.209349
0.236298
0.274577
0.32785
0.399798
0.4905
0.590326
0.694076
0.177743
0.193309
0.21384
0.242834
0.284728
0.345434
0.433283
0.556513
0.725311
1.00513
0.179162
0.194218
0.213567
0.240587
0.279983
0.339124
0.432021
0.586208
0.872514
1.4896
-0.152858
-0.132255
-0.1143
-0.0977191
-0.0811419
-0.0643695
-0.047398
-0.0302657
-0.0130349
0.00422153
0.0214254
0.0385053
0.0553866
0.0720231
0.0884368
0.104812
0.121627
0.139918
0.162976
0.200676
-0.139086
-0.125613
-0.111118
-0.0958894
-0.0799793
-0.0635973
-0.0468786
-0.0299204
-0.012808
0.0043834
0.0215874
0.038742
0.0558106
0.0727912
0.0897549
0.106908
0.124648
0.1436
0.165283
0.193204
-0.135967
-0.123958
-0.11026
-0.0954092
-0.0797248
-0.0634687
-0.0468124
-0.0298775
-0.012758
0.00447119
0.0217486
0.0390239
0.0562635
0.0734592
0.0906494
0.107951
0.12558
0.143835
0.163282
0.184852
-0.137216
-0.124886
-0.110997
-0.0960039
-0.0802098
-0.0638523
-0.0470991
-0.0300691
-0.0128497
0.00449274
0.0219049
0.0393412
0.0567608
0.0741275
0.0914141
0.108609
0.125715
0.142735
0.159734
0.176824
-0.139988
-0.126962
-0.112567
-0.097183
-0.0810887
-0.0644964
-0.047555
-0.0303674
-0.0130054
0.00447826
0.0220402
0.0396368
0.0572154
0.0747047
0.0920067
0.108989
0.12548
0.141274
0.156198
0.170216
-0.142513
-0.128846
-0.113964
-0.0982032
-0.081823
-0.0650136
-0.0479049
-0.0305827
-0.0131044
0.00448873
0.0221595
0.0398625
0.0575309
0.0750611
0.0922982
0.109026
0.124972
0.139838
0.15341
0.165745
-0.14312
-0.12919
-0.114153
-0.0982978
-0.0818593
-0.0650125
-0.0478771
-0.0305322
-0.0130307
0.0045879
0.0222847
0.0400074
0.0576753
0.0751619
0.092281
0.108781
0.124361
0.138732
0.151746
0.163614
-0.140917
-0.127326
-0.112655
-0.0971342
-0.0809763
-0.0643519
-0.0473861
-0.0301673
-0.0127586
0.00478965
0.0224277
0.0400912
0.057687
0.0750777
0.0920694
0.108415
0.123839
0.138114
0.151198
0.163445
-0.13591
-0.123439
-0.109729
-0.0949836
-0.0794256
-0.0632497
-0.0466115
-0.0296292
-0.0123919
0.0050293
0.0225695
0.0401493
0.0576666
0.0749827
0.0919109
0.108223
0.123683
0.138118
0.151557
0.164419
-0.127746
-0.117554
-0.105582
-0.0921209
-0.0774841
-0.0619534
-0.045759
-0.0290784
-0.0120445
0.00524034
0.0226884
0.040219
0.0577301
0.0750857
0.0921097
0.108586
0.124284
0.13902
0.152776
0.16587
-0.153226
-0.132135
-0.114285
-0.0977411
-0.0811545
-0.064377
-0.0474033
-0.030269
-0.0130366
0.00422121
0.021426
0.0385062
0.0553866
0.0720202
0.0884272
0.104791
0.121605
0.139869
0.162644
0.200057
-0.139028
-0.125445
-0.111042
-0.0958529
-0.079953
-0.0635789
-0.046866
-0.0299119
-0.0128025
0.00438673
0.0215897
0.0387447
0.0558158
0.0728019
0.0897742
0.10694
0.124708
0.143674
0.165185
0.192944
-0.136026
-0.123933
-0.110236
-0.0953909
-0.0797101
-0.063458
-0.046805
-0.0298724
-0.0127544
0.00447356
0.0217501
0.0390249
0.0562641
0.0734595
0.0906481