/*--------------------------------*- C++ -*----------------------------------*\
| =========                 |                                                 |
| \\      /  F ield         | OpenFOAM: The Open Source CFD Toolbox           |
|  \\    /   O peration     | Version:  2.4.0                                 |
|   \\  /    A nd           | Web:      www.OpenFOAM.org                      |
|    \\/     M anipulation  |                                                 |
\*---------------------------------------------------------------------------*/
FoamFile
{
    version     2.0;
    format      ascii;
    class       surfaceScalarField;
    location    "2.2";
    object      phi;
}
// * * * * * * * * * * * * * * * * * * * * * * * * * * * * * * * * * * * * * //

dimensions      [0 3 -1 0 0 0 0];

internalField   nonuniform List<scalar> 
12720
(
1.42654e-07
-1.42543e-07
1.3965e-10
-5.53307e-07
6.9421e-07
1.75111e-09
-2.06528e-06
1.5094e-06
2.57642e-09
-4.14834e-06
2.07977e-06
3.28674e-09
-6.57027e-06
2.41822e-06
3.70863e-09
-9.14026e-06
2.56611e-06
3.87999e-09
-1.17013e-05
2.55713e-06
3.88487e-09
-1.41172e-05
2.41222e-06
3.727e-09
-1.62692e-05
2.14865e-06
3.38019e-09
1.79475e-06
2.82122e-09
-1.80668e-05
-7.24683e-07
5.83528e-07
-1.38896e-09
-3.26536e-06
3.23447e-06
4.16022e-10
-7.40414e-06
5.64966e-06
-1.48078e-09
-1.27225e-05
7.40048e-06
-2.35029e-09
-1.87804e-05
8.47892e-06
-2.78387e-09
-2.51677e-05
8.95648e-06
-3.05556e-09
-3.15129e-05
8.90538e-06
-3.06457e-09
-3.74808e-05
8.38298e-06
-2.84894e-09
-4.27825e-05
7.45281e-06
-2.49866e-09
6.22107e-06
-2.15543e-09
-4.72067e-05
-1.67009e-06
2.25607e-06
-2.44991e-09
-6.03251e-06
7.59464e-06
2.24513e-09
-1.24961e-05
1.21131e-05
1.1607e-10
-2.04755e-05
1.53799e-05
-8.30851e-11
-2.93967e-05
1.74e-05
1.24107e-10
-3.87145e-05
1.82741e-05
1.15983e-10
-4.79133e-05
1.8104e-05
1.25555e-10
-5.65108e-05
1.69803e-05
1.81358e-10
-6.40813e-05
1.50231e-05
2.46395e-10
1.2451e-05
1.49867e-10
-7.03114e-05
-2.44015e-06
4.69979e-06
-3.5624e-09
-8.33499e-06
1.34863e-05
3.13709e-09
-1.67164e-05
2.04945e-05
-1.12112e-12
-2.68173e-05
2.54811e-05
-2.64153e-10
-3.79542e-05
2.85369e-05
9.82752e-11
-4.94886e-05
2.98083e-05
1.40786e-10
-6.08024e-05
2.94177e-05
1.79776e-10
-7.12941e-05
2.74717e-05
2.82082e-10
-8.04082e-05
2.41367e-05
4.75434e-10
1.97578e-05
4.16584e-10
-8.77154e-05
-2.98032e-06
7.68445e-06
-4.34756e-09
-9.98775e-06
2.04901e-05
3.67047e-09
-1.97631e-05
3.02703e-05
-4.09114e-10
-3.13882e-05
3.71071e-05
-8.92268e-10
-4.40952e-05
4.12444e-05
-5.31378e-10
-5.71813e-05
4.28949e-05
-5.0436e-10
-6.99538e-05
4.21906e-05
-4.48145e-10
-8.17063e-05
3.92244e-05
-2.56524e-10
-9.17385e-05
3.41686e-05
3.0879e-10
2.74703e-05
5.86266e-10
-9.94516e-05
-3.27006e-06
1.09592e-05
-4.73e-09
-1.08957e-05
2.81117e-05
4.05086e-09
-2.14535e-05
4.08287e-05
-5.37378e-10
-3.39333e-05
4.95881e-05
-1.13482e-09
-4.7518e-05
5.48299e-05
-7.79554e-10
-6.14713e-05
5.6849e-05
-7.72234e-10
-7.50552e-05
5.57752e-05
-7.53616e-10
-8.74746e-05
5.16444e-05
-6.02168e-10
-9.78622e-05
4.45557e-05
5.24762e-10
3.49492e-05
1.61313e-09
-0.000105343
-3.3026e-06
1.42666e-05
-4.73507e-09
-1.10157e-05
3.58207e-05
4.14782e-09
-2.16869e-05
5.15004e-05
-5.74656e-10
-3.42821e-05
6.21845e-05
-1.24074e-09
-4.79742e-05
6.85229e-05
-9.40003e-10
-6.20277e-05
7.09035e-05
-9.74909e-10
-7.56984e-05
6.94469e-05
-1.08079e-09
-8.81419e-05
6.40893e-05
-1.29831e-09
-9.83257e-05
5.47388e-05
6.8737e-10
4.15577e-05
4.08011e-09
-0.000104938
-3.08551e-06
1.73565e-05
-4.36202e-09
-1.03573e-05
4.30885e-05
3.97589e-09
-2.04544e-05
6.1598e-05
-5.24806e-10
-3.2377e-05
7.41084e-05
-1.20739e-09
-4.53162e-05
8.14632e-05
-9.84682e-10
-5.85612e-05
8.41494e-05
-1.00271e-09
-7.14036e-05
8.22905e-05
-1.13555e-09
-8.30213e-05
7.5709e-05
-2.01799e-09
-9.23009e-05
6.40164e-05
2.00914e-09
4.65605e-05
1.4226e-08
-9.73179e-05
-2.64906e-06
2.00091e-05
-3.63814e-09
-9.00365e-06
4.94395e-05
3.59962e-09
-1.78833e-05
7.0478e-05
-3.64091e-10
-2.83547e-05
8.45808e-05
-1.01472e-09
-3.96242e-05
9.27336e-05
-9.34891e-10
-5.09886e-05
9.55148e-05
-1.02306e-09
-6.17751e-05
9.30783e-05
-1.38516e-09
-7.12361e-05
8.51748e-05
-4.81137e-09
-7.83939e-05
7.11756e-05
-1.39964e-09
4.88811e-05
3.19347e-08
-8.07464e-05
-2.05522e-06
-2.64446e-09
2.2067e-05
-7.13761e-06
3.10844e-09
5.45188e-05
-1.42955e-05
-6.19867e-11
7.7636e-05
-2.26641e-05
-5.79689e-10
9.29499e-05
-3.14198e-05
-6.24763e-10
0.00010149
-3.9765e-05
-9.36489e-10
0.000103861
-4.69052e-05
-2.00622e-09
0.000100221
-5.19431e-05
-1.20845e-08
9.02248e-05
-5.37798e-05
-2.81431e-08
7.30405e-05
9.39191e-09
-5.1225e-05
4.6317e-05
1.44006e-07
-1.43866e-07
-1.36987e-12
-5.53953e-07
6.997e-07
8.69225e-12
-2.06604e-06
1.51465e-06
9.87929e-12
-4.14847e-06
2.08572e-06
7.78176e-12
-6.57013e-06
2.42536e-06
5.40396e-12
-9.14011e-06
2.57386e-06
3.36157e-12
-1.17012e-05
2.56501e-06
2.02224e-12
-1.41173e-05
2.41984e-06
1.59582e-12
-1.62696e-05
2.15565e-06
1.43436e-12
1.8006e-06
1.05988e-12
-1.80674e-05
-7.29488e-07
5.84221e-07
8.68186e-12
-3.2709e-06
3.24152e-06
1.08175e-11
-7.40902e-06
5.65128e-06
9.88703e-12
-1.27259e-05
7.40019e-06
7.36979e-12
-1.8782e-05
8.47872e-06
5.29987e-12
-2.51678e-05
8.95658e-06
3.52171e-12
-3.15118e-05
8.9059e-06
2.29585e-12
-3.74788e-05
8.38406e-06
1.76828e-12
-4.27802e-05
7.45448e-06
1.46834e-12
6.22261e-06
1.09772e-12
-4.72043e-05
-1.67546e-06
2.25722e-06
1.03567e-11
-6.03327e-06
7.60157e-06
1.03717e-11
-1.24969e-05
1.2115e-05
8.23204e-12
-2.04765e-05
1.53797e-05
6.10835e-12
-2.93973e-05
1.73996e-05
4.81652e-12
-3.87145e-05
1.82739e-05
3.31575e-12
-4.79129e-05
1.81044e-05
2.04962e-12
-5.65101e-05
1.69815e-05
1.53012e-12
-6.40809e-05
1.50255e-05
1.33304e-12
1.24532e-05
1.0527e-12
-7.03113e-05
-2.44686e-06
4.70051e-06
8.45273e-12
-8.33389e-06
1.34917e-05
8.09911e-12
-1.67152e-05
2.04963e-05
6.41793e-12
-2.6817e-05
2.54812e-05
5.0287e-12
-3.79541e-05
2.85368e-05
4.24859e-12
-4.94885e-05
2.98084e-05
2.94312e-12
-6.08022e-05
2.94182e-05
1.76471e-12
-7.12938e-05
2.74734e-05
1.37915e-12
-8.04086e-05
2.41407e-05
1.319e-12
1.97617e-05
1.13403e-12
-8.77166e-05
-2.98866e-06
7.68481e-06
5.9617e-12
-9.98637e-06
2.04931e-05
5.91795e-12
-1.97615e-05
3.0271e-05
4.73709e-12
-3.13879e-05
3.71067e-05
3.88012e-12
-4.40952e-05
4.12436e-05
3.39119e-12
-5.71814e-05
4.28941e-05
2.35524e-12
-6.99537e-05
4.21901e-05
1.41475e-12
-8.17057e-05
3.92252e-05
1.25554e-12
-9.17388e-05
3.4174e-05
1.37032e-12
2.74774e-05
1.27471e-12
-9.94539e-05
-3.27926e-06
1.09593e-05
4.66352e-12
-1.08942e-05
2.81121e-05
4.76031e-12
-2.14519e-05
4.08282e-05
4.01254e-12
-3.39332e-05
4.95868e-05
3.37826e-12
-4.75184e-05
5.48281e-05
3.03093e-12
-6.14721e-05
5.6847e-05
2.25681e-12
-7.50557e-05
5.57729e-05
1.58383e-12
-8.74741e-05
5.1643e-05
1.58549e-12
-9.78623e-05
4.45628e-05
1.69338e-12
3.49636e-05
1.49153e-12
-0.000105347
-3.31188e-06
1.42665e-05
4.05278e-12
-1.10143e-05
3.58187e-05
4.05692e-12
-2.16855e-05
5.14988e-05
3.59207e-12
-3.42826e-05
6.21826e-05
3.13027e-12
-4.79757e-05
6.85203e-05
2.89031e-12
-6.20299e-05
7.09002e-05
2.38862e-12
-7.57005e-05
6.94424e-05
1.98218e-12
-8.81419e-05
6.40831e-05
2.00496e-12
-9.83246e-05
5.47462e-05
1.92019e-12
4.15896e-05
1.45382e-12
-0.000104947
-3.09411e-06
1.73562e-05
3.28546e-12
-1.0356e-05
4.30846e-05
3.22923e-12
-2.04534e-05
6.15957e-05
2.96461e-12
-3.23781e-05
7.41062e-05
2.65164e-12
-4.53189e-05
8.14601e-05
2.53478e-12
-5.85651e-05
8.41454e-05
2.30711e-12
-7.14079e-05
8.22841e-05
2.12416e-12
-8.30213e-05
7.56944e-05
2.06678e-12
-9.22885e-05
6.40154e-05
1.76579e-12
4.6642e-05
1.03488e-12
-9.73267e-05
-2.65629e-06
2.00089e-05
2.56605e-12
-9.00243e-06
4.94343e-05
2.5152e-12
-1.78826e-05
7.04754e-05
2.39446e-12
-2.83565e-05
8.45791e-05
2.20871e-12
-3.96289e-05
9.27315e-05
2.19124e-12
-5.09969e-05
9.55124e-05
2.17754e-12
-6.17892e-05
9.3075e-05
2.09408e-12
-7.12554e-05
8.51558e-05
1.82277e-12
-7.83701e-05
7.11287e-05
1.24416e-12
4.89972e-05
7.71086e-13
-8.06934e-05
-2.06049e-06
2.1421e-12
2.20667e-05
-7.13611e-06
2.09468e-12
5.4513e-05
-1.42943e-05
2.08106e-12
7.76335e-05
-2.2665e-05
2.00964e-12
9.29493e-05
-3.14245e-05
2.03802e-12
0.00010149
-3.97767e-05
2.07416e-12
0.000103864
-4.69336e-05
1.92987e-12
0.00010023
-5.20301e-05
1.45995e-12
9.02402e-05
-5.39184e-05
8.95797e-13
7.29889e-05
7.4543e-13
-5.1e-05
4.60883e-05
1.43982e-07
-1.4389e-07
-9.34811e-11
-5.53968e-07
6.99691e-07
-1.73285e-09
-2.06604e-06
1.51465e-06
-2.56128e-09
-4.14848e-06
2.08572e-06
-3.27644e-09
-6.57013e-06
2.42535e-06
-3.7019e-09
-9.1401e-06
2.57386e-06
-3.8755e-09
-1.17012e-05
2.565e-06
-3.8827e-09
-1.41173e-05
2.41984e-06
-3.72557e-09
-1.62696e-05
2.15565e-06
-3.37887e-09
1.8006e-06
-2.82024e-09
-1.80674e-05
-7.29496e-07
5.84206e-07
1.40939e-09
-3.27091e-06
3.24151e-06
-3.98589e-10
-7.40902e-06
5.65127e-06
1.49672e-09
-1.27258e-05
7.40018e-06
2.36142e-09
-1.8782e-05
8.47872e-06
2.79122e-09
-2.51678e-05
8.95658e-06
3.06097e-09
-3.15117e-05
8.90589e-06
3.06802e-09
-3.74788e-05
8.38406e-06
2.8515e-09
-4.27801e-05
7.45448e-06
2.50077e-09
6.22261e-06
2.15697e-09
-4.72043e-05
-1.67546e-06
2.25721e-06
2.46707e-09
-6.03327e-06
7.60156e-06
-2.23004e-09
-1.24969e-05
1.2115e-05
-1.03206e-10
-2.04764e-05
1.53797e-05
9.16496e-11
-2.93972e-05
1.73996e-05
-1.18026e-10
-3.87145e-05
1.82739e-05
-1.11068e-10
-4.79128e-05
1.81044e-05
-1.22455e-10
-5.65101e-05
1.69815e-05
-1.79207e-10
-6.40808e-05
1.50255e-05
-2.44542e-10
1.24532e-05
-1.48325e-10
-7.03113e-05
-2.44686e-06
4.70051e-06
3.57663e-09
-8.33388e-06
1.34917e-05
-3.1253e-09
-1.67152e-05
2.04963e-05
1.17246e-11
-2.6817e-05
2.54812e-05
2.71649e-10
-3.79541e-05
2.85368e-05
-9.2267e-11
-4.94884e-05
2.98084e-05
-1.35709e-10
-6.08021e-05
2.94182e-05
-1.76527e-10
-7.12938e-05
2.74734e-05
-2.79735e-10
-8.04085e-05
2.41407e-05
-4.73273e-10
1.97617e-05
-4.14641e-10
-8.77166e-05
-2.98865e-06
7.68481e-06
4.35798e-09
-9.98636e-06
2.04931e-05
-3.66176e-09
-1.97615e-05
3.0271e-05
4.17486e-10
-3.13878e-05
3.71066e-05
8.98217e-10
-4.40951e-05
4.12436e-05
5.36327e-10
-5.71813e-05
4.28941e-05
5.0858e-10
-6.99536e-05
4.21901e-05
4.50757e-10
-8.17057e-05
3.92252e-05
2.58446e-10
-9.17387e-05
3.4174e-05
-3.06793e-10
2.74774e-05
-5.84262e-10
-9.94538e-05
-3.27926e-06
1.09593e-05
4.73773e-09
-1.08942e-05
2.81121e-05
-4.04429e-09
-2.14519e-05
4.08282e-05
5.43857e-10
-3.39332e-05
4.95868e-05
1.13935e-09
-4.75184e-05
5.48281e-05
7.83383e-10
-6.14721e-05
5.6847e-05
7.75537e-10
-7.50556e-05
5.57729e-05
7.55694e-10
-8.7474e-05
5.1643e-05
6.03793e-10
-9.78622e-05
4.45628e-05
-5.22961e-10
3.49636e-05
-1.61126e-09
-0.000105347
-3.31188e-06
1.42665e-05
4.74208e-09
-1.10143e-05
3.58187e-05
-4.142e-09
-2.16855e-05
5.14988e-05
5.80331e-10
-3.42826e-05
6.21826e-05
1.2448e-09
-4.79757e-05
6.85202e-05
9.43575e-10
-6.20299e-05
7.09002e-05
9.78096e-10
-7.57005e-05
6.94424e-05
1.08303e-09
-8.81418e-05
6.40831e-05
1.30008e-09
-9.83246e-05
5.47462e-05
-6.85585e-10
4.15896e-05
-4.07831e-09
-0.000104946
-3.09411e-06
1.73562e-05
4.36801e-09
-1.0356e-05
4.30845e-05
-3.97102e-09
-2.04533e-05
6.15956e-05
5.29457e-10
-3.23781e-05
7.41061e-05
1.21076e-09
-4.53189e-05
8.146e-05
9.87794e-10
-5.8565e-05
8.41454e-05
1.00557e-09
-7.14079e-05
8.22841e-05
1.13765e-09
-8.30213e-05
7.56944e-05
2.0195e-09
-9.22884e-05
6.40154e-05
-2.00766e-09
4.6642e-05
-1.42244e-08
-9.73267e-05
-2.65629e-06
2.00089e-05
3.64289e-09
-9.00242e-06
4.94343e-05
-3.59568e-09
-1.78826e-05
7.04754e-05
3.67676e-10
-2.83565e-05
8.45791e-05
1.01742e-09
-3.96289e-05
9.27315e-05
9.37499e-10
-5.09969e-05
9.55123e-05
1.02543e-09
-6.17892e-05
9.3075e-05
1.3868e-09
-7.12554e-05
8.51558e-05
4.8122e-09
-7.83701e-05
7.11287e-05
1.40047e-09
4.89972e-05
-3.19336e-08
-8.06933e-05
-2.06049e-06
2.64828e-09
2.20667e-05
-7.1361e-06
-3.10507e-09
5.4513e-05
-1.42942e-05
6.49177e-11
7.76335e-05
-2.2665e-05
5.82172e-10
9.29492e-05
-3.14245e-05
6.27288e-10
0.00010149
-3.97767e-05
9.38705e-10
0.000103864
-4.69336e-05
2.00762e-09
0.00010023
-5.20301e-05
1.20852e-08
9.02402e-05
-5.39184e-05
2.8144e-08
7.29889e-05
-9.39073e-09
-5.1e-05
4.60883e-05
1.4255e-07
-1.42644e-07
-5.53357e-07
6.94177e-07
-2.06531e-06
1.50939e-06
-4.14835e-06
2.07977e-06
-6.57026e-06
2.41821e-06
-9.14024e-06
2.56611e-06
-1.17013e-05
2.55713e-06
-1.41172e-05
2.41222e-06
-1.62692e-05
2.14864e-06
1.79475e-06
-1.80668e-05
-7.24716e-07
5.83478e-07
-3.26538e-06
3.23444e-06
-7.40414e-06
5.64964e-06
-1.27225e-05
7.40047e-06
-1.87804e-05
8.4789e-06
-2.51677e-05
8.95647e-06
-3.15129e-05
8.90537e-06
-3.74808e-05
8.38297e-06
-4.27824e-05
7.4528e-06
6.22107e-06
-4.72066e-05
-1.6701e-06
2.25604e-06
-6.0325e-06
7.59461e-06
-1.24961e-05
1.21131e-05
-2.04754e-05
1.53799e-05
-2.93967e-05
1.74e-05
-3.87144e-05
1.82741e-05
-4.79132e-05
1.8104e-05
-5.65107e-05
1.69802e-05
-6.40812e-05
1.50231e-05
1.2451e-05
-7.03113e-05
-2.44015e-06
4.69977e-06
-8.33498e-06
1.34863e-05
-1.67164e-05
2.04945e-05
-2.68172e-05
2.54811e-05
-3.79542e-05
2.85369e-05
-4.94885e-05
2.98083e-05
-6.08023e-05
2.94176e-05
-7.1294e-05
2.74717e-05
-8.04081e-05
2.41367e-05
1.97578e-05
-8.77153e-05
-2.98031e-06
7.68444e-06
-9.98772e-06
2.04901e-05
-1.97631e-05
3.02703e-05
-3.13882e-05
3.71071e-05
-4.40951e-05
4.12444e-05
-5.71812e-05
4.28949e-05
-6.99537e-05
4.21906e-05
-8.17061e-05
3.92244e-05
-9.17383e-05
3.41686e-05
2.74703e-05
-9.94515e-05
-3.27005e-06
1.09592e-05
-1.08957e-05
2.81116e-05
-2.14535e-05
4.08286e-05
-3.39333e-05
4.9588e-05
-4.75179e-05
5.48298e-05
-6.14712e-05
5.6849e-05
-7.5055e-05
5.57752e-05
-8.74745e-05
5.16444e-05
-9.78621e-05
4.45557e-05
3.49492e-05
-0.000105343
-3.30259e-06
1.42666e-05
-1.10157e-05
3.58206e-05
-2.16869e-05
5.15004e-05
-3.42821e-05
6.21844e-05
-4.79742e-05
6.85229e-05
-6.20276e-05
7.09034e-05
-7.56983e-05
6.94469e-05
-8.81418e-05
6.40892e-05
-9.83256e-05
5.47388e-05
4.15577e-05
-0.000104938
-3.0855e-06
1.73564e-05
-1.03573e-05
4.30884e-05
-2.04543e-05
6.15979e-05
-3.23769e-05
7.41083e-05
-4.53162e-05
8.14631e-05
-5.85611e-05
8.41494e-05
-7.14035e-05
8.22904e-05
-8.30212e-05
7.57089e-05
-9.23008e-05
6.40164e-05
4.65605e-05
-9.73179e-05
-2.64905e-06
2.00091e-05
-9.00363e-06
4.94394e-05
-1.78833e-05
7.04779e-05
-2.83547e-05
8.45807e-05
-3.96242e-05
9.27335e-05
-5.09886e-05
9.55148e-05
-6.1775e-05
9.30783e-05
-7.12361e-05
8.51748e-05
-7.83938e-05
7.11756e-05
4.88811e-05
-8.07464e-05
-2.05521e-06
2.2067e-05
-7.1376e-06
5.45187e-05
-1.42955e-05
7.76359e-05
-2.26641e-05
9.29498e-05
-3.14198e-05
0.00010149
-3.97649e-05
0.000103861
-4.69052e-05
0.000100221
-5.1943e-05
9.02248e-05
-5.37798e-05
7.30405e-05
-5.1225e-05
4.6317e-05
-1.94694e-05
1.4005e-06
2.11811e-09
-2.04984e-05
1.02753e-06
1.47853e-09
-2.1216e-05
7.16559e-07
9.76278e-10
-2.16982e-05
4.81612e-07
6.14327e-10
-2.20173e-05
3.18748e-07
3.7532e-10
-2.22334e-05
2.15848e-07
2.31613e-10
-2.23931e-05
1.59562e-07
1.56904e-10
-2.2532e-05
1.38696e-07
1.31274e-10
-2.2677e-05
1.44926e-07
1.41259e-10
-2.28492e-05
1.71985e-07
1.78284e-10
-2.30635e-05
2.14086e-07
2.36573e-10
-2.33278e-05
2.63971e-07
3.10032e-10
-2.36389e-05
3.10763e-07
3.89433e-10
-2.39773e-05
3.37877e-07
4.59348e-10
-2.42993e-05
3.21543e-07
4.93927e-10
-2.45308e-05
2.31013e-07
4.51692e-10
-2.45637e-05
3.26401e-08
2.78855e-10
-2.42588e-05
-3.04827e-07
-5.83019e-11
-2.34683e-05
-7.89832e-07
-6.52049e-10
-1.39781e-06
-1.54504e-09
-2.2069e-05
-5.06668e-05
4.86258e-06
-1.90588e-09
-5.32225e-05
3.58474e-06
-1.58956e-09
-5.50254e-05
2.52072e-06
-1.2551e-09
-5.6257e-05
1.71421e-06
-9.56544e-10
-5.70879e-05
1.15041e-06
-7.12956e-10
-5.76598e-05
7.88286e-07
-5.33777e-10
-5.80827e-05
5.82798e-07
-4.18304e-10
-5.8439e-05
4.95433e-07
-3.58895e-10
-5.87902e-05
4.96387e-07
-3.44972e-10
-5.91798e-05
5.62022e-07
-3.64651e-10
-5.96353e-05
6.69992e-07
-4.03399e-10
-6.01642e-05
7.93261e-07
-4.4234e-10
-6.07467e-05
8.93752e-07
-4.55857e-10
-6.1325e-05
9.16521e-07
-4.09723e-10
-6.17894e-05
7.86206e-07
-2.62033e-10
-6.19672e-05
4.08864e-07
3.0286e-11
-6.16189e-05
-3.16198e-07
4.97214e-10
-6.04535e-05
-1.47131e-06
1.12631e-09
-5.81679e-05
-3.0774e-06
1.88069e-09
-5.04435e-06
2.58948e-09
-5.45239e-05
-7.50856e-05
9.63703e-06
-2.37677e-10
-7.85334e-05
7.03294e-06
-4.10956e-10
-8.09156e-05
4.90343e-06
-4.48915e-10
-8.25152e-05
3.31416e-06
-4.25719e-10
-8.35797e-05
2.21534e-06
-3.62992e-10
-8.43039e-05
1.51272e-06
-2.89416e-10
-8.48317e-05
1.11079e-06
-2.23091e-10
-8.52669e-05
9.30838e-07
-1.70817e-10
-8.56834e-05
9.12986e-07
-1.33068e-10
-8.61313e-05
1.0101e-06
-1.07255e-10
-8.66395e-05
1.1782e-06
-8.89598e-11
-8.72114e-05
1.36529e-06
-7.26114e-11
-8.78174e-05
1.49976e-06
-5.1502e-11
-8.83806e-05
1.47975e-06
-1.73229e-11
-8.87607e-05
1.1663e-06
4.08127e-11
-8.87376e-05
3.85579e-07
1.308e-10
-8.80029e-05
-1.0511e-06
2.46945e-10
-8.61724e-05
-3.30216e-06
3.8285e-10
-8.28331e-05
-6.41726e-06
5.21755e-10
-1.02346e-05
4.42974e-10
-7.76433e-05
-9.30709e-05
1.49929e-05
-3.71902e-10
-9.6737e-05
1.06997e-05
-5.99326e-10
-9.91365e-05
7.30356e-06
-5.93963e-10
-0.000100668
4.84615e-06
-5.27656e-10
-0.000101642
3.1899e-06
-4.19636e-10
-0.000102279
2.14991e-06
-3.10356e-10
-0.000102727
1.55937e-06
-2.19964e-10
-0.000103086
1.28998e-06
-1.51762e-10
-0.000103422
1.24882e-06
-1.0327e-10
-0.000103778
1.36566e-06
-7.0424e-11
-0.000104177
1.57718e-06
-4.89343e-11
-0.000104621
1.81012e-06
-3.50235e-11
-0.000105086
1.96405e-06
-2.52261e-11
-0.000105501
1.89481e-06
-1.38274e-11
-0.000105736
1.40151e-06
1.44342e-11
-0.000105574
2.23907e-07
7.42014e-11
-0.000104691
-1.9347e-06
1.40587e-10
-0.000102642
-5.35112e-06
2.66873e-10
-9.8899e-05
-1.01609e-05
5.08114e-10
-1.61758e-05
4.46659e-10
-9.29582e-05
-0.000104636
2.01781e-05
-1.01283e-09
-0.000107808
1.38731e-05
-1.13237e-09
-0.000109644
9.14076e-06
-9.14264e-10
-0.000110677
5.87898e-06
-7.1436e-10
-0.000111255
3.76884e-06
-5.02642e-10
-0.00011159
2.48518e-06
-3.30083e-10
-0.000111802
1.77121e-06
-2.10593e-10
-0.000111958
1.44674e-06
-1.33743e-10
-0.0001121
1.39044e-06
-8.75856e-11
-0.00011225
1.51645e-06
-6.27925e-11
-0.000112425
1.75144e-06
-5.30244e-11
-0.000112627
2.01262e-06
-5.42079e-11
-0.000112849
2.18556e-06
-6.34366e-11
-0.000113055
2.1011e-06
-7.41754e-11
-0.000113166
1.51312e-06
-5.87667e-11
-0.000113023
8.06775e-08
1.89108e-11
-0.000112342
-2.61601e-06
7.86458e-11
-0.000110658
-7.03575e-06
2.65652e-10
-0.000107304
-1.35157e-05
8.88263e-10
-2.1983e-05
1.26126e-09
-0.000101498
-0.00010952
2.43577e-05
-2.17323e-09
-0.000111427
1.57819e-05
-1.84463e-09
-0.000112132
9.84676e-06
-1.14937e-09
-0.000112294
6.0421e-06
-7.69148e-10
-0.00011225
3.72488e-06
-4.52358e-10
-0.000112145
2.38083e-06
-2.38526e-10
-0.000112033
1.65904e-06
-1.18095e-10
-0.000111925
1.33905e-06
-5.44553e-11
-0.00011182
1.28562e-06
-2.35256e-11
-0.000111715
1.41114e-06
-1.15734e-11
-0.00011161
1.64631e-06
-1.19804e-11
-0.000111512
1.91526e-06
-2.25817e-11
-0.000111438
2.11105e-06
-4.36164e-11
-0.000111405
2.06784e-06
-7.39592e-11
-0.000111419
1.52779e-06
-9.03459e-11
-0.000111439
1.00147e-07
-4.86034e-11
-0.000111298
-2.75628e-06
-2.03004e-11
-0.000110592
-7.74225e-06
1.53191e-10
-0.000108527
-1.55825e-05
1.52078e-09
-2.66466e-05
3.19008e-09
-0.000103866
-0.000107079
2.65042e-05
-5.79432e-09
-0.000106885
1.55914e-05
-3.8048e-09
-0.00010598
8.94344e-06
-1.74793e-09
-0.000105055
5.1188e-06
-9.10668e-10
-0.000104315
2.98465e-06
-3.86542e-10
-0.000103763
1.82947e-06
-1.1901e-10
-0.000103346
1.24142e-06
-1.41145e-11
-0.000103
9.93581e-07
2.02192e-11
-0.000102677
9.61897e-07
2.44365e-11
-0.00010234
1.07454e-06
1.50972e-11
-0.000101974
1.28033e-06
-2.46082e-12
-0.000101584
1.52563e-06
-2.80342e-11
-0.000101206
1.73241e-06
-6.2889e-11
-0.000100909
1.77098e-06
-1.10298e-10
-0.000100801
1.42053e-06
-1.49791e-10
-0.000101008
3.06763e-07
-8.72029e-11
-0.000101586
-2.17864e-06
9.31838e-11
-0.000102351
-6.97751e-06
4.68346e-10
-0.000102521
-1.54164e-05
3.65819e-09
-2.89546e-05
8.75953e-09
-0.000100221
-9.59693e-05
2.51654e-05
-9.85364e-09
-9.28814e-05
1.25075e-05
-3.97577e-09
-9.01931e-05
6.25596e-06
-7.96704e-10
-8.82888e-05
3.21476e-06
-3.06086e-10
-8.70308e-05
1.72658e-06
3.80601e-11
-8.62022e-05
1.0007e-06
1.59864e-10
-8.56217e-05
6.60851e-07
1.51016e-10
-8.51592e-05
5.30936e-07
1.23947e-10
-8.47254e-05
5.28012e-07
1.02577e-10
-8.42617e-05
6.10737e-07
8.77791e-11
-8.37353e-05
7.53821e-07
7.56399e-11
-8.31423e-05
9.32558e-07
5.99839e-11
-8.25189e-05
1.10901e-06
3.16476e-11
-8.19612e-05
1.21332e-06
-3.48799e-11
-8.16513e-05
1.11072e-06
-1.33943e-10
-8.18793e-05
5.34868e-07
-5.44871e-11
-8.3008e-05
-1.05004e-06
1.06797e-10
-8.53402e-05
-4.64488e-06
-4.50444e-10
-8.85462e-05
-1.22136e-05
3.24392e-09
-2.72957e-05
1.40185e-08
-9.02191e-05
-7.33584e-05
1.77898e-05
-1.2329e-08
-6.71897e-05
6.33331e-06
5.45024e-09
-6.33999e-05
2.46e-06
6.07356e-09
-6.12238e-05
1.03615e-06
2.57613e-09
-5.99768e-05
4.78259e-07
1.32569e-09
-5.92303e-05
2.5338e-07
8.00618e-10
-5.87349e-05
1.6495e-07
4.99072e-10
-5.83442e-05
1.39844e-07
3.74745e-10
-5.79675e-05
1.51003e-07
3.58475e-10
-5.75454e-05
1.88258e-07
4.03278e-10
-5.70394e-05
2.47339e-07
4.84624e-10
-5.64324e-05
3.249e-07
5.81381e-10
-5.57387e-05
4.1472e-07
6.56815e-10
-5.50278e-05
5.01789e-07
6.1607e-10
-5.44664e-05
5.48992e-07
3.36492e-10
-5.44011e-05
4.69633e-07
-1.25031e-10
-5.5398e-05
-5.13936e-08
-1.68996e-09
-5.84692e-05
-1.56619e-06
-7.52128e-09
-6.46774e-05
-5.99524e-06
-1.01315e-08
-1.89609e-05
1.52544e-08
-7.30275e-05
-3.33671e-05
-6.81234e-08
-2.70223e-05
-1.14482e-08
-2.45616e-05
-7.91517e-10
-2.35236e-05
-1.84156e-09
-2.30441e-05
-1.19329e-09
-2.27902e-05
-5.55656e-10
-2.26249e-05
-3.118e-10
-2.24848e-05
-2.1928e-10
-2.23337e-05
-1.92903e-10
-2.21452e-05
-2.11459e-10
-2.18976e-05
-2.6179e-10
-2.15724e-05
-3.30996e-10
-2.11572e-05
-4.00496e-10
-2.0655e-05
-4.37379e-10
-2.01057e-05
-3.264e-10
-1.96363e-05
2.50684e-10
-1.96885e-05
8.40212e-10
-2.12523e-05
-2.46441e-09
-2.72526e-05
5.05141e-09
8.56735e-08
-4.62991e-05
-1.947e-05
1.40472e-06
6.80381e-13
-2.04989e-05
1.03037e-06
5.00105e-13
-2.12163e-05
7.18391e-07
4.83913e-13
-2.16984e-05
4.82732e-07
4.96196e-13
-2.20175e-05
3.19414e-07
4.00668e-13
-2.22335e-05
2.16258e-07
2.3863e-13
-2.23932e-05
1.59854e-07
9.14489e-14
-2.2532e-05
1.38965e-07
-7.58773e-14
-2.26771e-05
1.45239e-07
-2.43254e-13
-2.28493e-05
1.72389e-07
-2.90712e-13
-2.30637e-05
2.14613e-07
-3.39131e-13
-2.3328e-05
2.6464e-07
-3.90692e-13
-2.36392e-05
3.11567e-07
-3.45318e-13
-2.39775e-05
3.38773e-07
-1.80946e-13
-2.42995e-05
3.22446e-07
3.86005e-14
-2.45308e-05
2.31779e-07
3.028e-13
-2.45634e-05
3.28731e-08
5.45408e-13
-2.42584e-05
-3.0507e-07
7.60015e-13
-2.34679e-05
-7.91137e-07
9.67522e-13
-1.40078e-06
1.19237e-12
-2.20687e-05
-5.06643e-05
4.86282e-06
7.56535e-13
-5.32199e-05
3.58439e-06
5.77178e-13
-5.50231e-05
2.52027e-06
5.59547e-13
-5.62551e-05
1.71382e-06
6.02296e-13
-5.70865e-05
1.15012e-06
5.04008e-13
-5.76589e-05
7.88097e-07
2.85695e-13
-5.80821e-05
5.82682e-07
8.00524e-14
-5.84389e-05
4.95352e-07
-6.58927e-14
-5.87903e-05
4.96306e-07
-2.09172e-13
-5.91802e-05
5.61904e-07
-2.86694e-13
-5.96358e-05
6.698e-07
-3.44633e-13
-6.01645e-05
7.92961e-07
-3.43841e-13
-6.07467e-05
8.93319e-07
-2.08978e-13
-6.13244e-05
9.15968e-07
5.00947e-14
-6.17878e-05
7.8561e-07
3.64863e-13
-6.19644e-05
4.08392e-07
6.4724e-13
-6.16147e-05
-3.16308e-07
8.36496e-13
-6.04481e-05
-1.47055e-06
9.76903e-13
-5.81619e-05
-3.07546e-06
1.10568e-12
-5.0419e-06
1.24225e-12
-5.45182e-05
-7.50848e-05
9.63611e-06
7.46122e-13
-7.85319e-05
7.0311e-06
5.39663e-13
-8.09139e-05
4.90181e-06
4.93382e-13
-8.25135e-05
3.31297e-06
5.78246e-13
-8.35783e-05
2.21457e-06
5.59083e-13
-8.43028e-05
1.51228e-06
3.8821e-13
-8.48309e-05
1.11056e-06
2.24099e-13
-8.52665e-05
9.30721e-07
6.63165e-14
-8.56832e-05
9.12891e-07
-5.17952e-14
-8.61313e-05
1.00996e-06
-9.85065e-14
-8.66396e-05
1.17794e-06
-1.24687e-13
-8.72115e-05
1.36484e-06
-1.28318e-13
-8.78173e-05
1.49907e-06
-5.53998e-14
-8.83802e-05
1.47882e-06
8.60291e-14
-8.87598e-05
1.16523e-06
1.80744e-13
-8.87359e-05
3.84635e-07
1.98379e-13
-8.80004e-05
-1.05154e-06
2.05463e-13
-8.61693e-05
-3.30127e-06
2.1582e-13
-8.283e-05
-6.41422e-06
2.91565e-13
-1.02306e-05
4.60393e-13
-7.76409e-05
-9.30706e-05
1.49897e-05
8.6878e-13
-9.67354e-05
1.06953e-05
5.77811e-13
-9.91345e-05
7.30031e-06
3.69231e-13
-0.000100666
4.84397e-06
3.48306e-13
-0.00010164
3.18861e-06
3.45238e-13
-0.000102278
2.14925e-06
2.0823e-13
-0.000102726
1.55907e-06
5.7111e-14
-0.000103086
1.28987e-06
-7.23257e-14
-0.000103422
1.24877e-06
-6.71874e-14
-0.000103777
1.36556e-06
1.18131e-14
-0.000104176
1.57695e-06
7.82479e-14
-0.000104621
1.80967e-06
1.10373e-13
-0.000105086
1.9633e-06
1.33662e-13
-0.000105501
1.8937e-06
1.19828e-13
-0.000105735
1.40014e-06
3.48396e-14
-0.000105573
2.22694e-07
-7.99355e-14
-0.000104689
-1.9356e-06
-2.02805e-13
-0.00010264
-5.35033e-06
-1.71671e-13
-9.88971e-05
-1.01565e-05
3.62513e-15
-1.61698e-05
2.98e-13
-9.29575e-05
-0.000104635
2.01696e-05
1.05815e-12
-0.000107805
1.38645e-05
7.51788e-13
-0.000109641
9.13549e-06
4.24816e-13
-0.000110674
5.87588e-06
2.6381e-13
-0.000111253
3.76722e-06
2.32596e-13
-0.000111589
2.48446e-06
1.02891e-13
-0.000111801
1.77095e-06
-9.03499e-14
-0.000111958
1.44668e-06
-3.08477e-13
-0.000112099
1.39044e-06
-3.13882e-13
-0.00011225
1.51639e-06
-8.6402e-14
-0.000112425
1.75123e-06
7.791e-14
-0.000112627
2.01217e-06
1.22253e-13
-0.000112849
2.18474e-06
4.4345e-14
-0.000113055
2.09981e-06
-1.21162e-13
-0.000113166
1.51135e-06
-3.03364e-13
-0.000113023
7.93394e-08
-3.84325e-13
-0.000112341
-2.61771e-06
-2.84191e-13
-0.000110655
-7.03546e-06
3.04061e-14
-0.000107302
-1.3509e-05
4.37901e-13
-2.19721e-05
8.39412e-13
-0.000101498
-0.000109517
2.43377e-05
1.20425e-12
-0.000111421
1.57668e-05
9.67904e-13
-0.000112127
9.84003e-06
6.26501e-13
-0.000112291
6.03895e-06
3.75179e-13
-0.000112248
3.72359e-06
4.03616e-13
-0.000112144
2.38045e-06
3.82499e-13
-0.000112032
1.65903e-06
1.72479e-13
-0.000111925
1.33915e-06
-1.66271e-13
-0.00011182
1.28571e-06
-2.70375e-13
-0.000111715
1.41116e-06
-8.11085e-14
-0.00011161
1.64617e-06
9.10717e-14
-0.000111512
1.91488e-06
4.83731e-14
-0.000111438
2.11029e-06
-2.13915e-13
-0.000111405
2.06652e-06
-5.76211e-13
-0.000111419
1.52578e-06
-8.3531e-13
-0.000111438
9.84618e-08
-8.07835e-13
-0.000111297
-2.75918e-06
-4.8633e-13
-0.000110589
-7.74342e-06
4.46586e-15
-0.000108524
-1.55724e-05
3.2481e-13
-2.6624e-05
3.74753e-13
-0.000103869
-0.000107072
2.64571e-05
9.46617e-13
-0.000106875
1.5566e-05
7.31367e-13
-0.000105973
8.93672e-06
5.23778e-13
-0.000105052
5.11696e-06
3.46074e-13
-0.000104313
2.9844e-06
4.99892e-13
-0.000103763
1.82975e-06
6.82552e-13
-0.000103345
1.24174e-06
5.75712e-13
-0.000103
9.93818e-07
2.11655e-13
-0.000102676
9.62035e-07
2.3346e-14
-0.00010234
1.07457e-06
1.07692e-13
-0.000101974
1.2802e-06
1.7819e-13
-0.000101584
1.52528e-06
1.45145e-14
-0.000101206
1.73169e-06
-3.69384e-13
-0.000100909
1.76966e-06
-7.55103e-13
-0.000100802
1.4184e-06
-8.88761e-13
-0.000101008
3.04291e-07
-6.65667e-13
-0.000101584
-2.18259e-06
-2.68118e-13
-0.000102347
-6.98047e-06
-8.48681e-14
-0.000102516
-1.53992e-05
-2.95594e-13
-2.89008e-05
-7.36341e-13
-0.000100231
-9.59552e-05
2.50758e-05
6.43185e-13
-9.28713e-05
1.24781e-05
3.89012e-13
-9.01898e-05
6.25447e-06
1.55445e-13
-8.82886e-05
3.21545e-06
-1.56784e-13
-8.70314e-05
1.7272e-06
-5.49298e-14
-8.62027e-05
1.00124e-06
3.27314e-13
-8.5622e-05
6.61191e-07
3.73602e-13
-8.51592e-05
5.31122e-07
1.48839e-13
-8.47252e-05
5.28102e-07
2.62845e-14
-8.42613e-05
6.10756e-07
5.62668e-14
-8.37348e-05
7.53763e-07
2.19467e-14
-8.31418e-05
9.32389e-07
-2.26192e-13
-8.25187e-05
1.10865e-06
-5.94138e-13
-8.19617e-05
1.21258e-06
-7.90175e-13
-8.16527e-05
1.1093e-06
-6.33059e-13
-8.18812e-05
5.32743e-07
-2.85523e-13
-8.30115e-05
-1.05224e-06
-1.2852e-13
-8.53426e-05
-4.64976e-06
-2.38703e-13
-8.85438e-05
-1.21948e-05
-7.99881e-13
-2.71961e-05
-1.56569e-12
-9.02345e-05
-7.33405e-05
1.77107e-05
7.0905e-13
-6.71974e-05
6.34042e-06
3.96379e-13
-6.34085e-05
2.47169e-06
3.48573e-13
-6.12302e-05
1.03966e-06
1.69253e-13
-5.99806e-05
4.78921e-07
-4.06721e-14
-5.92321e-05
2.53589e-07
2.75744e-14
-5.87355e-05
1.65123e-07
4.75864e-14
-5.83441e-05
1.40068e-07
-4.30542e-14
-5.7967e-05
1.51329e-07
-7.92499e-14
-5.75446e-05
1.88737e-07
-8.56809e-14
-5.70383e-05
2.48032e-07
-1.96883e-13
-5.64312e-05
3.25883e-07
-5.08045e-13
-5.5738e-05
4.16084e-07
-7.49228e-13
-5.50285e-05
5.03652e-07
-7.08742e-13
-5.44702e-05
5.51324e-07
-3.39228e-13
-5.44074e-05
4.69886e-07
-2.73606e-13
-5.54126e-05
-4.87266e-08
-5.56933e-13
-5.84949e-05
-1.57501e-06
-9.95343e-13
-6.46926e-05
-6.00722e-06
-1.89072e-12
-1.88974e-05
-2.31369e-12
-7.2976e-05
-3.33575e-05
5.38984e-13
-2.70285e-05
2.20611e-13
-2.45576e-05
-1.03621e-13
-2.35198e-05
1.1866e-14
-2.30421e-05
2.0315e-13
-2.27891e-05
2.33874e-13
-2.26242e-05
1.27582e-13
-2.24844e-05
1.92725e-14
-2.23333e-05
-1.42602e-14
-2.21447e-05
-5.59365e-14
-2.1897e-05
-2.33257e-13
-2.15714e-05
-4.72134e-13
-2.11557e-05
-5.33797e-13
-2.06525e-05
-2.91921e-13
-2.01015e-05
-1.45138e-13
-1.96314e-05
-3.25019e-13
-1.96793e-05
-9.43229e-13
-2.12567e-05
-2.04323e-12
-2.72589e-05
-2.36149e-12
-2.75083e-12
-4.60707e-05
-1.947e-05
1.40472e-06
-2.11754e-09
-2.04989e-05
1.03037e-06
-1.47818e-09
-2.12163e-05
7.18391e-07
-9.75907e-10
-2.16984e-05
4.82732e-07
-6.13885e-10
-2.20175e-05
3.19414e-07
-3.74911e-10
-2.22335e-05
2.16258e-07
-2.31343e-10
-2.23932e-05
1.59854e-07
-1.56793e-10
-2.2532e-05
1.38965e-07
-1.31334e-10
-2.26771e-05
1.45239e-07
-1.41461e-10
-2.28493e-05
1.72388e-07
-1.78739e-10
-2.30637e-05
2.14613e-07
-2.37268e-10
-2.3328e-05
2.6464e-07
-3.10808e-10
-2.36392e-05
3.11566e-07
-3.90099e-10
-2.39775e-05
3.38773e-07
-4.59712e-10
-2.42995e-05
3.22445e-07
-4.93868e-10
-2.45308e-05
2.3178e-07
-4.51108e-10
-2.45634e-05
3.28737e-08
-2.77699e-10
-2.42584e-05
-3.05069e-07
6.003e-11
-2.34679e-05
-7.91135e-07
6.54342e-10
-1.40078e-06
1.54787e-09
-2.20687e-05
-5.06643e-05
4.86282e-06
1.90696e-09
-5.32199e-05
3.58439e-06
1.59041e-09
-5.5023e-05
2.52027e-06
1.25594e-09
-5.62551e-05
1.71382e-06
9.57471e-10
-5.70865e-05
1.15012e-06
7.13885e-10
-5.76589e-05
7.88097e-07
5.34523e-10
-5.80821e-05
5.82681e-07
4.18762e-10
-5.84389e-05
4.95351e-07
3.58994e-10
-5.87903e-05
4.96305e-07
3.44813e-10
-5.91801e-05