/*--------------------------------*- C++ -*----------------------------------*\
| =========                 |                                                 |
| \\      /  F ield         | OpenFOAM: The Open Source CFD Toolbox           |
|  \\    /   O peration     | Version:  2.4.0                                 |
|   \\  /    A nd           | Web:      www.OpenFOAM.org                      |
|    \\/     M anipulation  |                                                 |
\*---------------------------------------------------------------------------*/
FoamFile
{
    version     2.0;
    format      ascii;
    class       volVectorField;
    location    "2.2";
    object      U;
}
// * * * * * * * * * * * * * * * * * * * * * * * * * * * * * * * * * * * * * //

dimensions      [0 1 -1 0 0 0 0];

internalField   nonuniform List<vector> 
4800
(
(0.000295797 -0.000298913 2.24348e-07)
(-6.17335e-06 0.0001642 0.000214087)
(-0.00185807 0.000663357 0.000434579)
(-0.00481568 0.000998983 0.000594784)
(-0.00848957 0.00118851 0.000651613)
(-0.0125446 0.00126942 0.000585168)
(-0.016703 0.00126877 0.000389458)
(-0.0207314 0.00120014 6.52311e-05)
(-0.0244236 0.00107083 -0.000381261)
(-0.0276062 0.000892815 -0.000936955)
(-0.000188926 5.87458e-06 -0.000212977)
(-0.00247424 0.00238784 5.30256e-06)
(-0.00798516 0.00469556 0.000168222)
(-0.0157381 0.00635304 0.000261685)
(-0.0250008 0.00735983 0.000267995)
(-0.0351079 0.00780894 0.000171518)
(-0.0454324 0.00778562 -3.41956e-05)
(-0.0554059 0.00734886 -0.000351232)
(-0.0645205 0.00655335 -0.000777939)
(-0.0723589 0.00548742 -0.00130747)
(-0.000772947 0.00198196 -0.000438518)
(-0.00514458 0.00801302 -0.000150915)
(-0.0140725 0.0133546 1.27908e-05)
(-0.0258982 0.0172494 8.50892e-05)
(-0.0396379 0.0196661 7.43259e-05)
(-0.0544393 0.0207362 -2.82968e-05)
(-0.0694532 0.0206003 -0.000226925)
(-0.0838739 0.0193789 -0.000525076)
(-0.0969588 0.0172167 -0.000925435)
(-0.108084 0.0143598 -0.00142718)
(-0.00123697 0.0053456 -0.000588071)
(-0.00735556 0.01637 -0.000216489)
(-0.019153 0.0254501 -2.9522e-05)
(-0.0342844 0.0319855 4.47276e-05)
(-0.0515349 0.0360214 3.60092e-05)
(-0.0699235 0.0377462 -5.86677e-05)
(-0.0884506 0.0373421 -0.000241808)
(-0.106132 0.0349748 -0.000519451)
(-0.122022 0.0308811 -0.00090034)
(-0.135274 0.0255065 -0.00139207)
(-0.00155224 0.00976618 -0.000588959)
(-0.00892403 0.0268561 -0.000144697)
(-0.022817 0.0401918 6.69253e-05)
(-0.0403422 0.0496078 0.00015315)
(-0.0600978 0.0553489 0.000159195)
(-0.0810133 0.0576948 8.54515e-05)
(-0.101987 0.0568537 -7.14276e-05)
(-0.121898 0.0529997 -0.000322803)
(-0.139601 0.0464248 -0.00068721)
(-0.153961 0.0377738 -0.00118734)
(-0.00171491 0.0148588 -0.000393619)
(-0.00977221 0.0387471 0.000104708)
(-0.0248404 0.0567027 0.000336644)
(-0.0437118 0.0691611 0.000441818)
(-0.064871 0.0766586 0.000474584)
(-0.0871999 0.0795973 0.000436083)
(-0.109544 0.078192 0.000318981)
(-0.130692 0.072566 0.000102815)
(-0.149316 0.0629776 -0.000246207)
(-0.163868 0.0501846 -0.000780474)
(-0.00172653 0.0202106 2.05222e-05)
(-0.0098713 0.0512103 0.000551566)
(-0.0251139 0.0739471 0.000796407)
(-0.0441793 0.0895162 0.000925456)
(-0.0655218 0.0987914 0.000996424)
(-0.088021 0.102317 0.00100921)
(-0.110526 0.100296 0.000949582)
(-0.131808 0.0927228 0.000784199)
(-0.150441 0.0796642 0.000458253)
(-0.164323 0.0617225 -0.000140456)
(-0.00159464 0.0254088 0.000653333)
(-0.00924004 0.0633822 0.00119592)
(-0.023647 0.0908205 0.0014451)
(-0.0417045 0.109437 0.0016015)
(-0.0619036 0.12044 0.00172157)
(-0.0831479 0.124529 0.00180343)
(-0.104331 0.121893 0.00182458)
(-0.124302 0.112336 0.00173681)
(-0.141766 0.0955194 0.00146352)
(-0.154027 0.0712869 0.000777704)
(-0.00133894 0.0300685 0.0014829)
(-0.00796582 0.074438 0.00201861)
(-0.0206157 0.106231 0.00226343)
(-0.0365166 0.127641 0.00244848)
(-0.0542212 0.140163 0.00262574)
(-0.0726285 0.144662 0.00279291)
(-0.0906424 0.14136 0.00292003)
(-0.107204 0.129911 0.00294328)
(-0.121529 0.10952 0.00277576)
(-0.130757 0.0784323 0.00198802)
(-0.000997498 0.0338764 0.00246792)
(-0.00622818 0.0836851 0.00298368)
(-0.0164202 0.119215 0.00321573)
(-0.0292414 0.142922 0.00342683)
(-0.0432788 0.156467 0.00366348)
(-0.0573127 0.160844 0.00392786)
(-0.0700411 0.156358 0.00419205)
(-0.0801142 0.142644 0.00438859)
(-0.0872445 0.118757 0.00448636)
(-0.0904049 0.0819487 0.00387094)
(0.00030062 -0.000303466 9.36714e-08)
(7.36379e-07 0.000158338 1.36945e-06)
(-0.00185443 0.000649511 2.0135e-06)
(-0.00481314 0.000979505 2.56577e-06)
(-0.00848813 0.00116595 2.89285e-06)
(-0.0125441 0.00124538 3.02481e-06)
(-0.0167033 0.0012447 3.02769e-06)
(-0.0207325 0.00117737 2.90444e-06)
(-0.0244258 0.00105045 2.63412e-06)
(-0.0276095 0.000875456 2.19841e-06)
(-0.000181702 -1.4712e-06 -1.07656e-06)
(-0.00247133 0.0023858 3.30525e-07)
(-0.0079926 0.00468447 -1.14504e-06)
(-0.0157427 0.00633693 -1.82273e-06)
(-0.0250031 0.00734196 -2.16127e-06)
(-0.0351086 0.00779026 -2.37395e-06)
(-0.0454314 0.00776709 -2.38186e-06)
(-0.0554039 0.0073315 -2.21449e-06)
(-0.0645185 0.00653801 -1.9423e-06)
(-0.0723578 0.00547418 -1.67564e-06)
(-0.000757194 0.00197646 -1.90133e-06)
(-0.0051335 0.00801946 1.75344e-06)
(-0.0140794 0.0133578 9.60574e-08)
(-0.0259003 0.0172526 -6.00888e-08)
(-0.0396379 0.0196713 1.00213e-07)
(-0.0544391 0.0207424 9.26878e-08)
(-0.0694524 0.0206069 9.91543e-08)
(-0.0838727 0.0193857 1.42196e-07)
(-0.0969586 0.0172236 1.92623e-07)
(-0.108086 0.0143655 1.17314e-07)
(-0.00121442 0.00534087 -2.76898e-06)
(-0.00733948 0.016374 2.44579e-06)
(-0.0191619 0.0254492 3.67822e-09)
(-0.0342862 0.031983 -2.01726e-07)
(-0.0515338 0.0360193 7.96227e-08)
(-0.0699227 0.0377445 1.11622e-07)
(-0.0884492 0.0373408 1.41034e-07)
(-0.10613 0.0349746 2.20346e-07)
(-0.122021 0.030883 3.70705e-07)
(-0.135278 0.0255086 3.24801e-07)
(-0.00152529 0.00976321 -3.38224e-06)
(-0.00890581 0.0268583 2.85914e-06)
(-0.0228293 0.0401899 -3.14785e-07)
(-0.0403451 0.0496038 -6.91093e-07)
(-0.0600969 0.0553444 -4.10769e-07)
(-0.0810121 0.0576903 -3.90637e-07)
(-0.101985 0.0568494 -3.47639e-07)
(-0.121894 0.0529966 -1.98666e-07)
(-0.139598 0.0464261 2.41142e-07)
(-0.153968 0.0377772 4.569e-07)
(-0.00168554 0.0148579 -3.68096e-06)
(-0.00975301 0.0387483 3.15425e-06)
(-0.0248549 0.0567017 -4.14997e-07)
(-0.0437158 0.0691587 -8.80056e-07)
(-0.0648704 0.0766556 -6.04037e-07)
(-0.0871989 0.0795938 -5.99023e-07)
(-0.109542 0.078188 -5.85042e-07)
(-0.130685 0.0725625 -4.67189e-07)
(-0.14931 0.062982 4.09409e-07)
(-0.163882 0.0501963 1.25577e-06)
(-0.00169689 0.0202118 -3.68536e-06)
(-0.00985237 0.0512105 3.22911e-06)
(-0.0251295 0.0739469 -4.44306e-07)
(-0.0441841 0.0895154 -9.62666e-07)
(-0.0655219 0.0987898 -7.28972e-07)
(-0.0880208 0.102315 -7.56553e-07)
(-0.110524 0.100292 -8.39178e-07)
(-0.131795 0.092718 -1.00828e-06)
(-0.150423 0.0796747 5.3607e-07)
(-0.164352 0.0617602 3.17449e-06)
(-0.00156684 0.025412 -3.39538e-06)
(-0.00922263 0.0633815 3.09471e-06)
(-0.0236624 0.0908213 -4.06043e-07)
(-0.0417098 0.109438 -9.37151e-07)
(-0.0619043 0.12044 -7.64047e-07)
(-0.0831488 0.124528 -7.78242e-07)
(-0.10433 0.121888 -8.81617e-07)
(-0.12428 0.11232 -1.56792e-06)
(-0.141715 0.0955152 1.564e-06)
(-0.154074 0.0713468 1.10654e-05)
(-0.00131477 0.0300734 -2.83207e-06)
(-0.00795089 0.0744369 2.8015e-06)
(-0.0206296 0.106233 -2.81481e-07)
(-0.0365222 0.127645 -7.87661e-07)
(-0.0542232 0.140166 -7.25603e-07)
(-0.0726331 0.144665 -7.94142e-07)
(-0.0906533 0.141357 -1.07573e-06)
(-0.107187 0.129877 -3.74066e-06)
(-0.121425 0.109445 -1.08763e-06)
(-0.130805 0.0784017 2.48386e-05)
(-0.000978137 0.0338823 -2.05836e-06)
(-0.00621613 0.0836837 2.41915e-06)
(-0.0164312 0.119219 -4.67376e-08)
(-0.0292455 0.14293 -4.49466e-07)
(-0.0432802 0.156479 -4.84512e-07)
(-0.0573195 0.160866 -7.26889e-07)
(-0.070074 0.1564 -1.55891e-06)
(-0.0801552 0.142708 -9.39786e-06)
(-0.087157 0.118819 -2.18883e-05)
(-0.090483 0.0820652 7.30535e-06)
(0.000300596 -0.00030349 -6.92722e-08)
(6.99237e-07 0.000158329 -1.34437e-06)
(-0.00185445 0.000649508 -1.9885e-06)
(-0.00481314 0.000979503 -2.5466e-06)
(-0.00848813 0.00116595 -2.87956e-06)
(-0.0125441 0.00124537 -3.0163e-06)
(-0.0167032 0.0012447 -3.02284e-06)
(-0.0207324 0.00117737 -2.90072e-06)
(-0.0244258 0.00105045 -2.63083e-06)
(-0.0276095 0.000875456 -2.196e-06)
(-0.000181711 -1.50756e-06 1.1032e-06)
(-0.00247134 0.00238579 -3.03061e-07)
(-0.00799261 0.00468446 1.17079e-06)
(-0.0157427 0.00633692 1.84193e-06)
(-0.0250031 0.00734195 2.17491e-06)
(-0.0351086 0.00779026 2.38335e-06)
(-0.0454314 0.00776708 2.38794e-06)
(-0.0554038 0.0073315 2.21918e-06)
(-0.0645185 0.00653801 1.94614e-06)
(-0.0723577 0.00547418 1.67845e-06)
(-0.000757196 0.00197644 1.92874e-06)
(-0.0051335 0.00801944 -1.72725e-06)
(-0.0140794 0.0133578 -7.44912e-08)
(-0.0259003 0.0172526 7.5816e-08)
(-0.0396379 0.0196713 -8.81121e-08)
(-0.0544391 0.0207424 -8.39069e-08)
(-0.0694524 0.0206069 -9.37421e-08)
(-0.0838727 0.0193857 -1.38244e-07)
(-0.0969585 0.0172236 -1.89217e-07)
(-0.108086 0.0143655 -1.14613e-07)
(-0.00121442 0.00534085 2.79195e-06)
(-0.00733948 0.0163739 -2.42496e-06)
(-0.0191619 0.0254492 1.36693e-08)
(-0.0342861 0.0319829 2.15009e-07)
(-0.0515338 0.0360193 -6.85768e-08)
(-0.0699226 0.0377445 -1.0343e-07)
(-0.0884491 0.0373408 -1.3609e-07)
(-0.10613 0.0349746 -2.16623e-07)
(-0.122021 0.030883 -3.67178e-07)
(-0.135278 0.0255086 -3.21708e-07)
(-0.00152529 0.00976319 3.39892e-06)
(-0.0089058 0.0268583 -2.84371e-06)
(-0.0228293 0.0401898 3.28126e-07)
(-0.0403451 0.0496037 7.01507e-07)
(-0.0600968 0.0553444 4.19669e-07)
(-0.0810121 0.0576903 3.97206e-07)
(-0.101985 0.0568493 3.51507e-07)
(-0.121894 0.0529965 2.01866e-07)
(-0.139598 0.0464261 -2.37646e-07)
(-0.153968 0.0377772 -4.5351e-07)
(-0.00168554 0.0148579 3.69391e-06)
(-0.009753 0.0387483 -3.14198e-06)
(-0.0248549 0.0567016 4.25963e-07)
(-0.0437157 0.0691586 8.88742e-07)
(-0.0648703 0.0766555 6.11581e-07)
(-0.0871988 0.0795937 6.04798e-07)
(-0.109541 0.0781879 5.88866e-07)
(-0.130685 0.0725625 4.7078e-07)
(-0.14931 0.062982 -4.05487e-07)
(-0.163882 0.0501963 -1.25209e-06)
(-0.00169689 0.0202118 3.69684e-06)
(-0.00985236 0.0512104 -3.21853e-06)
(-0.0251294 0.0739468 4.54017e-07)
(-0.0441841 0.0895153 9.70531e-07)
(-0.0655218 0.0987897 7.36033e-07)
(-0.0880208 0.102315 7.62451e-07)
(-0.110523 0.100292 8.43798e-07)
(-0.131795 0.092718 1.01269e-06)
(-0.150423 0.0796747 -5.31784e-07)
(-0.164352 0.0617602 -3.17095e-06)
(-0.00156684 0.025412 3.40485e-06)
(-0.00922262 0.0633815 -3.08622e-06)
(-0.0236624 0.0908213 4.13939e-07)
(-0.0417098 0.109438 9.43635e-07)
(-0.0619043 0.12044 7.70101e-07)
(-0.0831488 0.124528 7.83755e-07)
(-0.10433 0.121888 8.86423e-07)
(-0.12428 0.11232 1.57235e-06)
(-0.141715 0.0955151 -1.56017e-06)
(-0.154073 0.0713468 -1.10627e-05)
(-0.00131476 0.0300733 2.83947e-06)
(-0.00795088 0.0744368 -2.79485e-06)
(-0.0206296 0.106233 2.87672e-07)
(-0.0365221 0.127645 7.92892e-07)
(-0.0542232 0.140166 7.30701e-07)
(-0.072633 0.144665 7.99122e-07)
(-0.0906533 0.141357 1.08024e-06)
(-0.107187 0.129877 3.74434e-06)
(-0.121425 0.109445 1.09024e-06)
(-0.130805 0.0784017 -2.48367e-05)
(-0.000978135 0.0338823 2.06441e-06)
(-0.00621613 0.0836837 -2.41358e-06)
(-0.0164312 0.119219 5.19657e-08)
(-0.0292455 0.142929 4.54203e-07)
(-0.0432802 0.156479 4.89305e-07)
(-0.0573195 0.160866 7.31595e-07)
(-0.070074 0.1564 1.56297e-06)
(-0.0801552 0.142708 9.40079e-06)
(-0.087157 0.118819 2.18904e-05)
(-0.090483 0.0820652 -7.30336e-06)
(0.0002957 -0.000299007 -2.49999e-07)
(-6.31489e-06 0.000164171 -0.000214113)
(-0.00185812 0.000663348 -0.000434605)
(-0.00481571 0.00099898 -0.000594805)
(-0.00848957 0.00118851 -0.000651627)
(-0.0125446 0.00126942 -0.000585177)
(-0.016703 0.00126877 -0.000389463)
(-0.0207313 0.00120014 -6.5235e-05)
(-0.0244235 0.00107083 0.000381258)
(-0.0276062 0.000892814 0.000936952)
(-0.000188955 5.73575e-06 0.000212949)
(-0.00247429 0.00238779 -5.33159e-06)
(-0.00798517 0.00469554 -0.000168249)
(-0.0157381 0.00635303 -0.000261705)
(-0.0250008 0.00735982 -0.00026801)
(-0.0351079 0.00780893 -0.000171528)
(-0.0454323 0.00778561 3.41891e-05)
(-0.0554058 0.00734886 0.000351227)
(-0.0645204 0.00655334 0.000777935)
(-0.0723588 0.00548742 0.00130747)
(-0.000772953 0.0019819 0.000438489)
(-0.00514459 0.00801298 0.000150887)
(-0.0140725 0.0133546 -1.28136e-05)
(-0.0258981 0.0172493 -8.51058e-05)
(-0.0396378 0.0196661 -7.43387e-05)
(-0.0544392 0.0207361 2.82875e-05)
(-0.0694531 0.0206003 0.000226919)
(-0.0838738 0.0193789 0.000525072)
(-0.0969586 0.0172167 0.000925431)
(-0.108084 0.0143598 0.00142718)
(-0.00123697 0.00534557 0.000588046)
(-0.00735555 0.01637 0.000216467)
(-0.0191529 0.02545 2.95036e-05)
(-0.0342843 0.0319854 -4.47417e-05)
(-0.0515348 0.0360214 -3.60209e-05)
(-0.0699234 0.0377462 5.8659e-05)
(-0.0884504 0.037342 0.000241803)
(-0.106132 0.0349748 0.000519447)
(-0.122021 0.0308811 0.000900336)
(-0.135274 0.0255064 0.00139207)
(-0.00155224 0.00976615 0.000588941)
(-0.00892401 0.026856 0.000144681)
(-0.022817 0.0401918 -6.69394e-05)
(-0.0403421 0.0496077 -0.000153161)
(-0.0600977 0.0553488 -0.000159205)
(-0.0810131 0.0576947 -8.54585e-05)
(-0.101987 0.0568537 7.14235e-05)
(-0.121898 0.0529996 0.000322799)
(-0.139601 0.0464248 0.000687206)
(-0.15396 0.0377737 0.00118733)
(-0.0017149 0.0148587 0.000393605)
(-0.00977219 0.038747 -0.000104721)
(-0.0248404 0.0567026 -0.000336656)
(-0.0437117 0.069161 -0.000441827)
(-0.0648709 0.0766585 -0.000474592)
(-0.0871997 0.0795972 -0.00043609)
(-0.109544 0.078192 -0.000318985)
(-0.130692 0.072566 -0.000102819)
(-0.149316 0.0629775 0.000246203)
(-0.163868 0.0501846 0.000780471)
(-0.00172652 0.0202106 -2.05343e-05)
(-0.00987127 0.0512102 -0.000551577)
(-0.0251139 0.073947 -0.000796417)
(-0.0441792 0.0895161 -0.000925464)
(-0.0655217 0.0987913 -0.000996431)
(-0.0880209 0.102317 -0.00100921)
(-0.110526 0.100296 -0.000949586)
(-0.131808 0.0927227 -0.000784203)
(-0.150441 0.0796642 -0.000458258)
(-0.164322 0.0617225 0.000140452)
(-0.00159463 0.0254087 -0.000653343)
(-0.00924002 0.0633821 -0.00119593)
(-0.023647 0.0908204 -0.0014451)
(-0.0417044 0.109437 -0.00160151)
(-0.0619035 0.120439 -0.00172158)
(-0.0831478 0.124529 -0.00180344)
(-0.104331 0.121893 -0.00182459)
(-0.124302 0.112335 -0.00173682)
(-0.141766 0.0955193 -0.00146352)
(-0.154027 0.0712869 -0.000777707)
(-0.00133894 0.0300684 -0.00148291)
(-0.0079658 0.0744379 -0.00201862)
(-0.0206156 0.106231 -0.00226344)
(-0.0365166 0.127641 -0.00244848)
(-0.0542211 0.140163 -0.00262575)
(-0.0726285 0.144662 -0.00279292)
(-0.0906423 0.14136 -0.00292003)
(-0.107204 0.12991 -0.00294329)
(-0.121529 0.10952 -0.00277576)
(-0.130757 0.0784323 -0.00198802)
(-0.000997494 0.0338764 -0.00246793)
(-0.00622817 0.083685 -0.00298369)
(-0.0164202 0.119215 -0.00321574)
(-0.0292414 0.142922 -0.00342684)
(-0.0432787 0.156467 -0.00366348)
(-0.0573126 0.160843 -0.00392787)
(-0.070041 0.156358 -0.00419206)
(-0.0801142 0.142644 -0.00438859)
(-0.0872445 0.118757 -0.00448636)
(-0.0904049 0.0819487 -0.00387095)
(-0.0301689 0.000691242 -0.00158113)
(-0.0320984 0.000499811 -0.00228843)
(-0.0334703 0.000341073 -0.0030361)
(-0.0344034 0.000222676 -0.00380703)
(-0.0350208 0.000142306 -0.00458991)
(-0.0354299 9.3227e-05 -0.00537822)
(-0.0357159 6.82507e-05 -0.00616883)
(-0.0359437 6.16414e-05 -0.00696103)
(-0.0361625 6.94888e-05 -0.00775587)
(-0.0364104 8.92242e-05 -0.00855595)
(-0.0367161 0.000118698 -0.00936547)
(-0.0370989 0.000155008 -0.0101903)
(-0.0375641 0.000193161 -0.0110381)
(-0.0380957 0.000224675 -0.0119181)
(-0.0386452 0.000236397 -0.0128401)
(-0.0391203 0.000210171 -0.0138129)
(-0.0393744 0.000124609 -0.0148417)
(-0.0392056 -3.96719e-05 -0.0159238)
(-0.0383746 -0.000293974 -0.017044)
(-0.03665 -0.000626952 -0.0181709)
(-0.0786679 0.00430071 -0.00192591)
(-0.0834336 0.0031751 -0.0026134)
(-0.0868515 0.00223157 -0.00335151)
(-0.0892092 0.00151348 -0.004125)
(-0.090799 0.00101114 -0.00492221)
(-0.0918736 0.000689902 -0.00573503)
(-0.0926334 0.000510471 -0.00655838)
(-0.0932302 0.000439106 -0.00738965)
(-0.0937769 0.000449984 -0.00822829)
(-0.0943566 0.000523051 -0.00907556)
(-0.0950266 0.000639526 -0.00993432)
(-0.0958166 0.000776229 -0.010809)
(-0.0967205 0.000899401 -0.0117053)
(-0.0976809 0.000958883 -0.0126298)
(-0.0985686 0.000884294 -0.0135895)
(-0.099161 0.000586254 -0.0145898)
(-0.0991263 -3.2665e-05 -0.0156327)
(-0.0980301 -0.00105318 -0.0167137)
(-0.0953744 -0.00250139 -0.0178192)
(-0.090691 -0.00429784 -0.0189224)
(-0.116877 0.0112137 -0.00202078)
(-0.123366 0.00826309 -0.00268596)
(-0.127915 0.00581243 -0.00340526)
(-0.130994 0.00395745 -0.0041641)
(-0.133039 0.00266054 -0.00495066)
(-0.134406 0.00182549 -0.00575629)
(-0.135361 0.00134785 -0.00657514)
(-0.136098 0.0011385 -0.00740381)
(-0.136756 0.00112818 -0.00824089)
(-0.137433 0.00126159 -0.00908669)
(-0.138192 0.00148641 -0.00994301)
(-0.139061 0.00173999 -0.010813)
(-0.140024 0.00193537 -0.0117009)
(-0.141001 0.0019486 -0.0126118)
(-0.141825 0.00161125 -0.0135511)
(-0.142214 0.00071475 -0.0145236)
(-0.141743 -0.000963253 -0.0155318)
(-0.13985 -0.00360273 -0.0165739)
(-0.135866 -0.00724813 -0.0176406)
(-0.129135 -0.0116966 -0.0187117)
(-0.145365 0.0196341 -0.00198876)
(-0.152426 0.014242 -0.00266055)
(-0.157105 0.00987367 -0.00338699)
(-0.16011 0.00664147 -0.00415252)
(-0.162012 0.00442231 -0.00494462)
(-0.163232 0.00300966 -0.00575446)
(-0.164055 0.00220158 -0.00657625)
(-0.16467 0.00183494 -0.00740651)
(-0.165206 0.00178719 -0.00824356)
(-0.165747 0.00196282 -0.00908717)
(-0.166345 0.00227352 -0.00993827)
(-0.167025 0.00261585 -0.0107989)
(-0.16777 0.00284823 -0.0116719)
(-0.168512 0.00276971 -0.0125613)
(-0.1691 0.00210552 -0.0134717)
(-0.169264 0.00050997 -0.0144086)
(-0.16858 -0.00239641 -0.0153773)
(-0.166429 -0.00693967 -0.0163815)
(-0.162008 -0.013236 -0.0174204)
(-0.15441 -0.0209795 -0.018484)
(-0.164186 0.0283546 -0.00182349)
(-0.170599 0.0199833 -0.00253649)
(-0.174357 0.0134754 -0.00329885)
(-0.176483 0.00884343 -0.00409348)
(-0.177668 0.00576615 -0.00490734)
(-0.17834 0.00385543 -0.00573253)
(-0.178744 0.00277778 -0.00656447)
(-0.179019 0.00228517 -0.00740061)
(-0.179246 0.00220262 -0.00823972)
(-0.179473 0.00240091 -0.00908139)
(-0.17973 0.00276581 -0.00992586)
(-0.180032 0.00316647 -0.0107739)
(-0.180379 0.00342338 -0.0116271)
(-0.180743 0.00327678 -0.0124878)
(-0.181043 0.00235996 -0.0133599)
(-0.181104 0.000188881 -0.01425)
(-0.180591 -0.00380828 -0.0151669)
(-0.178925 -0.0101847 -0.0161228)
(-0.175195 -0.0192602 -0.0171298)
(-0.168132 -0.0307549 -0.0181975)
(-0.172999 0.0361835 -0.00151842)
(-0.177397 0.0243461 -0.00232139)
(-0.179143 0.0157099 -0.00315344)
(-0.17966 0.00991545 -0.00399987)
(-0.179674 0.00625453 -0.00484974)
(-0.179523 0.00406997 -0.0056988)
(-0.179341 0.00287203 -0.00654582)
(-0.179164 0.00233219 -0.00739056)
(-0.178996 0.00223769 -0.00823299)
(-0.178828 0.00244338 -0.00907296)
(-0.178659 0.00282915 -0.00991008)
(-0.178492 0.00326111 -0.0107439)
(-0.178348 0.00355273 -0.011574)
(-0.178257 0.00342307 -0.0124009)
(-0.178249 0.00245243 -0.0132269)
(-0.178315 4.24432e-05 -0.0140585)
(-0.178325 -0.00459489 -0.0149086)
(-0.177883 -0.0123512 -0.0157985)
(-0.176093 -0.0239897 -0.0167583)
(-0.171195 -0.0395822 -0.0178359)
(-0.170911 0.041661 -0.00109341)
(-0.171671 0.0260292 -0.00205323)
(-0.170365 0.0156966 -0.0029886)
(-0.168769 0.00934559 -0.00390289)
(-0.167417 0.00561716 -0.00479475)
(-0.1664 0.00351924 -0.00566901)
(-0.165649 0.00241919 -0.00653079)
(-0.16506 0.00194171 -0.00738344)
(-0.164541 0.00186841 -0.00822868)
(-0.164022 0.00206498 -0.00906672)
(-0.163462 0.00243018 -0.00989655)
(-0.16285 0.00285528 -0.0107161)
(-0.162216 0.00318451 -0.0115229)
(-0.161641 0.00316822 -0.0123143)
(-0.161274 0.00240147 -0.0130898)
(-0.161317 0.000241948 -0.0138535)
(-0.161959 -0.00427954 -0.0146207)
(-0.16321 -0.0124782 -0.0154205)
(-0.164518 -0.0259023 -0.0163049)
(-0.163682 -0.0456799 -0.0173922)
(-0.155963 0.0426589 -0.000604173)
(-0.151171 0.0234616 -0.00180235)
(-0.146155 0.0126986 -0.00286221)
(-0.142503 0.00692032 -0.00384438)
(-0.140059 0.00387746 -0.00476977)
(-0.138465 0.00230772 -0.00566005)
(-0.137395 0.00153931 -0.00652955)
(-0.1366 0.00122885 -0.00738558)
(-0.13591 0.00120163 -0.00823126)
(-0.135208 0.00136377 -0.00906681)
(-0.134423 0.00165334 -0.00989026)
(-0.133521 0.00200763 -0.0106978)
(-0.132524 0.00233275 -0.011484)
(-0.131527 0.00246389 -0.012243)
(-0.130747 0.00210119 -0.0129691)
(-0.130562 0.000696536 -0.0136615)
(-0.131506 -0.00273294 -0.014335)
(-0.134245 -0.0098304 -0.0150215)
(-0.139245 -0.0232351 -0.0157889)
(-0.144606 -0.0465257 -0.0168656)
(-0.123782 0.0366965 -0.000335299)
(-0.11173 0.0157408 -0.00179661)
(-0.103715 0.0069377 -0.0029012)
(-0.0992531 0.00320966 -0.00388956)
(-0.0967201 0.00158611 -0.00480706)
(-0.0952382 0.000870277 -0.00568757)
(-0.0943115 0.000563939 -0.00655011)
(-0.0936435 0.000461061 -0.00740201)
(-0.0930558 0.000476574 -0.00824525)
(-0.0924339 0.000574154 -0.00907871)
(-0.091701 0.000735471 -0.00989881)
(-0.0908104 0.000944421 -0.0106995)
(-0.089754 0.0011741 -0.0114725)
(-0.0885873 0.00136751 -0.0122068)
(-0.0874833 0.00139791 -0.0128895)
(-0.0868218 0.000978927 -0.0135102)
(-0.0872669 -0.000552845 -0.0140766)
(-0.0900924 -0.00477799 -0.0145944)
(-0.0977142 -0.0151841 -0.0151064)
(-0.111179 -0.0396177 -0.0159992)
(-0.0631085 0.0225254 -0.000974934)
(-0.047056 0.00648059 -0.00242142)
(-0.0405023 0.00196821 -0.00316993)
(-0.0381419 0.000627263 -0.00391597)
(-0.0371253 0.000212613 -0.00467926)
(-0.0366115 8.64826e-05 -0.00545591)
(-0.0363092 5.30755e-05 -0.00624348)
(-0.0360829 5.26239e-05 -0.00703672)
(-0.0358611 6.85791e-05 -0.00783065)
(-0.0355974 9.77277e-05 -0.0086204)
(-0.0352545 0.000140904 -0.0094)
(-0.0347996 0.000200061 -0.0101612)
(-0.0342058 0.000276706 -0.0108923)
(-0.0334599 0.000368672 -0.0115763)
(-0.0325835 0.000459937 -0.0121888)
(-0.0316835 0.000489491 -0.0126953)
(-0.0310927 0.000237904 -0.0130499)
(-0.0317504 -0.00113043 -0.0132169)
(-0.0372629 -0.00628406 -0.0130796)
(-0.0555385 -0.0251358 -0.0132599)
(-0.0301725 0.000677035 1.65042e-06)
(-0.0321014 0.000488813 1.15208e-06)
(-0.0334725 0.000332967 7.60847e-07)
(-0.0344048 0.000216909 4.78916e-07)
(-0.0350216 0.000138277 2.92658e-07)
(-0.0354303 9.03854e-05 1.80583e-07)
(-0.035716 6.61274e-05 1.22279e-07)
(-0.0359436 5.9861e-05 1.02195e-07)
(-0.0361623 6.77599e-05 1.0983e-07)
(-0.03641 8.73291e-05 1.38628e-07)
(-0.0367156 0.000116492 1.8401e-07)
(-0.0370983 0.000152436 2.41186e-07)
(-0.0375635 0.000190291 3.03071e-07)
(-0.0380951 0.000221747 3.57663e-07)
(-0.0386448 0.000233887 3.84782e-07)
(-0.0391203 0.00020884 3.5207e-07)
(-0.0393751 0.000125486 2.17614e-07)
(-0.0392075 -3.54364e-05 -4.48574e-08)
(-0.0383783 -0.000285159 -5.07207e-07)
(-0.0366553 -0.000612839 -1.20264e-06)
(-0.0786669 0.00428897 -1.48181e-06)
(-0.0834321 0.0031655 -1.23592e-06)
(-0.0868496 0.00222426 -9.75783e-07)
(-0.0892073 0.00150815 -7.43524e-07)
(-0.0907972 0.00100737 -5.54129e-07)
(-0.0918722 0.000687266 -4.14945e-07)
(-0.0926324 0.000508574 -3.2531e-07)
(-0.0932296 0.000437623 -2.79221e-07)
(-0.0937766 0.000448657 -2.68496e-07)
(-0.0943565 0.00052168 -2.83855e-07)
(-0.0950265 0.000637965 -3.14021e-07)
(-0.0958163 0.000774391 -3.44312e-07)
(-0.0967199 0.00089728 -3.54722e-07)
(-0.0976796 0.0009566 -3.18633e-07)
(-0.0985663 0.000882157 -2.03511e-07)
(-0.0991575 0.000584812 2.40736e-08)
(-0.0991219 -3.26318e-05 3.87406e-07)
(-0.0980251 -0.0010507 8.76812e-07)
(-0.0953701 -0.00249545 1.46363e-06)
(-0.0906884 -0.00428836 2.01499e-06)
(-0.11688 0.0112157 -1.84346e-07)
(-0.123367 0.00826352 -3.19269e-07)
(-0.127915 0.00581243 -3.48808e-07)
(-0.130993 0.00395736 -3.30676e-07)
(-0.133038 0.00266055 -2.81889e-07)
(-0.134404 0.00182565 -2.24794e-07)
(-0.13536 0.00134817 -1.73347e-07)
(-0.136097 0.00113899 -1.32805e-07)
(-0.136756 0.00112884 -1.03539e-07)
(-0.137433 0.00126242 -8.34993e-08)
(-0.138192 0.00148739 -6.92873e-08)
(-0.139061 0.00174103 -5.65782e-08)
(-0.140023 0.00193634 -4.00949e-08)
(-0.141 0.00194932 -1.34091e-08)
(-0.141824 0.00161147 3.18878e-08)
(-0.142211 0.000714234 1.01892e-07)
(-0.141741 -0.000964782 1.92186e-07)
(-0.139847 -0.00360522 2.97851e-07)
(-0.135865 -0.00725145 4.05906e-07)
(-0.129137 -0.0117022 3.44741e-07)
(-0.14537 0.0196307 -2.88664e-07)
(-0.152426 0.0142382 -4.65773e-07)
(-0.157104 0.00987118 -4.61743e-07)
(-0.160108 0.00664011 -4.1016e-07)
(-0.162011 0.00442179 -3.26126e-07)
(-0.163231 0.00300967 -2.41219e-07)
(-0.164053 0.00220186 -1.71042e-07)
(-0.164669 0.00183535 -1.18087e-07)
(-0.165205 0.00178765 -8.03616e-08)
(-0.165746 0.00196329 -5.47455e-08)
(-0.166345 0.00227394 -3.79817e-08)
(-0.167024 0.00261617 -2.7139e-08)
(-0.16777 0.00284836 -1.9495e-08)
(-0.168511 0.00276956 -1.06325e-08)
(-0.169098 0.00210507 1.12849e-08)
(-0.169263 0.00050931 5.76557e-08)
(-0.168578 -0.00239715 1.09202e-07)
(-0.166426 -0.00693962 2.07419e-07)
(-0.162007 -0.0132336 3.95159e-07)
(-0.154416 -0.0209768 3.47581e-07)
(-0.164194 0.0283458 -7.86997e-07)
(-0.170599 0.0199759 -8.8021e-07)
(-0.174354 0.0134718 -7.10818e-07)
(-0.17648 0.00884211 -5.55455e-07)
(-0.177665 0.00576611 -3.90794e-07)
(-0.178338 0.00385598 -2.56675e-07)
(-0.178742 0.00277849 -1.63908e-07)
(-0.179018 0.00228584 -1.04293e-07)
(-0.179246 0.00220319 -6.83569e-08)
(-0.179473 0.00240136 -4.89035e-08)
(-0.179729 0.00276612 -4.1161e-08)
(-0.180032 0.00316662 -4.20402e-08)
(-0.180379 0.00342333 -4.92683e-08)
(-0.180743 0.00327646 -5.77478e-08)
(-0.181042 0.0023594 -4.59209e-08)
(-0.181102 0.00018831 1.44009e-08)
(-0.180588 -0.00380837 6.09416e-08)
(-0.178919 -0.0101827 2.06642e-07)
(-0.175192 -0.0192518 6.91216e-07)
(-0.168141 -0.0307423 9.81654e-07)
(-0.173015 0.0361657 -1.68937e-06)
(-0.177392 0.0243341 -1.43397e-06)
(-0.179136 0.0157063 -8.93481e-07)
(-0.179655 0.00991522 -5.97963e-07)
(-0.17967 0.00625562 -3.51528e-07)
(-0.179521 0.00407139 -1.85214e-07)
(-0.179339 0.00287329 -9.17368e-08)
(-0.179163 0.00233319 -4.25234e-08)
(-0.178995 0.00223846 -1.85273e-08)
(-0.178828 0.00244397 -9.06378e-09)
(-0.178658 0.00282959 -9.22537e-09)
(-0.178492 0.00326141 -1.74963e-08)
(-0.178348 0.00355286 -3.40711e-08)
(-0.178257 0.00342293 -5.79767e-08)
(-0.178248 0.00245199 -7.09523e-08)
(-0.178313 4.20103e-05 -3.84771e-08)
(-0.178321 -0.00459444 -1.61783e-08)
(-0.177873 -0.0123475 1.19137e-07)
(-0.176082 -0.0239738 1.18304e-06)
(-0.171211 -0.0395553 2.48146e-06)
(-0.170942 0.0416364 -4.506e-06)
(-0.171656 0.0260212 -2.95873e-06)
(-0.17035 0.0157001 -1.3591e-06)
(-0.168761 0.00934982 -7.08037e-07)
(-0.167412 0.00562059 -3.00236e-07)
(-0.166397 0.00352178 -9.19916e-08)
(-0.165648 0.00242094 -1.05258e-08)
(-0.16506 0.00194294 1.58813e-08)
(-0.164541 0.00186936 1.90231e-08)
(-0.164022 0.00206582 1.18435e-08)
(-0.163462 0.00243101 -1.73946e-09)
(-0.16285 0.00285612 -2.17596e-08)
(-0.162216 0.00318528 -4.91913e-08)
(-0.161641 0.00316871 -8.63968e-08)
(-0.161273 0.0024014 -1.17227e-07)
(-0.161315 0.000241281 -6.83416e-08)
(-0.161952 -0.00428115 7.23393e-08)
(-0.16319 -0.0124807 3.64359e-07)
(-0.164492 -0.0258911 2.84517e-06)
(-0.163714 -0.045645 6.81244e-06)
(-0.156022 0.0426181 -7.66351e-06)
(-0.15114 0.0234716 -3.09202e-06)
(-0.146136 0.0127199 -6.19622e-07)
(-0.142498 0.00693234 -2.38275e-07)
(-0.140057 0.00388357 2.95276e-08)
(-0.138464 0.00231102 1.24601e-07)
(-0.137395 0.00154118 1.17758e-07)
(-0.1366 0.00123013 9.65295e-08)
(-0.13591 0.00120279 7.98086e-08)
(-0.135208 0.00136509 6.8331e-08)
(-0.134422 0.00165496 5.88701e-08)
(-0.133521 0.0020096 4.64869e-08)
(-0.132524 0.00233497 2.41363e-08)
(-0.131528 0.00246596 -2.77716e-08)
(-0.130748 0.00210225 -1.0467e-07)
(-0.130562 0.000695087 -4.25171e-08)
(-0.131505 -0.00274136 8.31815e-08)
(-0.134225 -0.0098524 -3.50249e-07)
(-0.1392 -0.0232478 2.52264e-06)
(-0.144665 -0.0464707 1.09022e-05)
(-0.123853 0.0365024 -9.5887e-06)
(-0.111662 0.0156824 4.23932e-06)
(-0.103703 0.00692695 4.72409e-06)
(-0.0992623 0.00320266 2.00376e-06)
(-0.0967253 0.00158091 1.03102e-06)
(-0.0952407 0.000867059 6.22702e-07)
(-0.0943128 0.00056184 3.88185e-07)
(-0.0936439 0.000459503 2.91407e-07)
(-0.0930556 0.000475227 2.78728e-07)
(-0.0924335 0.000572797 3.13592e-07)
(-0.0917004 0.000733962 3.76765e-07)
(-0.09081 0.000942711 4.51779e-07)
(-0.0897543 0.00117229 5.10232e-07)
(-0.0885888 0.00136595 4.78598e-07)
(-0.0874868 0.00139737 2.61424e-07)
(-0.0868303 0.000980402 -9.73572e-08)
(-0.0872854 -0.000549233 -1.31467e-06)
(-0.0900885 -0.00477068 -5.85045e-06)
(-0.0976259 -0.0151209 -7.88139e-06)
(-0.11123 -0.0393668 1.18629e-05)
(-0.0631498 0.0223824 -5.30641e-05)
(-0.0468992 0.00641302 -8.91736e-06)
(-0.0404582 0.00194106 -6.16657e-07)
(-0.0381377 0.000611965 -1.43448e-06)
(-0.0371224 0.000203737 -9.29341e-07)
(-0.0366094 8.15171e-05 -4.32639e-07)
(-0.0363083 5.00753e-05 -2.42781e-07)
(-0.0360826 5.04564e-05 -1.70804e-07)
(-0.035861 6.66215e-05 -1.50275e-07)
(-0.0355975 9.56067e-05 -1.64753e-07)
(-0.0352548 0.000138391 -2.04098e-07)
(-0.0348 0.000197065 -2.58215e-07)
(-0.0342061 0.000273356 -3.12408e-07)
(-0.0334599 0.000365545 -3.40948e-07)
(-0.0325824 0.000458363 -2.543e-07)
(-0.0316824 0.00049171 1.95142e-07)
(-0.031095 0.000247475 6.53903e-07)
(-0.0317095 -0.00110716 -1.92117e-06)
(-0.0370516 -0.0062115 3.93307e-06)
(-0.0555261 -0.0249453 6.67333e-05)
(-0.0301724 0.000677035 -1.64893e-06)
(-0.0321014 0.000488813 -1.15104e-06)
(-0.0334725 0.000332967 -7.59802e-07)
(-0.0344048 0.000216909 -4.77797e-07)
(-0.0350216 0.000138277 -2.91733e-07)
(-0.0354302 9.03852e-05 -1.80035e-07)
(-0.035716 6.61272e-05 -1.22074e-07)
(-0.0359436 5.98608e-05 -1.02363e-07)
(-0.0361623 6.77596e-05 -1.10394e-07)
(-0.03641 8.73287e-05 -1.39473e-07)
(-0.0367156 0.000116492 -1.85088e-07)
(-0.0370983 0.000152436 -2.42416e-07)
(-0.0375635 0.00019029 -3.04143e-07)
(-0.038095 0.000221746 -3.58236e-07)
(-0.0386448 0.000233886 -3.84658e-07)
(-0.0391202 0.00020884 -3.51163e-07)
(-0.0393751 0.000125487 -2.15912e-07)
(-0.0392075 -3.54356e-05 4.7317e-08)
(-0.0383782 -0.000285157 5.10403e-07)
(-0.0366553 -0.000612837 1.20657e-06)
(-0.0786669 0.00428897 1.48373e-06)
(-0.083432 0.0031655 1.23739e-06)
(-0.0868495 0.00222425 9.77249e-07)