/*--------------------------------*- C++ -*----------------------------------*\
| =========                 |                                                 |
| \\      /  F ield         | OpenFOAM: The Open Source CFD Toolbox           |
|  \\    /   O peration     | Version:  2.4.0                                 |
|   \\  /    A nd           | Web:      www.OpenFOAM.org                      |
|    \\/     M anipulation  |                                                 |
\*---------------------------------------------------------------------------*/
FoamFile
{
    version     2.0;
    format      ascii;
    class       volScalarField;
    location    "0.005";
    object      T;
}
// * * * * * * * * * * * * * * * * * * * * * * * * * * * * * * * * * * * * * //

dimensions      [0 0 0 1 0 0 0];

internalField   nonuniform List<scalar> 
4800
(
100.194
100.581
100.967
101.354
101.737
102.116
102.487
102.844
103.181
103.493
100.581
101.742
102.903
104.063
105.217
106.358
107.475
108.552
109.57
110.51
100.967
102.903
104.841
106.778
108.709
110.624
112.502
114.318
116.038
117.625
101.354
104.063
106.778
109.499
112.219
114.926
117.592
120.181
122.639
124.907
101.737
105.217
108.71
112.219
115.743
119.267
122.761
126.173
129.43
132.437
102.117
106.358
110.624
114.926
119.267
123.639
128.01
132.321
136.47
140.313
102.487
107.475
112.503
117.593
122.761
128.011
133.321
138.631
143.815
148.659
102.844
108.553
114.32
120.182
126.175
132.322
138.631
145.066
151.5
157.64
103.182
109.572
116.04
122.642
129.433
136.472
143.817
151.501
159.48
167.458
103.494
110.513
117.629
124.912
132.442
140.317
148.663
157.643
167.46
178.221
100.194
100.581
100.967
101.354
101.737
102.116
102.487
102.844
103.181
103.493
100.581
101.742
102.903
104.063
105.217
106.358
107.475
108.552
109.57
110.51
100.967
102.903
104.841
106.778
108.709
110.624
112.502
114.318
116.038
117.625
101.354
104.063
106.778
109.499
112.219
114.926
117.592
120.18
122.639
124.907
101.737
105.217
108.71
112.219
115.743
119.267
122.761
126.173
129.43
132.437
102.117
106.358
110.624
114.926
119.267
123.639
128.01
132.321
136.47
140.313
102.487
107.475
112.503
117.593
122.762
128.011
133.321
138.631
143.815
148.659
102.844
108.553
114.32
120.182
126.175
132.322
138.632
145.066
151.5
157.64
103.182
109.572
116.041
122.642
129.433
136.473
143.817
151.502
159.48
167.459
103.494
110.513
117.629
124.912
132.442
140.318
148.663
157.643
167.461
178.222
100.194
100.581
100.967
101.354
101.737
102.116
102.487
102.844
103.181
103.493
100.581
101.742
102.903
104.063
105.217
106.358
107.475
108.552
109.57
110.51
100.967
102.903
104.841
106.778
108.709
110.624
112.502
114.318
116.038
117.625
101.354
104.063
106.778
109.499
112.219
114.926
117.592
120.18
122.639
124.907
101.737
105.217
108.71
112.219
115.743
119.267
122.761
126.173
129.43
132.437
102.117
106.358
110.624
114.926
119.267
123.639
128.01
132.321
136.47
140.313
102.487
107.475
112.503
117.593
122.762
128.011
133.321
138.631
143.815
148.659
102.844
108.553
114.32
120.182
126.175
132.322
138.632
145.066
151.5
157.64
103.182
109.572
116.041
122.642
129.433
136.473
143.817
151.502
159.48
167.459
103.494
110.513
117.629
124.912
132.442
140.318
148.663
157.643
167.461
178.222
100.194
100.581
100.967
101.354
101.737
102.116
102.487
102.844
103.181
103.493
100.581
101.742
102.903
104.063
105.217
106.358
107.475
108.552
109.57
110.51
100.967
102.903
104.841
106.778
108.709
110.624
112.502
114.318
116.038
117.625
101.354
104.063
106.778
109.499
112.219
114.926
117.592
120.181
122.639
124.907
101.737
105.217
108.71
112.219
115.743
119.267
122.761
126.173
129.43
132.437
102.117
106.358
110.624
114.926
119.267
123.639
128.01
132.321
136.47
140.313
102.487
107.475
112.503
117.593
122.761
128.011
133.321
138.631
143.815
148.659
102.844
108.553
114.32
120.182
126.175
132.322
138.631
145.066
151.5
157.64
103.182
109.572
116.04
122.642
129.433
136.472
143.817
151.501
159.48
167.458
103.494
110.513
117.629
124.912
132.442
140.317
148.663
157.643
167.46
178.221
103.772
104.016
104.222
104.391
104.526
104.63
104.707
104.761
104.796
104.813
104.813
104.796
104.761
104.707
104.63
104.526
104.391
104.222
104.016
103.772
111.353
112.086
112.704
113.208
113.608
113.916
114.144
114.304
114.405
114.454
114.454
114.405
114.304
114.144
113.915
113.608
113.207
112.703
112.085
111.353
119.044
120.271
121.298
122.129
122.783
123.282
123.649
123.905
124.067
124.145
124.144
124.066
123.905
123.648
123.281
122.782
122.128
121.296
120.27
119.043
126.927
128.658
130.087
131.228
132.113
132.78
133.265
133.601
133.812
133.913
133.913
133.811
133.6
133.264
132.778
132.111
131.226
130.085
128.656
126.925
135.099
137.346
139.163
140.583
141.661
142.459
143.031
143.423
143.666
143.783
143.783
143.666
143.422
143.03
142.457
141.659
140.58
139.161
137.344
135.097
143.686
146.463
148.637
150.279
151.489
152.363
152.977
153.392
153.648
153.769
153.769
153.647
153.391
152.976
152.361
151.487
150.277
148.635
146.461
143.684
152.868
156.185
158.642
160.407
161.654
162.525
163.124
163.521
163.763
163.878
163.878
163.763
163.52
163.123
162.523
161.652
160.405
158.64
156.182
152.866
162.941
166.765
169.341
171.052
172.194
172.96
173.472
173.806
174.007
174.101
174.101
174.006
173.805
173.471
172.959
172.192
171.051
169.34
166.763
162.94
174.493
178.591
180.905
182.268
183.109
183.648
183.999
184.223
184.356
184.419
184.419
184.356
184.222
183.998
183.648
183.109
182.267
180.905
178.59
174.493
188.983
192.199
193.422
194.003
194.328
194.525
194.651
194.73
194.777
194.799
194.799
194.777
194.73
194.651
194.525
194.328
194.003
193.422
192.199
188.982
103.772
104.016
104.222
104.391
104.526
104.63
104.707
104.761
104.796
104.812
104.812
104.795
104.761
104.707
104.629
104.525
104.391
104.221
104.015
103.772
111.353
112.086
112.703
113.208
113.608
113.916
114.144
114.304
114.405
114.453
114.453
114.404
114.303
114.143
113.915
113.607
113.206
112.702
112.084
111.352
119.044
120.271
121.297
122.129
122.783
123.282
123.649
123.905
124.066
124.144
124.144
124.065
123.904
123.647
123.28
122.781
122.127
121.295
120.269
119.042
126.927
128.658
130.086
131.228
132.112
132.779
133.265
133.601
133.811
133.912
133.912
133.81
133.599
133.263
132.777
132.11
131.225
130.083
128.655
126.924
135.099
137.346
139.163
140.582
141.66
142.458
143.03
143.422
143.666
143.782
143.782
143.665
143.421
143.028
142.456
141.657
140.579
139.159
137.342
135.096
143.686
146.463
148.637
150.279
151.489
152.362
152.977
153.392
153.647
153.769
153.768
153.646
153.39
152.975
152.359
151.486
150.275
148.633
146.46
143.682
152.868
156.184
158.642
160.407
161.653
162.524
163.123
163.521
163.763
163.877
163.877
163.762
163.519
163.121
162.522
161.65
160.403
158.639
156.181
152.864
162.941
166.764
169.341
171.052
172.193
172.959
173.471
173.805
174.006
174.1
174.1
174.005
173.804
173.47
172.957
172.191
171.049
169.338
166.761
162.938
174.493
178.59
180.905
182.267
183.109
183.648
183.998
184.222
184.356
184.418
184.418
184.355
184.221
183.997
183.646
183.107
182.266
180.903
178.588
174.491
188.983
192.199
193.421
194.003
194.327
194.525
194.65
194.73
194.777
194.799
194.798
194.777
194.729
194.65
194.525
194.327
194.002
193.421
192.198
188.981
103.772
104.016
104.222
104.391
104.526
104.63
104.707
104.761
104.796
104.812
104.812
104.795
104.761
104.707
104.629
104.525
104.391
104.221
104.015
103.772
111.353
112.086
112.703
113.208
113.608
113.916
114.144
114.304
114.405
114.453
114.453
114.404
114.303
114.143
113.915
113.607
113.206
112.702
112.084
111.352
119.044
120.271
121.297
122.129
122.783
123.282
123.649
123.905
124.066
124.144
124.144
124.065
123.904
123.647
123.28
122.781
122.127
121.295
120.269
119.042
126.927
128.658
130.086
131.228
132.112
132.779
133.265
133.601
133.811
133.912
133.912
133.81
133.599
133.263
132.777
132.11
131.225
130.083
128.655
126.924
135.099
137.346
139.163
140.582
141.66
142.458
143.03
143.422
143.666
143.782
143.782
143.665
143.421
143.028
142.456
141.657
140.579
139.159
137.342
135.096
143.686
146.463
148.637
150.279
151.489
152.362
152.977
153.392
153.647
153.769
153.768
153.646
153.39
152.975
152.359
151.486
150.275
148.633
146.46
143.682
152.868
156.184
158.642
160.407
161.653
162.524
163.123
163.521
163.763
163.877
163.877
163.762
163.519
163.121
162.522
161.65
160.403
158.639
156.181
152.864
162.941
166.764
169.341
171.052
172.193
172.959
173.471
173.805
174.006
174.1
174.1
174.005
173.804
173.47
172.957
172.191
171.049
169.338
166.761
162.938
174.493
178.59
180.905
182.267
183.109
183.648
183.998
184.222
184.356
184.418
184.418
184.355
184.221
183.997
183.646
183.107
182.266
180.903
178.588
174.491
188.983
192.199
193.421
194.003
194.327
194.525
194.65
194.73
194.777
194.799
194.798
194.777
194.729
194.65
194.525
194.327
194.002
193.421
192.198
188.981
103.772
104.016
104.222
104.391
104.526
104.63
104.707
104.761
104.796
104.813
104.813
104.796
104.761
104.707
104.63
104.526
104.391
104.222
104.016
103.772
111.353
112.086
112.704
113.208
113.608
113.916
114.144
114.304
114.405
114.454
114.454
114.405
114.304
114.144
113.915
113.608
113.207
112.703
112.085
111.353
119.044
120.271
121.298
122.129
122.783
123.282
123.649
123.905
124.067
124.145
124.144
124.066
123.905
123.648
123.281
122.782
122.128
121.296
120.27
119.043
126.927
128.658
130.087
131.228
132.113
132.78
133.265
133.601
133.812
133.913
133.913
133.811
133.6
133.264
132.778
132.111
131.226
130.085
128.656
126.925
135.099
137.346
139.163
140.583
141.661
142.459
143.031
143.423
143.666
143.783
143.783
143.666
143.422
143.03
142.457
141.659
140.58
139.161
137.344
135.097
143.686
146.463
148.637
150.279
151.489
152.363
152.977
153.392
153.648
153.769
153.769
153.647
153.391
152.976
152.361
151.487
150.277
148.635
146.461
143.684
152.868
156.185
158.642
160.407
161.654
162.525
163.124
163.521
163.763
163.878
163.878
163.763
163.52
163.123
162.523
161.652
160.405
158.64
156.182
152.866
162.941
166.765
169.341
171.052
172.194
172.96
173.472
173.806
174.007
174.101
174.101
174.006
173.805
173.471
172.959
172.192
171.051
169.34
166.763
162.94
174.493
178.591
180.905
182.268
183.109
183.648
183.999
184.223
184.356
184.419
184.419
184.356
184.222
183.998
183.648
183.109
182.267
180.905
178.59
174.493
188.983
192.199
193.422
194.003
194.328
194.525
194.651
194.73
194.777
194.799
194.799
194.777
194.73
194.651
194.525
194.328
194.003
193.422
192.199
188.982
103.493
103.182
102.844
102.487
102.117
101.738
101.354
100.968
100.581
100.194
110.51
109.57
108.552
107.475
106.358
105.217
104.063
102.904
101.742
100.581
117.624
116.038
114.318
112.502
110.624
108.71
106.779
104.841
102.904
100.968
124.906
122.638
120.18
117.592
114.926
112.22
109.499
106.779
104.064
101.354
132.436
129.429
126.173
122.761
119.268
115.744
112.22
108.711
105.218
101.738
140.311
136.469
132.321
128.011
123.64
119.269
114.927
110.625
106.359
102.117
148.658
143.815
138.631
133.322
128.012
122.763
117.595
112.504
107.476
102.488
157.639
151.501
145.067
138.633
132.324
126.177
120.184
114.321
108.554
102.845
167.459
159.481
151.503
143.819
136.475
129.435
122.644
116.043
109.574
103.183
178.222
167.462
157.645
148.666
140.321
132.445
124.915
117.631
110.515
103.494
103.492
103.181
102.844
102.487
102.116
101.737
101.353
100.967
100.58
100.193
110.509
109.569
108.551
107.474
106.357
105.216
104.062
102.902
101.741
100.58
117.623
116.036
114.317
112.501
110.623
108.708
106.777
104.84
102.903
100.967
124.904
122.637
120.179
117.591
114.924
112.218
109.498
106.777
104.062
101.353
132.434
129.427
126.171
122.759
119.266
115.742
112.219
108.709
105.217
101.737
140.31
136.467
132.319
128.009
123.638
119.267
114.926
110.624
106.358
102.116
148.656
143.813
138.629
133.32
128.01
122.761
117.593
112.503
107.475
102.487
157.638
151.499
145.065
138.631
132.322
126.175
120.182
114.32
108.553
102.844
167.457
159.479
151.501
143.817
136.473
129.433
122.642
116.041
109.572
103.182
178.22
167.46
157.643
148.664
140.319
132.443
124.913
117.629
110.513
103.494
103.492
103.181
102.844
102.487
102.116
101.737
101.353
100.967
100.58
100.193
110.509
109.569
108.551
107.474
106.357
105.216
104.062
102.902
101.741
100.58
117.623
116.036
114.317
112.501
110.623
108.708
106.777
104.84
102.903
100.967
124.904
122.637
120.179
117.591
114.924
112.218
109.498
106.777
104.062
101.353
132.434
129.427
126.171
122.759
119.266
115.742
112.219
108.709
105.217
101.737
140.31
136.467
132.319
128.009
123.638
119.267
114.926
110.624
106.358
102.116
148.656
143.813
138.629
133.32
128.01
122.761
117.593
112.503
107.475
102.487
157.638
151.499
145.065
138.631
132.322
126.175
120.182
114.32
108.553
102.844
167.457
159.479
151.501
143.817
136.473
129.433
122.642
116.041
109.572
103.182
178.22
167.46
157.643
148.664
140.319
132.443
124.913
117.629
110.513
103.494
103.493
103.182
102.844
102.487
102.117
101.738
101.354
100.968
100.581
100.194
110.51
109.57
108.552
107.475
106.358
105.217
104.063
102.904
101.742
100.581
117.624
116.038
114.318
112.502
110.624
108.71
106.779
104.841
102.904
100.968
124.906
122.638
120.18
117.592
114.926
112.22
109.499
106.779
104.064
101.354
132.436
129.429
126.173
122.761
119.268
115.744
112.22
108.711
105.218
101.738
140.311
136.469
132.321
128.011
123.64
119.269
114.927
110.625
106.359
102.117
148.658
143.815
138.631
133.322
128.012
122.763
117.595
112.504
107.476
102.488
157.639
151.501
145.067
138.633
132.324
126.177
120.184
114.321
108.554
102.845
167.459
159.481
151.503
143.819
136.475
129.435
122.644
116.043
109.574
103.183
178.222
167.462
157.645
148.666
140.321
132.445
124.915
117.631
110.515
103.494
188.985
174.499
162.95
152.878
143.697
135.111
126.938
119.053
111.359
103.775
192.202
178.598
166.776
156.199
146.48
137.362
128.673
120.283
112.094
104.019
193.426
180.916
169.358
158.663
148.66
139.186
130.107
121.314
112.714
104.226
194.009
182.283
171.075
160.435
150.31
140.614
131.256
122.152
113.223
104.396
194.335
183.13
172.225
161.693
151.532
141.704
132.152
122.814
113.628
104.533
194.535
183.676
173.003
162.579
152.422
142.518
132.833
123.324
113.943
104.639
194.664
184.037
173.531
163.198
153.059
143.112
133.338
123.707
114.181
104.72
194.749
184.275
173.887
163.623
153.504
143.534
133.701
123.984
114.355
104.779
194.803
184.429
174.118
163.903
153.802
143.819
133.949
124.175
114.475
104.82
194.834
184.519
174.255
164.07
153.981
143.993
134.101
124.293
114.549
104.845
194.847
184.557
174.314
164.143
154.06
144.07
134.17
124.347
114.583
104.857
194.844
184.548
174.301
164.129
154.047
144.06
134.163
124.342
114.581
104.856
194.823
184.489
174.214
164.027
153.942
143.962
134.08
124.28
114.542
104.843
194.781
184.372
174.042
163.824
153.734
143.769
133.916
124.157
114.466
104.818
194.711
184.176
173.759
163.498
153.403
143.465
133.662
123.967
114.349
104.778
194.595
183.864
173.322
163.008
152.921
143.031
133.304
123.702
114.187
104.723
194.401
183.366
172.659
162.299
152.245
142.439
132.826
123.352
113.975
104.652
194.041
182.545
171.654
161.289
151.327
141.663
132.212
122.911
113.71
104.564
193.258
181.124
170.13
159.884
150.123
140.681
131.456
122.377
113.391
104.458
191.127
178.57
167.868
158.008
148.609
139.494
130.563
121.755
113.025
104.337
188.984
174.497
162.947
152.876
143.695
135.109
126.936
119.051
111.357
103.774
192.2
178.596
166.774
156.197
146.477
137.36
128.671
120.281
112.092
104.018
193.424
180.914
169.355
158.661
148.657
139.183
130.105
121.312
112.713
104.225
194.007
182.28
171.073
160.433
150.308
140.612
131.254
122.15
113.221
104.395
194.333
183.127
172.222
161.69
151.529
141.701
132.149
122.812
113.626
104.532
194.534
183.673
173
162.576
152.419
142.515
132.83
123.322
113.941
104.638
194.663
184.034
173.528
163.195
153.056
143.109
133.336
123.705
114.179
104.719
194.747
184.272
173.884
163.62
153.501
143.531
133.699
123.982
114.353
104.778
194.801
184.426
174.115
163.9
153.799
143.816
133.946
124.173
114.473
104.819
194.832
184.515
174.252
164.067
153.978
143.99
134.098
124.29
114.547
104.844
194.845
184.553
174.31
164.14
154.057
144.067
134.167
124.344
114.581
104.856
194.842
184.544
174.297
164.126
154.044
144.057
134.16
124.34
114.579
104.855
194.821
184.486
174.211
164.023
153.939
143.959
134.077
124.277
114.54
104.842
194.779
184.368
174.038
163.821
153.73
143.765
133.913
124.154
114.464
104.816
194.708
184.172
173.755
163.494
153.4
143.462
133.659
123.964
114.347
104.777
194.593
183.86
173.318
163.005
152.917
143.028
133.301
123.699
114.184
104.722
194.398
183.362
172.655
162.295
152.241
142.436
132.822
123.349
113.972
104.651
194.038
182.541
171.65
161.285
151.324
141.66
132.209
122.909
113.707
104.563
193.255
181.12
170.126
159.88
150.119
140.678
131.453
122.374
113.389
104.457
191.124
178.566
167.864
158.004
148.605
139.49
130.56
121.752
113.022
104.336
188.984
174.497
162.947
152.876
143.695
135.109
126.936
119.051
111.358
103.774
192.2
178.596
166.774
156.197
146.477
137.36
128.671
120.281
112.092
104.018
193.424
180.914
169.355
158.661
148.657
139.183
130.105
121.312
112.713
104.225
194.007
182.28
171.073
160.433
150.308
140.612
131.254
122.15
113.221
104.395
194.333
183.127
172.222
161.69
151.529
141.701
132.149
122.812
113.626
104.532
194.534
183.673
173
162.576
152.419
142.515
132.83
123.322
113.941
104.638
194.663
184.034
173.528
163.195
153.056
143.109
133.336
123.705
114.179
104.719
194.747
184.272
173.884
163.62
153.501
143.531
133.699
123.982
114.353
104.778
194.801
184.426
174.115
163.9
153.799
143.816
133.946
124.173
114.473
104.819
194.832
184.515
174.252
164.067
153.978
143.99
134.098
124.29
114.547
104.844
194.845
184.553
174.31
164.14
154.057
144.067
134.167
124.344
114.581
104.856
194.842
184.544
174.297
164.126
154.044
144.057
134.16
124.34
114.579
104.855
194.821
184.486
174.211
164.023
153.939
143.959
134.077
124.277
114.54
104.842
194.779
184.368
174.038
163.821
153.73
143.765
133.913
124.154
114.464
104.816
194.708
184.172
173.755
163.494
153.4
143.462
133.659
123.964
114.347
104.777
194.593
183.86
173.318
163.005
152.917
143.028
133.301
123.699
114.184
104.722
194.398
183.362
172.655
162.295
152.241
142.436
132.822
123.349
113.972
104.651
194.038
182.541
171.65
161.285
151.324
141.66
132.209
122.909
113.707
104.563
193.255
181.12
170.126
159.88
150.119
140.678
131.453
122.374
113.389
104.457
191.124
178.566
167.864
158.004
148.605
139.49
130.56
121.752
113.022
104.336
188.985
174.499
162.95
152.878
143.697
135.111
126.938
119.053
111.359
103.775
192.202
178.598
166.776
156.199
146.48
137.362
128.673
120.283
112.094
104.019
193.426
180.916
169.358
158.663
148.66
139.186
130.107
121.314
112.714
104.226
194.009
182.283
171.075
160.435
150.31
140.614
131.256
122.152
113.223
104.396
194.335
183.13
172.225
161.693
151.532
141.704
132.152
122.814
113.628
104.533
194.535
183.676
173.003
162.579
152.422
142.518
132.833
123.324
113.943
104.639
194.664
184.037
173.531
163.198
153.059
143.112
133.338
123.707
114.181
104.72
194.749
184.275
173.887
163.623
153.504
143.534
133.701
123.984
114.355
104.779
194.803
184.429
174.118
163.903
153.802
143.819
133.949
124.175
114.475
104.82
194.834
184.519
174.255
164.07
153.981
143.993
134.101
124.293
114.549
104.845
194.847
184.557
174.314
164.143
154.06
144.07
134.17
124.347
114.583
104.857
194.844
184.548
174.301
164.129
154.047
144.06
134.163
124.342
114.581
104.856
194.823
184.489
174.214
164.027
153.942
143.962
134.08
124.28
114.542
104.843
194.781
184.372
174.042
163.824
153.734
143.769
133.916
124.157
114.466
104.818
194.711
184.176
173.759
163.498
153.403
143.465
133.662
123.967
114.349
104.778
194.595
183.864
173.322
163.008
152.921
143.031
133.304
123.702
114.187
104.723
194.401
183.366
172.659
162.299
152.245
142.439
132.826
123.352
113.975
104.652
194.041
182.545
171.654
161.289
151.327
141.663
132.212
122.911
113.71
104.564
193.258
181.124
170.13
159.884
150.123
140.681
131.456
122.377
113.391
104.458
191.127
178.57
167.868
158.008
148.609
139.494
130.564
121.755
113.025
104.337
183.805
174.173
164.778
155.685
146.827
138.136
129.56
121.064
112.62
104.204
177.313
169.56
161.404
153.149
144.898
136.678
128.491
120.332
112.192
104.063
172.035
165.377
158.154
150.634
142.961
135.208
127.412
119.592
111.76
103.921
167.782
161.79
155.233
148.303
141.132
133.804
126.374
118.879
111.343
103.784
164.367
158.806
152.723
146.248
139.489
132.528
125.425
118.223
110.959
103.657
161.657
156.392
150.647
144.516
138.084
131.424
124.596
117.649
110.62
103.546
159.566
154.507
149.003
143.126
136.943
130.521
123.914
117.173
110.339
103.453
158.039
153.121
147.784
142.085
136.083
129.834
123.393
116.808
110.123
103.382
157.039
152.21
146.978
141.393
135.508
129.374
123.043
116.563
109.977
103.334
156.545
151.758
146.578
141.049
135.221
129.144
122.868
116.44
109.905
103.314
183.801
174.17
164.774
155.682
146.824
138.132
129.557
121.061
112.617
104.202
177.31
169.557
161.4
153.146
144.895
136.675
128.488
120.329
112.19
104.062
172.032
165.373
158.151
150.631
142.958
135.204
127.408
119.589
111.758
103.919
167.779
161.787
155.23
148.3
141.128
133.8
126.371
118.876
111.341
103.782
164.364
158.803
152.72
146.245
139.486
132.525
125.421
118.22
110.956
103.655
161.654
156.389
150.644
144.513
138.081
131.421
124.593
117.645
110.617
103.543
159.564
154.504
149.001
143.123
136.94
130.517
123.91
117.168
110.335
103.45
158.037
153.118
147.781
142.082
136.079
129.83
123.389
116.803
110.118
103.378
157.037
152.207
146.975
141.39
135.505
129.37
123.039
116.558
109.971
103.329
156.543
151.755
146.575
141.046
135.217
129.14
122.863
116.435
109.898
103.308
183.801
174.17
164.774
155.682
146.824
138.132
129.557
121.061
112.617
104.202
177.31
169.557
161.4
153.146
144.895
136.675
128.488
120.329
112.19
104.062
172.032
165.373
158.151
150.631
142.958
135.204
127.408
119.589
111.758
103.919
167.779
161.787
155.23
148.3
141.128
133.8
126.371
118.876
111.341
103.782
164.364
158.803
152.72
146.245
139.486
132.525
125.421
118.22
110.956
103.655
161.654
156.389
150.644
144.513
138.081
131.421
124.593
117.645
110.617
103.543
159.563
154.504
149
143.123
136.94
130.517
123.91
117.168
110.335
103.45
158.036
153.118
147.781
142.082
136.079
129.83
123.389
116.803
110.118
103.378
157.037
152.207
146.975
141.39
135.505
129.37
123.039
116.558
109.971
103.329
156.543
151.756
146.575
141.046
135.217
129.14
122.863
116.435
109.898
103.308
183.805
174.173
164.778
155.685
146.827
138.136
129.56
121.064
112.62
104.204
177.313
169.56
161.404
153.149
144.898
136.678
128.491
120.332
112.192
104.063
172.035
165.377
158.154
150.634
142.961
135.208
127.412
119.592
111.76
103.921
167.782
161.79
155.233
148.303
141.132
133.804
126.374
118.88
111.343
103.784
164.367
158.806
152.723
146.248
139.489
132.528
125.425
118.224
110.959
103.657
161.656
156.391
150.647
144.515
138.084
131.424
124.596
117.649
110.62
103.546
159.566
154.507
149.003
143.125
136.943
130.521
123.914
117.172
110.339
103.453
158.039
153.12
147.784
142.085
136.083
129.834
123.393
116.808
110.123
103.382
157.039
152.209
146.978
141.393
135.508
129.374
123.044
116.563
109.977
103.334
156.545
151.758
146.578
141.049
135.221
129.144
122.868
116.441
109.905
103.314
192.617
195.42
196.6
197.237
197.639
197.912
198.104
198.235
198.317
198.357
198.357
198.318
198.236
198.105
197.915
197.641
197.24
196.603
195.422
192.619
183.873
187.89
190.353
191.954
193.051
193.828
194.379
194.76
195
195.117
195.118
195.002
194.763
194.384
193.833
193.057
191.96
190.359
187.895
183.876
177.692
181.932
184.988
187.195
188.806
189.989
190.847
191.448
191.829
192.015
192.016
191.832
191.453
190.854
189.997
188.815
187.205
184.998
181.941
177.7
172.964
177.19
180.505
183.064
185.023
186.508
187.609
188.389
188.889
189.134
189.136
188.894
188.396
187.619
186.52
185.037
183.079
180.521
177.206
172.979
169.246
173.402
176.821
179.576
181.759
183.457
184.739
185.658
186.253
186.545
186.547
186.259
185.668
184.752
183.473
181.779
179.598
176.844
173.425
169.269
166.321
170.401
173.854
176.715
179.038
180.879
182.29
183.312
183.978
184.307
184.31
183.986
183.325
182.308
180.901
179.064
176.745
173.886
170.434
166.356
164.073
168.085
171.542
174.458
176.865
178.799
180.298
181.393
182.11
182.466
182.47
182.12
181.41
180.32
178.827
176.898
174.496
171.584
168.13
164.12
162.433
166.391
169.839
172.782
175.238
177.23
178.786
179.931
180.683
181.058
181.061
180.695
179.95
178.814
177.265
175.279
172.829
169.891
166.447
162.492
161.357
165.279
168.718
171.673
174.155
176.181
177.771
178.945
179.719
180.105
180.11
179.733
178.967
177.802
176.22
174.202
171.727
168.778
165.345
161.427
160.825
164.728
168.161
171.121
173.614
175.656
177.261
178.449
179.234
179.625
179.63
179.248
178.473
177.295
175.698
173.665
171.18
168.227
164.8
160.901
192.62
195.422
196.602
197.238
197.64
197.913
198.104
198.235
198.317
198.357
198.357
198.317
198.235
198.105
197.914
197.64
197.238
196.602
195.42
192.617
183.876
187.892
190.356
191.956
193.053
193.829
194.38
194.761
195.001
195.117
195.117
195.002
194.762
194.382
193.831
193.056
191.958
190.357
187.892
183.873
177.695
181.935
184.991
187.197
188.808
189.99
190.849
191.448
191.83
192.015
192.016
191.832
191.452
190.853
189.995
188.814
187.203
184.996
181.939
177.697
172.967
177.193
180.508
183.066
185.025
186.509
187.61
188.39
188.89
189.134
189.135
188.893
188.395
187.617
186.518
185.035
183.077
180.518
177.203
172.976
169.249
173.404
176.824
179.578
181.761
183.458
184.74
185.659
186.253
186.545
186.547
186.258
185.667
184.751
183.472
181.777
179.596
176.842
173.423
169.266
166.324
170.403
173.857
176.718
179.04
180.881
182.291
183.313
183.979
184.307
184.31
183.985
183.324
182.306
180.9
179.063
176.743
173.884
170.432
166.353
164.076
168.088
171.544
174.46
176.867
178.8
180.299
181.394
182.111
182.466
182.469
182.12
181.409
180.319
178.826
176.896
174.494
171.582
168.128
164.118
162.436
166.393
169.842
172.785
175.24
177.232
178.788
179.931
180.683
181.057
181.061
180.694
179.949
178.812
177.263
175.277
172.827
169.889
166.445
162.489
161.36
165.282
168.72
171.675
174.157
176.183
177.772
178.946
179.719
180.105
180.109
179.732
178.967
177.801
176.219
174.201
171.726
168.776
165.343
161.425
160.827
164.73
168.163
171.123
173.616
175.657
177.263
178.45
179.234
179.625
179.63
179.248
178.472
177.294
175.697
173.664
171.178
168.225
164.798
160.899
192.62
195.422
196.602
197.238
197.64
197.913
198.104
198.235
198.317
198.357
198.357
198.317
198.235
198.105
197.914
197.64
197.238
196.602
195.42
192.617
183.876
187.892
190.356
191.956
193.053
193.829
194.38
194.761
195.001
195.117
195.117
195.002
194.762
194.382
193.831
193.056
191.958
190.357
187.892
183.873
177.695
181.935
184.991
187.197
188.808
189.99
190.849
191.448
191.83
192.015
192.016
191.832
191.452
190.853
189.995
188.814
187.203
184.996
181.939
177.697
172.967
177.193
180.508
183.066
185.025
186.509
187.61
188.39
188.89
189.134
189.135
188.893
188.395
187.617
186.518
185.035
183.077
180.518
177.203
172.976
169.249
173.404
176.824
179.578
181.761
183.458
184.74
185.659
186.253
186.545
186.547
186.258
185.667
184.751
183.472
181.777
179.596
176.842
173.423
169.266
166.324
170.403
173.857
176.718
179.04
180.881
182.291
183.313
183.979
184.307
184.31
183.985
183.324
182.306
180.9
179.063
176.743
173.884
170.432
166.353
164.076
168.088
171.544
174.46
176.866
178.8
180.299
181.394
182.111
182.466
182.469
182.12
181.408
180.319
178.826
176.896
174.494
171.581
168.127
164.118
162.435
166.393
169.842
172.784
175.24
177.232
178.788
179.931
180.683
181.057
181.061
180.694
179.949
178.812
177.263
175.277
172.827
169.889
166.445
162.489
161.36
165.282
168.72
171.675
174.157
176.183
177.773
178.946
179.72
180.105
180.11
179.732
178.967
177.801
176.219
174.201
171.726
168.777
165.343
161.425
160.827
164.731
168.163
171.123
173.616
175.657
177.263
178.45
179.234
179.625
179.63
179.248
178.473
177.294
175.697
173.664
171.178
168.225
164.798
160.899
192.617
195.42
196.6
197.237
197.639
197.912
198.104
198.235
198.317
198.357
198.357
198.318
198.236
198.105
197.915
197.641
197.24
196.603
195.422
192.619
183.873
187.89
190.353
191.954
193.051
193.828
194.379
194.76
195
195.117
195.118
195.002
194.763
194.384
193.833
193.057
191.96
190.359
187.895
183.876
177.692
181.932
184.988
187.195
188.806
189.989
190.847
191.448
191.829
192.015
192.016
191.832
191.453
190.854
189.997
188.815
187.205
184.998
181.941
177.7
172.964
177.19
180.505
183.064
185.023
186.508
187.609
188.389
188.889
189.134
189.136
188.894
188.396
187.619
186.52
185.037
183.079
180.521
177.206
172.979
169.246
173.402
176.821
179.576
181.759
183.457
184.739
185.658
186.253
186.545
186.547
186.259
185.668
184.752
183.473
181.779
179.598
176.844
173.425
169.269
166.321
170.4
173.854
176.715
179.038
180.879
182.29
183.312
183.978
184.307
184.31
183.986
183.325
182.307
180.901
179.064
176.745
173.886
170.434
166.356
164.073
168.085
171.541
174.458
176.864
178.799
180.297
181.393
182.11
182.466
182.469
182.12
181.409
180.32
178.827
176.898
174.496
171.583
168.13
164.12
162.432
166.39
169.839
172.782
175.238
177.23
178.786
179.93
180.683
181.057
181.061
180.695
179.95
178.813
177.264
175.279
172.829
169.891
166.447
162.492
161.357
165.279
168.718
171.673
174.155
176.181
177.771
178.945
179.719
180.105
180.11
179.733
178.967
177.802
176.221
174.202
171.728
168.779
165.345
161.427
160.825
164.728
168.161
171.121
173.614
175.656
177.262
178.449
179.234
179.625
179.63
179.248
178.473
177.295
175.698
173.665
171.18
168.227
164.8
160.901
104.204
112.622
121.069
129.567
138.144
146.836
155.694
164.784
174.177
183.805
104.063
112.194
120.336
128.497
136.685
144.905
153.156
161.408
169.562
177.312
103.921
111.761
119.595
127.415
135.212
142.965
150.636
158.154
165.374
172.029
103.783
111.342
118.879
126.374
133.803
141.129
148.298
155.226
161.78
167.77
103.655
110.955
118.219
125.418
132.519
139.478
146.233
152.705
158.786
164.344
103.542
110.613
117.638
124.582
131.406
138.061
144.489
150.616
156.359
161.622
103.448
110.328
117.156
123.891
130.491
136.908
143.085
148.959
154.46
159.518
103.375
110.109
116.783
123.359
129.792
136.033
142.03
147.725
153.06
157.978
103.326
109.959
116.529
122.998
129.319
135.445
141.325
146.906
152.136
156.967
103.296
109.883
116.401
122.815
129.081
135.15