/*--------------------------------*- C++ -*----------------------------------*\
| =========                 |                                                 |
| \\      /  F ield         | OpenFOAM: The Open Source CFD Toolbox           |
|  \\    /   O peration     | Version:  2.4.0                                 |
|   \\  /    A nd           | Web:      www.OpenFOAM.org                      |
|    \\/     M anipulation  |                                                 |
\*---------------------------------------------------------------------------*/
FoamFile
{
    version     2.0;
    format      ascii;
    class       volScalarField;
    location    "10";
    object      p;
}
// * * * * * * * * * * * * * * * * * * * * * * * * * * * * * * * * * * * * * //

dimensions      [0 2 -2 0 0 0 0];

internalField   nonuniform List<scalar> 
1600
(
-7.3146e-08
-4.74872e-05
-0.000135799
-0.000242275
-0.000348499
-0.000448241
-0.000538193
-0.00061727
-0.000684655
-0.000738579
-0.000775864
-0.000791972
-0.000781371
-0.000738119
-0.000656586
-0.000532281
-0.000362749
-0.000148477
0.000106239
0.00039267
0.000697689
0.00100322
0.00128799
0.00152885
0.0017031
0.00179113
0.00177914
0.00166143
0.00144161
0.0011322
0.000754668
0.00033622
-9.36336e-05
-0.00050531
-0.000872015
-0.00117082
-0.00138454
-0.00150402
-0.00152904
-0.00145945
4.68497e-05
-3.59248e-06
-7.32407e-05
-0.000154649
-0.000238123
-0.000318172
-0.000392125
-0.000458506
-0.000515842
-0.000561986
-0.00059386
-0.000607482
-0.000598239
-0.000561301
-0.000492167
-0.000387297
-0.000244816
-6.52742e-05
0.000147424
0.000385323
0.000638554
0.000890866
0.00112392
0.00131786
0.00145314
0.001513
0.00148589
0.00136746
0.00116168
0.000880755
0.000543568
0.000174399
-0.000200822
-0.000557405
-0.000873317
-0.00113128
-0.00131908
-0.00143113
-0.00146193
-0.00139065
0.000139973
6.30272e-05
-9.17261e-06
-8.35136e-05
-0.000157342
-0.000227454
-0.000292744
-0.000352572
-0.000405803
-0.000450459
-0.000483625
-0.000501546
-0.000499866
-0.000473988
-0.000419523
-0.000332836
-0.000211692
-5.60173e-05
0.000131253
0.000343728
0.000572435
0.000801728
0.00101445
0.0011914
0.00131339
0.00136375
0.00133093
0.00121056
0.00100662
0.000731482
0.000404412
4.89935e-05
-0.000309323
-0.000646878
-0.000943953
-0.00118555
-0.00136192
-0.0014689
-0.00149735
-0.00141364
0.000256999
0.000140112
5.60844e-05
-1.89705e-05
-8.92062e-05
-0.000154159
-0.000214863
-0.000272125
-0.000325629
-0.000373837
-0.000414064
-0.000442639
-0.00045515
-0.000446759
-0.000412597
-0.000348261
-0.00025047
-0.000117869
4.80503e-05
0.000242231
0.000455861
0.000674932
0.000881992
0.00105724
0.00118041
0.00123348
0.00120349
0.00108494
0.000881288
0.000604987
0.00027609
-8.05872e-05
-0.000438965
-0.000774992
-0.00106911
-0.00130735
-0.00148164
-0.00158867
-0.00161791
-0.0015302
0.000370992
0.00021008
0.00011041
3.09406e-05
-3.93604e-05
-0.000102847
-0.000162902
-0.000222024
-0.000280927
-0.000338671
-0.00039286
-0.000439854
-0.000474999
-0.000492899
-0.000487755
-0.000453854
-0.000386267
-0.000281757
-0.000139799
3.63614e-05
0.000238412
0.000454077
0.00066519
0.000850865
0.000988913
0.00105879
0.00104481
0.000939029
0.000743143
0.000468945
0.000136954
-0.000226572
-0.000593632
-0.000938486
-0.00124122
-0.00148692
-0.0016686
-0.00178357
-0.00182169
-0.00174431
0.000462342
0.000254816
0.00013737
5.09357e-05
-2.26249e-05
-8.85613e-05
-0.000152697
-0.000219331
-0.000290347
-0.000365531
-0.000442873
-0.00051878
-0.000588254
-0.000645091
-0.00068216
-0.000691876
-0.000666965
-0.000601483
-0.00049199
-0.000339142
-0.000149978
6.56626e-05
0.000289088
0.000498324
0.000668642
0.00077582
0.000799785
0.000728112
0.000558691
0.000300832
-2.56782e-05
-0.000393554
-0.000772451
-0.00113379
-0.00145468
-0.00171939
-0.00191956
-0.00205245
-0.00210902
-0.00205493
0.000509815
0.000255311
0.000119298
2.41794e-05
-5.5521e-05
-0.000128064
-0.000201783
-0.000282869
-0.000374516
-0.00047743
-0.000590179
-0.000709357
-0.000829655
-0.00094393
-0.00104337
-0.00111795
-0.00115719
-0.00115129
-0.00109255
-0.000977744
-0.000811338
-0.000598081
-0.000357017
-0.000110578
0.000113807
0.000287143
0.000382909
0.000381333
0.000273163
6.19531e-05
-0.000235871
-0.000593509
-0.00097844
-0.0013581
-0.00170496
-0.00199942
-0.00223021
-0.00239264
-0.00247836
-0.00245899
0.000492167
0.000191803
3.72315e-05
-6.78905e-05
-0.000156642
-0.000240467
-0.000330317
-0.000434421
-0.00055753
-0.000701596
-0.000866133
-0.00104826
-0.00124259
-0.00144108
-0.00163296
-0.00180512
-0.00194281
-0.00203091
-0.0020556
-0.00200757
-0.00188629
-0.0016858
-0.00142738
-0.00113152
-0.000827522
-0.000549949
-0.000334092
-0.000210811
-0.000201326
-0.000313051
-0.000537677
-0.000852281
-0.00122356
-0.00161426
-0.00198985
-0.00232343
-0.00259753
-0.0028024
-0.0029293
-0.00295563
0.000388013
4.40232e-05
-0.000128737
-0.000245269
-0.000346473
-0.000447201
-0.000561213
-0.000699049
-0.000867432
-0.00107011
-0.00130816
-0.00157984
-0.00188016
-0.00220037
-0.00252757
-0.00284482
-0.00313172
-0.00336592
-0.00352491
-0.00358817
-0.00354102
-0.00338584
-0.00312235
-0.00277023
-0.00236024
-0.00193281
-0.00153404
-0.00121007
-0.0010002
-0.000930277
-0.00100771
-0.00121979
-0.00153624
-0.00191559
-0.00231378
-0.00269211
-0.00302179
-0.00328376
-0.00346395
-0.00354832
0.000176057
-0.00020826
-0.000398739
-0.000528528
-0.00064646
-0.000771055
-0.000919172
-0.00110411
-0.0013352
-0.00161882
-0.00195853
-0.00235464
-0.00280328
-0.00329538
-0.00381575
-0.0043427
-0.00484846
-0.00530078
-0.00566514
-0.00590707
-0.00599697
-0.0059243
-0.00567935
-0.00527394
-0.00473651
-0.00411178
-0.00345744
-0.00283831
-0.00231826
-0.00195075
-0.00176974
-0.00178321
-0.00197177
-0.00229319
-0.00269231
-0.00311308
-0.00350801
-0.00384152
-0.00409002
-0.00424632
-0.000164212
-0.000584424
-0.0007922
-0.000937772
-0.00107785
-0.0012349
-0.00142929
-0.00167768
-0.00199295
-0.00238517
-0.00286166
-0.00342592
-0.00407617
-0.00480343
-0.0055899
-0.00640798
-0.00722034
-0.00798162
-0.00864135
-0.00914758
-0.00945243
-0.00952241
-0.00933851
-0.00889906
-0.00822609
-0.00736534
-0.00638431
-0.00536747
-0.00440797
-0.00359601
-0.00300518
-0.00267935
-0.00262386
-0.0028048
-0.00315777
-0.00360407
-0.00406777
-0.00448624
-0.00481947
-0.00506407
-0.000651464
-0.00110194
-0.0013267
-0.00149137
-0.00166027
-0.00186009
-0.00211518
-0.0024464
-0.00287124
-0.00340487
-0.00405976
-0.00484398
-0.00575871
-0.00679538
-0.00793294
-0.00913616
-0.0103555
-0.0115289
-0.0125861
-0.0134537
-0.0140612
-0.0143495
-0.0142872
-0.0138526
-0.0130577
-0.0119445
-0.0105852
-0.00908038
-0.00755254
-0.00613411
-0.00495066
-0.00410028
-0.00363394
-0.00354387
-0.00376575
-0.00419643
-0.00472058
-0.00523398
-0.00566853
-0.00602203
-0.00130125
-0.0017751
-0.00201664
-0.00220448
-0.00241002
-0.00266445
-0.00299665
-0.00343256
-0.00399551
-0.00470725
-0.00558687
-0.00664821
-0.0078961
-0.00932211
-0.0109007
-0.0125866
-0.0143148
-0.0160032
-0.0175581
-0.0188813
-0.0198787
-0.0204689
-0.0205916
-0.0202169
-0.0193397
-0.0179917
-0.016242
-0.0141987
-0.0120057
-0.00983546
-0.00787154
-0.00628295
-0.00519211
-0.00464573
-0.0046014
-0.00493902
-0.00549527
-0.00610587
-0.00665771
-0.00714503
-0.00212459
-0.00261369
-0.00287181
-0.00308743
-0.00333823
-0.00366012
-0.00408699
-0.00465076
-0.00538185
-0.00630989
-0.00746184
-0.00885813
-0.0105072
-0.0123998
-0.0145035
-0.0167602
-0.0190857
-0.0213745
-0.023507
-0.0253597
-0.0268151
-0.0277698
-0.0281419
-0.0278896
-0.0269907
-0.0254625
-0.0233623
-0.0207928
-0.017905
-0.0148971
-0.0120042
-0.00947294
-0.00752071
-0.00628505
-0.00578294
-0.00590174
-0.0064313
-0.007128
-0.00781039
-0.00846026
-0.00312659
-0.00362168
-0.00389601
-0.00414415
-0.004449
-0.00485126
-0.00539026
-0.00610461
-0.0070328
-0.00821334
-0.00968178
-0.0114651
-0.0135746
-0.015998
-0.018693
-0.0215847
-0.0245664
-0.0275064
-0.0302588
-0.0326762
-0.0346212
-0.0359739
-0.0366363
-0.0365598
-0.0357078
-0.034082
-0.0317217
-0.0287112
-0.0251887
-0.0213548
-0.0174741
-0.0138599
-0.0108333
-0.00865691
-0.00745758
-0.00717689
-0.00757957
-0.00833031
-0.00914992
-0.00999355
-0.00430529
-0.00479618
-0.00508589
-0.00537086
-0.00573786
-0.00623227
-0.00689903
-0.0077839
-0.00893398
-0.0103971
-0.0122172
-0.0144271
-0.0170389
-0.0200342
-0.0233573
-0.0269127
-0.030568
-0.0341644
-0.0375307
-0.0404989
-0.0429179
-0.0446594
-0.04562
-0.0457498
-0.0450031
-0.0433702
-0.0408714
-0.0375642
-0.0335556
-0.0290209
-0.0242195
-0.0194994
-0.0152708
-0.0119365
-0.00978364
-0.008875
-0.00900191
-0.00974512
-0.0106979
-0.0117692
-0.0056509
-0.00612672
-0.0064303
-0.00675526
-0.00719075
-0.0077865
-0.00859295
-0.00966299
-0.0110523
-0.0128176
-0.0150105
-0.0176677
-0.0207993
-0.0243777
-0.0283299
-0.0325364
-0.0368377
-0.0410486
-0.0449752
-0.0484344
-0.0512677
-0.0533492
-0.0545835
-0.0549148
-0.054305
-0.0527403
-0.050226
-0.046791
-0.0425015
-0.0374841
-0.0319564
-0.0262542
-0.0208339
-0.0162221
-0.0128956
-0.0111107
-0.010767
-0.0114043
-0.0124701
-0.0138005
-0.00714554
-0.00759518
-0.00791008
-0.00827639
-0.00878388
-0.00948614
-0.0104386
-0.0117008
-0.0133362
-0.0154095
-0.0179783
-0.0210807
-0.0247221
-0.028862
-0.0334075
-0.0382137
-0.0430942
-0.0478391
-0.0522373
-0.056096
-0.0592563
-0.0616021
-0.0630584
-0.0635531
-0.0630812
-0.0616292
-0.0591951
-0.0557858
-0.0514272
-0.0461875
-0.0402149
-0.0337856
-0.0273414
-0.0214805
-0.0168578
-0.0139766
-0.0129407
-0.0133345
-0.0144717
-0.0160878
-0.00876379
-0.00917635
-0.00949881
-0.00990527
-0.0104845
-0.0112931
-0.0123907
-0.0138424
-0.0157185
-0.0180898
-0.0210175
-0.0245392
-0.0286525
-0.0333024
-0.0383745
-0.0436989
-0.0490643
-0.0542408
-0.0590043
-0.0631587
-0.06655
-0.0690727
-0.0706646
-0.0712859
-0.0709322
-0.0696043
-0.0673035
-0.0640272
-0.0597721
-0.0545525
-0.0484377
-0.0416112
-0.0344401
-0.0275185
-0.0216217
-0.0175075
-0.0155691
-0.0155501
-0.0166923
-0.0186124
-0.0104738
-0.0108392
-0.0111641
-0.0116065
-0.0122525
-0.013161
-0.0143946
-0.0160227
-0.0181206
-0.0207633
-0.0240138
-0.0279066
-0.0324303
-0.0375146
-0.0430246
-0.0487678
-0.054512
-0.0600118
-0.0650353
-0.0693872
-0.0729216
-0.0755449
-0.0772101
-0.0779017
-0.0776286
-0.0764074
-0.0742508
-0.0711584
-0.0671137
-0.0620936
-0.056097
-0.0492047
-0.0416674
-0.0339988
-0.0270056
-0.0216487
-0.0186556
-0.0180438
-0.019099
-0.0213299
-0.0122391
-0.0125487
-0.0128695
-0.0133404
-0.0140433
-0.0150383
-0.01639
-0.0181706
-0.0204583
-0.0233307
-0.0268505
-0.031048
-0.0359029
-0.0413303
-0.0471778
-0.0532345
-0.0592523
-0.064975
-0.070167
-0.074636
-0.0782442
-0.0809101
-0.0826004
-0.083317
-0.0830852
-0.0819386
-0.0799059
-0.0769993
-0.0732049
-0.0684825
-0.0627827
-0.0560953
-0.0485411
-0.0404977
-0.0327079
-0.0262408
-0.0221373
-0.0207751
-0.0216305
-0.0241656
-0.014021
-0.0142681
-0.0145773
-0.015066
-0.0158105
-0.0168717
-0.0183151
-0.0202139
-0.0226478
-0.0256951
-0.0294174
-0.0338405
-0.0389359
-0.0446075
-0.0506894
-0.0569576
-0.0631533
-0.0690141
-0.0743031
-0.0788311
-0.0824673
-0.0851391
-0.0868234
-0.0875347
-0.0873121
-0.0862051
-0.0842608
-0.0815098
-0.0779531
-0.0735532
-0.0682378
-0.0619322
-0.0546395
-0.0465786
-0.0383527
-0.0310263
-0.0258705
-0.0236579
-0.0241925
-0.0270117
-0.015781
-0.0159617
-0.0162509
-0.0167434
-0.0175094
-0.0186096
-0.0201101
-0.0220839
-0.0246109
-0.0277688
-0.0316175
-0.0361792
-0.0414198
-0.0472357
-0.0534527
-0.0598392
-0.0661309
-0.0720623
-0.0773966
-0.081947
-0.0855863
-0.0882466
-0.0899109
-0.0906013
-0.0903666
-0.0892698
-0.0873756
-0.0847356
-0.0813728
-0.0772669
-0.0723461
-0.0665022
-0.0596497
-0.0518569
-0.0435471
-0.0356788
-0.029634
-0.02655
-0.0266556
-0.029727
-0.0174836
-0.0175967
-0.0178575
-0.0183373
-0.0191
-0.0202055
-0.0217214
-0.0237199
-0.0262795
-0.0294772
-0.0333715
-0.0379825
-0.0432735
-0.0491377
-0.0553981
-0.0618208
-0.0681401
-0.0740903
-0.0794348
-0.0839869
-0.08762
-0.0902664
-0.0919103
-0.0925766
-0.0923198
-0.0912131
-0.0893363
-0.0867614
-0.0835366
-0.0796666
-0.0750973
-0.0697143
-0.0633793
-0.0560394
-0.0479332
-0.0398459
-0.0331479
-0.0292486
-0.0288531
-0.0321392
-0.0190976
-0.019146
-0.019371
-0.0198189
-0.0205505
-0.0216194
-0.0231043
-0.0250713
-0.0275985
-0.0307623
-0.0346206
-0.0391935
-0.0444446
-0.0502685
-0.0564903
-0.0628782
-0.069169
-0.0750983
-0.0804291
-0.0849731
-0.0886004
-0.0912395
-0.0928714
-0.0935201
-0.0932411
-0.0921138
-0.0902313
-0.087683
-0.0845409
-0.0808381
-0.0765473
-0.0715684
-0.0657429
-0.058935
-0.0512228
-0.0431898
-0.0360974
-0.0315049
-0.0305753
-0.0340458
-0.0205993
-0.0205891
-0.020771
-0.0211686
-0.0218418
-0.0228173
-0.0242242
-0.0260999
-0.0285273
-0.0315836
-0.0353272
-0.0397803
-0.0449097
-0.0506148
-0.0567264
-0.0630189
-0.0692342
-0.0751106
-0.0804109
-0.0849428
-0.0885698
-0.091213
-0.0928467
-0.0934901
-0.0931972
-0.0920463
-0.0901461
-0.0875962
-0.0844897
-0.0808868
-0.0767898
-0.0721245
-0.0667372
-0.0604469
-0.0532097
-0.0454157
-0.0381573
-0.0330278
-0.0315735
-0.0352082
-0.0219733
-0.0219165
-0.0220464
-0.0223681
-0.022933
-0.0238032
-0.0250619
-0.0267805
-0.0290403
-0.0319187
-0.0354756
-0.0397357
-0.0446716
-0.0501901
-0.056131
-0.0622779
-0.0683797
-0.0741784
-0.0794355
-0.0839533
-0.0875869
-0.0902472
-0.0918981
-0.0925506
-0.0922561
-0.0910939
-0.0891709
-0.0866008
-0.0834919
-0.0799286
-0.0759398
-0.0714808
-0.0664173
-0.0605542
-0.0537673
-0.0462843
-0.0390098
-0.0334854
-0.0315524
-0.0353344
-0.0232136
-0.0231268
-0.0231984
-0.023421
-0.0238436
-0.0245416
-0.025598
-0.027097
-0.0291241
-0.0317596
-0.0350661
-0.0390722
-0.0437568
-0.0490355
-0.054759
-0.0607212
-0.0666797
-0.0723804
-0.0775841
-0.0820869
-0.0857338
-0.0884239
-0.0901093
-0.0907905
-0.090511
-0.0893473
-0.087406
-0.0848066
-0.0816686
-0.0780914
-0.0741277
-0.0697598
-0.0648784
-0.0592928
-0.0528349
-0.0456115
-0.0383517
-0.0325065
-0.0301519
-0.0340459
-0.024324
-0.0242287
-0.0242367
-0.0243331
-0.0245696
-0.0250352
-0.0258277
-0.0270441
-0.0287781
-0.0311143
-0.0341189
-0.0378246
-0.042216
-0.0472179
-0.0526914
-0.0584419
-0.0642358
-0.0698242
-0.074967
-0.0794547
-0.0831218
-0.0858545
-0.0875915
-0.0883213
-0.088078
-0.0869279
-0.0849775
-0.0823461
-0.0791572
-0.0755192
-0.0715
-0.0671012
-0.0622408
-0.0567365
-0.0504008
-0.0432587
-0.0358951
-0.0296784
-0.0269193
-0.0308288
-0.0253191
-0.0252428
-0.0251803
-0.0251173
-0.0251161
-0.0252872
-0.0257516
-0.0266247
-0.0280118
-0.0300038
-0.0326698
-0.0360455
-0.0401201
-0.0448256
-0.0500332
-0.0555586
-0.0611774
-0.0666462
-0.0717254
-0.0762
-0.0798949
-0.0826831
-0.0844893
-0.0852892
-0.0851086
-0.0839879
-0.0820405
-0.0793776
-0.0761194
-0.0723753
-0.0682189
-0.0636625
-0.0586352
-0.0529786
-0.0464808
-0.0391168
-0.0313636
-0.0245478
-0.0212789
-0.0249796
-0.0262254
-0.0262042
-0.026059
-0.0257925
-0.0254922
-0.0253009
-0.0253725
-0.0258468
-0.0268434
-0.02846
-0.0307675
-0.0338027
-0.0375565
-0.0419658
-0.0469092
-0.0522117
-0.0576575
-0.063009
-0.0680279
-0.0724955
-0.0762276
-0.0790853
-0.0809787
-0.0818666
-0.0817527
-0.0807033
-0.0787767
-0.0760838
-0.0727377
-0.0688394
-0.0644577
-0.0596033
-0.0542067
-0.0481083
-0.0410927
-0.0330817
-0.0244802
-0.0166214
-0.0125101
-0.0155613
-0.027084
-0.0271698
-0.0269149
-0.0263824
-0.0257078
-0.0250782
-0.0246947
-0.0247228
-0.0252984
-0.026525
-0.0284735
-0.0311778
-0.0346274
-0.0387604
-0.0434599
-0.0485579
-0.0538463
-0.0590935
-0.0640635
-0.0685352
-0.0723177
-0.075261
-0.0772615
-0.0782639
-0.0782586
-0.0772809
-0.0753848
-0.0726613
-0.0692044
-0.0650969
-0.0603899
-0.0550779
-0.0490754
-0.0422053
-0.034232
-0.0250253
-0.0149384
-0.00534462
0.000274463
-0.00137899
-0.0279783
-0.0282176
-0.0278007
-0.0269137
-0.0257759
-0.0246192
-0.0237221
-0.0232704
-0.0234116
-0.0242532
-0.0258622
-0.0282657
-0.0314473
-0.0353424
-0.0398354
-0.0447629
-0.0499231
-0.0550897
-0.0600304
-0.0645233
-0.0683723
-0.0714182
-0.0735447
-0.0746808
-0.0747988
-0.0739097
-0.0720566
-0.0692968
-0.0656985
-0.0613158
-0.0561682
-0.0502149
-0.0433326
-0.035302
-0.025842
-0.0147741
-0.00237301
0.00997202
0.0181778
0.0190169
-0.0290485
-0.0294851
-0.0288022
-0.0274149
-0.0256819
-0.0239384
-0.0224633
-0.0215152
-0.0212303
-0.0217137
-0.0230234
-0.0251747
-0.0281415
-0.0318527
-0.0361909
-0.0409945
-0.0460662
-0.0511852
-0.0561226
-0.0606572
-0.0645897
-0.0677531
-0.0700196
-0.0713024
-0.0715549
-0.0707653
-0.0689492
-0.0661352
-0.062354
-0.0576175
-0.0518961
-0.0450915
-0.0370136
-0.0273684
-0.0158001
-0.00206422
0.0136272
0.0302152
0.0425523
0.0472744
-0.0305811
-0.0311997
-0.0300361
-0.027931
-0.0254499
-0.0230129
-0.0209508
-0.0195021
-0.0188224
-0.0189966
-0.0200655
-0.0220284
-0.0248457
-0.028437
-0.03268
-0.0374131
-0.0424417
-0.0475492
-0.0525103
-0.0571055
-0.0611334
-0.064421
-0.0668298
-0.0682586
-0.0686414
-0.0679421
-0.0661453
-0.0632446
-0.0592269
-0.0540462
-0.0476037
-0.0397148
-0.0300867
-0.0183067
-0.00390566
0.0134562
0.0336188
0.0562491
0.0747833
0.0852691
-0.033198
-0.0337627
-0.0316742
-0.0285227
-0.0251093
-0.0218957
-0.0192234
-0.0173112
-0.0162905
-0.0162212
-0.0171196
-0.0189649
-0.0217013
-0.0252369
-0.029443
-0.0341556
-0.0391813
-0.0443068
-0.0493101
-0.0539735
-0.0580948
-0.0614966
-0.0640319
-0.0655861
-0.0660751
-0.0654388
-0.0636301
-0.0605987
-0.0562825
-0.0505631
-0.0432512
-0.0340414
-0.0224938
-0.00801526
0.0100428
0.0322209
0.0585259
0.0884291
0.115781
0.135954
-0.0384539
-0.037917
-0.0339704
-0.0293019
-0.0247435
-0.0206804
-0.0173994
-0.0150709
-0.0137757
-0.0135347
-0.0143332
-0.0161264
-0.0188408
-0.0223721
-0.0265838
-0.0313087
-0.0363539
-0.0415082
-0.0465529
-0.0512727
-0.055466
-0.0589527
-0.0615796
-0.0632209
-0.063776
-0.0631621
-0.0613025
-0.0581079
-0.0534346
-0.0471024
-0.0388081
-0.0280902
-0.0143139
0.00337857
0.0259242
0.0542295
0.0884842
0.12821
0.167183
0.204968
-0.0506723
-0.044975
-0.0373603
-0.0305079
-0.0245166
-0.0195058
-0.0156185
-0.0129228
-0.0114202
-0.0110765
-0.011837
-0.0136298
-0.0163628
-0.0199193
-0.0241556
-0.0289018
-0.0339654
-0.0391379
-0.0442046
-0.0489537
-0.0531855
-0.0567194
-0.0593982
-0.0610876
-0.0616721
-0.0610458
-0.0590988
-0.0557081
-0.0506759
-0.0437306
-0.0344497
-0.0222023
-0.00612875
0.014989
0.0425431
0.0781688
0.122666
0.176401
0.234454
0.304061
-0.0754087
-0.054865
-0.0415839
-0.0315188
-0.0236448
-0.0176491
-0.0132982
-0.0104165
-0.00887052
-0.00855552
-0.00937871
-0.0112454
-0.0140492
-0.0176659
-0.0219488
-0.0267288
-0.0318164
-0.0370083
-0.0420948
-0.0468688
-0.051134
-0.0547103
-0.0574381
-0.0591771
-0.0598019
-0.059188
-0.0571935
-0.0536204
-0.0483236
-0.0409095
-0.0308678
-0.0174324
0.000443213
0.0243497
0.0562721
0.0991793
0.155865
0.230427
0.322517
0.453712
-0.172398
-0.0593375
-0.0304504
-0.0206514
-0.0139122
-0.00895002
-0.00575724
-0.00397682
-0.00332865
-0.00370412
-0.00505701
-0.00733323
-0.0104546
-0.0143183
-0.0187958
-0.0237333
-0.0289551
-0.034269
-0.0394749
-0.0443724
-0.0487693
-0.0524867
-0.0553628
-0.0572515
-0.0580205
-0.0575404
-0.0556841
-0.052288
-0.0469998
-0.039456
-0.0291577
-0.0153061
0.003207
0.0281455
0.0617761
0.108397
0.173711
0.272635
0.418666
0.656272
)
;

boundaryField
{
    carasuperior
    {
        type            zeroGradient;
    }
    lateralizquierda
    {
        type            zeroGradient;
    }
    lateralderecha
    {
        type            zeroGradient;
    }
    carainferior
    {
        type            zeroGradient;
    }
    frontAndBack
    {
        type            empty;
    }
}


// ************************************************************************* //
