/*--------------------------------*- C++ -*----------------------------------*\
| =========                 |                                                 |
| \\      /  F ield         | OpenFOAM: The Open Source CFD Toolbox           |
|  \\    /   O peration     | Version:  2.4.0                                 |
|   \\  /    A nd           | Web:      www.OpenFOAM.org                      |
|    \\/     M anipulation  |                                                 |
\*---------------------------------------------------------------------------*/
FoamFile
{
    version     2.0;
    format      ascii;
    class       surfaceScalarField;
    location    "10";
    object      phi;
}
// * * * * * * * * * * * * * * * * * * * * * * * * * * * * * * * * * * * * * //

dimensions      [0 3 -1 0 0 0 0];

internalField   nonuniform List<scalar> 
3120
(
2.98471e-07
-2.98404e-07
3.22719e-07
-2.42489e-08
-9.49536e-08
4.17673e-07
-9.17015e-07
8.22062e-07
-2.05566e-06
1.13865e-06
-3.42178e-06
1.36611e-06
-4.95228e-06
1.5305e-06
-6.612e-06
1.65972e-06
-8.38528e-06
1.77328e-06
-1.02653e-05
1.88002e-06
-1.22441e-05
1.9788e-06
-1.43045e-05
2.06043e-06
-1.64145e-05
2.10996e-06
-1.85235e-05
2.10897e-06
-2.05613e-05
2.0378e-06
-2.2439e-05
1.87776e-06
-2.40524e-05
1.61343e-06
-2.52877e-05
1.2353e-06
-2.60305e-05
7.42719e-07
-2.61764e-05
1.45909e-07
-2.56373e-05
-5.39076e-07
-2.4364e-05
-1.27328e-06
-2.23526e-05
-2.01136e-06
-1.96534e-05
-2.69926e-06
-1.63741e-05
-3.27927e-06
-1.26775e-05
-3.69661e-06
-8.77075e-06
-3.90675e-06
-4.88858e-06
-3.88218e-06
-1.27053e-06
-3.61804e-06
1.86485e-06
-3.13538e-06
4.3384e-06
-2.47355e-06
6.0291e-06
-1.6907e-06
6.88558e-06
-8.56469e-07
6.92701e-06
-4.14353e-08
6.23711e-06
6.89903e-07
4.96706e-06
1.27006e-06
3.33866e-06
1.6284e-06
1.66757e-06
1.67109e-06
3.957e-07
1.27187e-06
3.957e-07
3.21662e-08
-3.30571e-07
-6.95118e-07
7.03035e-07
-2.39966e-06
2.12221e-06
-5.00867e-06
3.43107e-06
-8.35642e-06
4.48639e-06
-1.22777e-05
5.28744e-06
-1.6642e-05
5.89475e-06
-2.13608e-05
6.37848e-06
-2.63775e-05
6.79001e-06
-3.16493e-05
7.15183e-06
-3.71277e-05
7.45723e-06
-4.27424e-05
7.67505e-06
-4.83888e-05
7.75642e-06
-5.39223e-05
7.64249e-06
-5.91566e-05
7.27209e-06
-6.38685e-05
6.58958e-06
-6.78078e-05
5.55277e-06
-7.07131e-05
4.14057e-06
-7.23308e-05
2.36048e-06
-7.24535e-05
2.68566e-07
-7.08988e-05
-2.09379e-06
-6.759e-05
-4.58202e-06
-6.25481e-05
-7.05331e-06
-5.59076e-05
-9.33977e-06
-4.79214e-05
-1.12654e-05
-3.8953e-05
-1.2665e-05
-2.94555e-05
-1.34043e-05
-1.99391e-05
-1.33985e-05
-1.09296e-05
-1.26276e-05
-2.92192e-06
-1.1143e-05
3.66975e-06
-9.06522e-06
8.54522e-06
-6.56616e-06
1.15469e-05
-3.85816e-06
1.26746e-05
-1.16917e-06
1.20901e-05
1.27446e-06
1.01066e-05
3.25355e-06
7.19567e-06
4.53932e-06
3.98856e-06
4.8782e-06
1.27523e-06
3.9852e-06
1.67094e-06
-4.93335e-07
1.62764e-07
-2.39168e-06
2.60138e-06
-5.71974e-06
5.45028e-06
-1.03113e-05
8.02261e-06
-1.59398e-05
1.0115e-05
-2.23902e-05
1.17378e-05
-2.94917e-05
1.29962e-05
-3.71217e-05
1.40085e-05
-4.51914e-05
1.48597e-05
-5.36227e-05
1.55831e-05
-6.23239e-05
1.61584e-05
-7.11694e-05
1.65206e-05
-7.99853e-05
1.65723e-05
-8.85424e-05
1.61996e-05
-9.65576e-05
1.52873e-05
-0.000103703
1.37347e-05
-0.000109621
1.14708e-05
-0.000113949
8.46882e-06
-0.000116347
4.75891e-06
-0.000116535
4.56462e-07
-0.000114286
-4.34317e-06
-0.000109513
-9.35523e-06
-0.000102255
-1.43115e-05
-9.2699e-05
-1.88954e-05
-8.11855e-05
-2.27789e-05
-6.81968e-05
-2.56537e-05
-5.43353e-05
-2.72658e-05
-4.02858e-05
-2.74481e-05
-2.67655e-05
-2.61478e-05
-1.44664e-05
-2.34421e-05
-3.99462e-06
-1.9537e-05
4.19058e-06
-1.47514e-05
9.81375e-06
-9.48133e-06
1.28118e-05
-4.16718e-06
1.33484e-05
7.37856e-07
1.18074e-05
4.79452e-06
8.78769e-06
7.55902e-06
5.0947e-06
8.57119e-06
1.74002e-06
7.33988e-06
3.41095e-06
-1.111e-06
1.27377e-06
-4.37966e-06
5.87004e-06
-9.54286e-06
1.06135e-05
-1.62802e-05
1.476e-05
-2.42804e-05
1.81152e-05
-3.32825e-05
2.07399e-05
-4.30894e-05
2.28032e-05
-5.35599e-05
2.4479e-05
-6.45852e-05
2.5885e-05
-7.6061e-05
2.70588e-05
-8.78591e-05
2.79565e-05
-9.98051e-05
2.84666e-05
-0.000111664
2.84311e-05
-0.000123134
2.76699e-05
-0.000133853
2.60057e-05
-0.000143407
2.32889e-05
-0.000151357
1.94205e-05
-0.000157261
1.43734e-05
-0.000160711
8.20908e-06
-0.000161365
1.10985e-06
-0.000158965
-6.74281e-06
-0.00015339
-1.49306e-05
-0.00014467
-2.30314e-05
-0.000133004
-3.05615e-05
-0.000118765
-3.70179e-05
-0.000102496
-4.19221e-05
-8.48924e-05
-4.48697e-05
-6.67615e-05
-4.55789e-05
-4.89749e-05
-4.39345e-05
-3.24006e-05
-4.00164e-05
-1.78289e-05
-3.41087e-05
-5.89948e-06
-2.66808e-05
2.96511e-06
-1.83459e-05
8.60126e-06
-9.80333e-06
1.11183e-05
-1.77922e-06
1.09129e-05
4.99992e-06
8.64505e-06
9.8269e-06
5.231e-06
1.19852e-05
1.84563e-06
1.07253e-05
5.25658e-06
-1.76875e-06
3.04252e-06
-6.50233e-06
1.06036e-05
-1.36184e-05
1.77296e-05
-2.26033e-05
2.37449e-05
-3.30421e-05
2.85539e-05
-4.46257e-05
3.23235e-05
-5.7139e-05
3.53164e-05
-7.04335e-05
3.77735e-05
-8.43936e-05
3.98452e-05
-9.89004e-05
4.15656e-05
-0.0001138
4.28561e-05
-0.00012888
4.35466e-05
-0.000143855
4.34064e-05
-0.000158365
4.21795e-05
-0.000171979
3.96195e-05
-0.000184214
3.55241e-05
-0.000194559
2.97654e-05
-0.000202501
2.2316e-05
-0.000207564
1.32712e-05
-0.000209332
2.87875e-06
-0.000207501
-8.57396e-06
-0.000201877
-2.0555e-05
-0.000192442
-3.24665e-05
-0.000179357
-4.36463e-05
-0.000162979
-5.33957e-05
-0.000143865
-6.10362e-05
-0.000122761
-6.59734e-05
-0.000100575
-6.77651e-05
-7.8324e-05
-6.61856e-05
-5.70637e-05
-6.12767e-05
-3.77993e-05
-5.33731e-05
-2.13891e-05
-4.3091e-05
-8.45616e-06
-3.12789e-05
6.78716e-07
-1.89382e-05
6.03853e-06
-7.13904e-06
7.9803e-06
3.05815e-06
7.19357e-06
1.06136e-05
4.67488e-06
1.45039e-05
1.72367e-06
1.36765e-05
6.98025e-06
-2.43679e-06
5.4793e-06
-8.67577e-06
1.68426e-05
-1.77969e-05
2.68507e-05
-2.9077e-05
3.5025e-05
-4.19888e-05
4.14657e-05
-5.61756e-05
4.65103e-05
-7.14106e-05
5.05514e-05
-8.75496e-05
5.39125e-05
-0.000104482
5.67779e-05
-0.000122088
5.91713e-05
-0.0001402
6.09677e-05
-0.000158578
6.19254e-05
-0.000176901
6.17292e-05
-0.000194758
6.00367e-05
-0.000211663
5.65245e-05
-0.00022707
5.09304e-05
-0.000240396
4.30915e-05
-0.000251054
3.29746e-05
-0.000258485
2.07014e-05
-0.000262182
6.57648e-06
-0.000261759
-8.99752e-06
-0.000256908
-2.54053e-05
-0.000247521
-4.18541e-05
-0.000233671
-5.74966e-05
-0.000215648
-7.14179e-05
-0.00019398
-8.27049e-05
-0.000169428
-9.05248e-05
-0.00014298
-9.4213e-05
-0.000115801
-9.33653e-05
-8.91572e-05
-8.79202e-05
-6.43176e-05
-7.82127e-05
-4.24253e-05
-6.49834e-05
-2.43751e-05
-4.93291e-05
-1.07114e-05
-3.26019e-05
-1.56991e-06
-1.62805e-05
3.34334e-06
-1.8551e-06
4.7213e-06
9.23566e-06
3.6262e-06
1.5599e-05
1.46331e-06
1.58394e-05
8.44356e-06
-3.10336e-06
8.58266e-06
-1.08499e-05
2.45891e-05
-2.19786e-05
3.79794e-05
-3.55547e-05
4.86011e-05
-5.09395e-05
5.68506e-05
-6.77332e-05
6.3304e-05
-8.57061e-05
6.85243e-05
-0.000104729
7.2935e-05
-0.000124708
7.67571e-05
-0.000145533
7.99967e-05
-0.000167036
8.24705e-05
-0.000188963
8.38521e-05
-0.000210962
8.37283e-05
-0.000232584
8.16585e-05
-0.000253289
7.72304e-05
-0.00027247
7.01114e-05
-0.000289471
6.00919e-05
-0.000303617
4.71206e-05
-0.000314247
3.13315e-05
-0.000320741
1.3071e-05
-0.000322609
-7.13043e-06
-0.000319382
-2.86316e-05
-0.000310827
-5.04095e-05
-0.000296887
-7.14364e-05
-0.00027774
-9.05653e-05
-0.000253829
-0.000106615
-0.000225893
-0.000118462
-0.00019496
-0.000125145
-0.00016233
-0.000125995
-0.000129499
-0.000120752
-9.80444e-05
-0.000109667
-6.9476e-05
-9.35518e-05
-4.5059e-05
-7.37461e-05
-2.56618e-05
-5.1999e-05
-1.16525e-05
-3.02899e-05
-2.86386e-06
-1.06438e-05
1.37972e-06
4.99208e-06
2.20286e-06
1.47759e-05
1.11673e-06
1.69255e-05
9.56029e-06
-3.75893e-06
1.23416e-05
-1.29839e-05
3.3814e-05
-2.60802e-05
5.10757e-05
-4.19098e-05
6.44307e-05
-5.97309e-05
7.46717e-05
-7.91093e-05
8.26824e-05
-9.98218e-05
8.92367e-05
-0.000121764
9.48771e-05
-0.00014487
9.98632e-05
-0.00016905
0.000104177
-0.000194143
0.000107563
-0.000219887
0.000109597
-0.00024591
0.000109752
-0.000271725
0.000107473
-0.000296742
0.000102247
-0.000320284
9.36538e-05
-0.000341615
8.1423e-05
-0.000359964
6.54697e-05
-0.000374558
4.5925e-05
-0.00038464
2.31534e-05
-0.000389623
-2.1476e-06
-0.000388829
-2.94261e-05
-0.000381902
-5.73363e-05
-0.000368617
-8.47206e-05
-0.000348994
-0.000110189
-0.00032334
-0.000132269
-0.000292298
-0.000149503
-0.000256881
-0.000160563
-0.000218468
-0.000164408
-0.000178764
-0.000160456
-0.000139686
-0.000148745
-0.000103184
-0.000130053
-7.10142e-05
-0.000105916
-4.45041e-05
-7.85091e-05
-2.43791e-05
-5.04149e-05
-1.06821e-05
-2.43407e-05
-2.79958e-06
-2.89044e-06
4.47804e-07
1.15285e-05
7.09153e-07
1.66641e-05
1.02694e-05
-4.3907e-06
1.67323e-05
-1.50329e-05
4.44562e-05
-3.0015e-05
6.60579e-05
-4.80116e-05
8.24273e-05
-6.81907e-05
9.48508e-05
-9.00949e-05
0.000104587
-0.000113517
0.000112658
-0.000138385
0.000119745
-0.000164669
0.000126147
-0.000192304
0.000131812
-0.000221143
0.000136401
-0.000250918
0.000139373
-0.000281236
0.000140069
-0.000311569
0.000137807
-0.000341272
0.00013195
-0.000369597
0.000121978
-0.000395718
0.000107545
-0.000418767
8.85184e-05
-0.000437861
6.50185e-05
-0.000452143
3.74355e-05
-0.00046078
6.48978e-06
-0.00046315
-2.70556e-05
-0.000458629
-6.18578e-05
-0.00044683
-9.65192e-05
-0.000427584
-0.000129435
-0.000401002
-0.000158852
-0.000367548
-0.000182957
-0.00032811
-0.000200002
-0.000284045
-0.000208473
-0.000237186
-0.000207315
-0.00018976
-0.000196171
-0.000144204
-0.00017561
-0.000102885
-0.000147235
-6.77655e-05
-0.000113628
-4.01088e-05
-7.80716e-05
-2.03101e-05
-4.41394e-05
-7.89423e-06
-1.53063e-05
-1.64002e-06
5.27433e-06
2.46318e-07
1.47778e-05
1.05158e-05
-4.98145e-06
2.17137e-05
-1.6943e-05
5.64178e-05
-3.36835e-05
8.27984e-05
-5.37118e-05
0.000102456
-7.61214e-05
0.00011726
-0.000100442
0.000128907
-0.00012649
0.000138706
-0.000154231
0.000147486
-0.000183672
0.000155588
-0.000214776
0.000162916
-0.000247403
0.000169028
-0.000281279
0.000173249
-0.000315981
0.000174771
-0.000350934
0.00017276
-0.000385428
0.000166443
-0.000418636
0.000155187
-0.000449648
0.000138557
-0.000477506
0.000116376
-0.000501241
8.87531e-05
-0.000519912
5.61071e-05
-0.000532596
1.91736e-05
-0.000538578
-2.10738e-05
-0.000537125
-6.33106e-05
-0.000527687
-0.000105958
-0.000509883
-0.000147238
-0.000483574
-0.000185161
-0.000448945
-0.000217586
-0.000406618
-0.000242328
-0.000357764
-0.000257327
-0.000304179
-0.000260899
-0.000248282
-0.000252068
-0.00019297
-0.000230922
-0.000141309
-0.000198897
-9.60887e-05
-0.000158848
-5.93587e-05
-0.000114802
-3.20899e-05
-7.14082e-05
-1.40898e-05
-3.33064e-05
-4.14786e-06
-4.66764e-06
-2.91258e-07
1.09212e-05
1.02245e-05
-5.5098e-06
2.72235e-05
-1.86507e-05
6.95587e-05
-3.69708e-05
0.000101119
-5.88399e-05
0.000124325
-8.32935e-05
0.000141714
-0.000109857
0.000155471
-0.000138372
0.000167221
-0.000168841
0.000177956
-0.000201305
0.000188052
-0.000235745
0.000197356
-0.000272023
0.000205307
-0.000309844
0.00021107
-0.000348743
0.000213669
-0.000388084
0.000212102
-0.000427084
0.000205443
-0.000464838
0.00019294
-0.000500359
0.000174079
-0.00053263
0.000148647
-0.000560642
0.000116765
-0.000583432
7.88976e-05
-0.000600091
3.58321e-05
-0.000609821
-1.13437e-05
-0.000611894
-6.12376e-05
-0.000605635
-0.000112217
-0.000590469
-0.000162404
-0.000565972
-0.000209658
-0.00053196
-0.000251598
-0.000488637
-0.000285651
-0.000436775
-0.00030919
-0.000377887
-0.000319787
-0.000314349
-0.000315606
-0.000249362
-0.000295909
-0.000186682
-0.000261577
-0.000130096
-0.000215435
-8.27361e-05
-0.000162161
-4.64789e-05
-0.000107665
-2.16606e-05
-5.81246e-05
-7.19388e-06
-1.91344e-05
-9.30348e-07
4.65766e-06
9.29416e-06
-5.95113e-06
3.31747e-05
-2.0084e-05
8.36916e-05
-3.97482e-05
0.000120783
-6.32055e-05
0.000147782
-8.94475e-05
0.000167956
-0.000117999
0.000184023
-0.000148725
0.000197947
-0.000181658
0.000210888
-0.000216858
0.000223252
-0.000254313
0.000234811
-0.000293869
0.000244863
-0.000335192
0.000252394
-0.000377757
0.000256235
-0.000420855
0.0002552
-0.000463622
0.00024821
-0.00050508
0.000234398
-0.000544194
0.000213193
-0.00057993
0.000184383
-0.000611306
0.000148141
-0.000637421
0.000105012
-0.000657464
5.58757e-05
-0.000670659
1.85129e-06
-0.000676382
-5.55146e-05
-0.000673903
-0.000114696
-0.000662513
-0.000173794
-0.000641514
-0.000230657
-0.000610308
-0.000282804
-0.000568552
-0.000327406
-0.000516398
-0.000361344
-0.000454775
-0.00038141
-0.000385666
-0.000384715
-0.000312255
-0.00036932
-0.000238808
-0.000335024
-0.000170155
-0.000284087
-0.000110812
-0.000221504
-6.39915e-05
-0.000154486
-3.09491e-05
-9.1167e-05
-1.09485e-05
-3.91349e-05
-1.72085e-06
-4.57001e-06
7.57331e-06
-6.27919e-06
3.94539e-05
-2.1167e-05
9.85794e-05
-4.18799e-05
0.000141496
-6.66054e-05
0.000172507
-9.43044e-05
0.000195655
-0.0001245
0.000214218
-0.000157069
0.000230517
-0.000192059
0.000245878
-0.000229534
0.000260726
-0.000269465
0.000274742
-0.000311663
0.00028706
-0.000355733
0.000296464
-0.000401073
0.000301574
-0.000446889
0.000301016
-0.000492237
0.000293559
-0.000536086
0.000278247
-0.000577387
0.000254494
-0.000615147
0.000222143
-0.00064848
0.000181474
-0.000676633
0.000133166
-0.000698973
7.82149e-05
-0.000714932
1.78109e-05
-0.000723959
-4.64876e-05
-0.000725466
-0.000113189
-0.000718683
-0.000180577
-0.000702712
-0.000246628
-0.000676559
-0.000308957
-0.000639281
-0.000364684
-0.000590245
-0.00041038
-0.000529501
-0.000442154
-0.00045822
-0.000455996
-0.00037909
-0.00044845
-0.000296469
-0.000417645
-0.000216054
-0.000364502
-0.000143919
-0.000293639
-8.50962e-05
-0.000213309
-4.23225e-05
-0.000133941
-1.5608e-05
-6.58494e-05
-2.72094e-06
-1.74571e-05
4.85237e-06
-6.46826e-06
4.59221e-05
-2.18249e-05
0.000113936
-4.32311e-05
0.000162902
-6.88376e-05
0.000198114
-9.75834e-05
0.000224401
-0.000128983
0.000245618
-0.000162911
0.000264444
-0.000199406
0.000282373
-0.000238514
0.000299834
-0.000280167
0.000316396
-0.000324116
0.000331009
-0.000369889
0.000342236
-0.000416794
0.000348479
-0.000463951
0.000348173
-0.00051035
0.000339958
-0.000554933
0.000322829
-0.000596681
0.000296242
-0.000634698
0.00026016
-0.000668264
0.00021504
-0.000696845
0.000161747
-0.000720066
0.000101435
-0.000737636
3.53809e-05
-0.000749195
-3.49284e-05
-0.000754391
-0.000107993
-0.000752519
-0.000182449
-0.000742601
-0.000256547
-0.000723355
-0.000328203
-0.000693296
-0.000394744
-0.000650959
-0.000452716
-0.000595317
-0.000497797
-0.000526339
-0.000524974
-0.000445651
-0.000529138
-0.000357062
-0.000506234
-0.000266632
-0.000454932
-0.000181882
-0.000378389
-0.000110065
-0.000285125
-5.6102e-05
-0.000187904
-2.13696e-05
-0.000100582
-3.99563e-06
-3.48311e-05
8.56735e-07
-6.49582e-06
5.24179e-05
-2.19914e-05
0.000129432
-4.36809e-05
0.000184591
-6.97173e-05
0.00022415
-9.90257e-05
0.000253709
-0.0001311
0.000277692
-0.000165791
0.000299135
-0.000203105
0.000319687
-0.000243044
0.000339772
-0.00028548
0.000358832
-0.000330086
0.000375615
-0.000376303
0.000388453
-0.00042335
0.000395527
-0.000470273
0.000395096
-0.000516022
0.000385706
-0.000559549
0.000366356
-0.000599912
0.000336606
-0.000636364
0.000296611
-0.000668392
0.000247069
-0.000695729
0.000189084
-0.000718295
0.000124001
-0.000736124
5.32102e-05
-0.00074911
-2.1943e-05
-0.000757215
-9.98873e-05
-0.000759916
-0.000179747
-0.000756313
-0.000260151
-0.000745019
-0.000339497
-0.000724172
-0.000415591
-0.000691594
-0.000485295
-0.000645151
-0.000544239
-0.00058338
-0.000586745
-0.000506333
-0.000606185
-0.000416511
-0.000596056
-0.000319506
-0.000551937
-0.000223746
-0.000474149
-0.000138795
-0.000370077
-7.24758e-05
-0.000254223
-2.84004e-05
-0.000144657
-5.60822e-06
-5.76233e-05
-4.75149e-06
-6.34537e-06
5.87633e-05
-2.16159e-05
0.000144702
-4.31341e-05
0.000206109
-6.90966e-05
0.000250113
-9.84202e-05
0.000283033
-0.000130565
0.000309837
-0.000165333
0.000333903
-0.000202675
0.000357029
-0.000242525
0.000379622
-0.000284681
0.000400988
-0.00032873
0.000419664
-0.00037403
0.000433753
-0.000419727
0.000441224
-0.000464823
0.000440192
-0.000508266
0.000429149
-0.000549064
0.000407154
-0.000586395
0.000373937
-0.000619691
0.000329907
-0.000648672
0.00027605
-0.000673335
0.000213747
-0.000693892
0.000144559
-0.000710691
7.00091e-05
-0.000723904
-8.73003e-06
-0.000733832
-8.99598e-05
-0.000740203
-0.000173377
-0.000742353
-0.000258
-0.000739004
-0.000342846
-0.000728178
-0.000426417
-0.00070724
-0.000506232
-0.000673148
-0.000578331
-0.000623007
-0.000636886
-0.000555003
-0.000674189
-0.000469652
-0.000681406
-0.000371075
-0.000650514
-0.000267592
-0.000577632
-0.000170632
-0.000467037
-9.14025e-05
-0.000333453
-3.67952e-05
-0.000199264
-7.60329e-06
-8.68152e-05
-1.23548e-05
-6.00905e-06
6.47723e-05
-2.06709e-05
0.000159364
-4.15342e-05
0.000226973
-6.68821e-05
0.000275461
-9.56298e-05
0.00031178
-0.000127189
0.000341396
-0.000161291
0.000368006
-0.000197808
0.000393546
-0.000236592
0.000418406
-0.000277358
0.000441754
-0.000319617
0.000461924
-0.000362663
0.000476799
-0.000405603
0.000484165
-0.000447438
0.000482027
-0.000487164
0.000468875
-0.000523892
0.000443882
-0.000556953
0.000406999
-0.000585974
0.000358928
-0.000610896
0.000300972
-0.000631952
0.000234803
-0.00064959
0.000162197
-0.000664383
8.48018e-05
-0.000676876
3.76334e-06
-0.000687464
-7.93714e-05
-0.000696277
-0.000164564
-0.000702976
-0.000251301
-0.000706573
-0.000339248
-0.000705261
-0.000427729
-0.000696307
-0.000515187
-0.000676127
-0.000598511
-0.000640676
-0.000672337
-0.000586302
-0.000728564
-0.000511142
-0.000756565
-0.000416926
-0.00074473
-0.000310568
-0.000683991
-0.000204265
-0.000573339
-0.00011253
-0.000425188
-4.65458e-05
-0.000265248
-1.00141e-05
-0.000123347
-2.23689e-05
-5.4897e-06
7.0262e-05
-1.91578e-05
0.000173032
-3.8874e-05
0.000246689
-6.30513e-05
0.000299638
-9.06123e-05
0.000339341
-0.000120909
0.000371693
-0.000153584
0.000400681
-0.000188414
0.000428376
-0.00022516
0.000455153
-0.000263464
0.000480057
-0.000302779
0.000501239
-0.000342371
0.000516391
-0.000381357
0.000523151
-0.00041879
0.00051946
-0.000453767
0.000503852
-0.000485544
0.000475658
-0.000513628
0.000435083
-0.000537835
0.000383135
-0.000558298
0.000321434
-0.000575419
0.000251924
-0.000589802
0.00017658
-0.000602145
9.71446e-05
-0.000613303
1.49216e-05
-0.000623641
-6.90333e-05
-0.000633684
-0.000154522
-0.000643438
-0.000241548
-0.000652326
-0.00033036
-0.00065895
-0.000421105
-0.000660845
-0.000513292
-0.000654351
-0.000605005
-0.000634755
-0.000691932
-0.000596926
-0.000766393
-0.000536636
-0.000816855
-0.000452655
-0.000828711
-0.000349236
-0.00078741
-0.000237755
-0.00068482
-0.000135146
-0.000527797
-5.75119e-05
-0.000342882
-1.28441e-05
-0.000168015
-3.5213e-05
-4.80201e-06
7.50641e-05
-1.7111e-05
0.000185341
-3.52022e-05
0.00026478
-5.76625e-05
0.000322098
-8.34341e-05
0.000365113
-0.000111803
0.000400062
-0.000142312
0.00043119
-0.000174633
0.000460697
-0.000208441
0.000488961
-0.000243316
0.000514931
-0.000278689
0.000536612
-0.000313843
0.000551545
-0.00034796
0.000557268
-0.000380203
0.000551702
-0.000409817
0.000533466
-0.000436237
0.000502078
-0.000459154
0.000458
-0.000478556
0.000402537
-0.000494713
0.000337591
-0.00050813
0.000265341
-0.000519473
0.000187923
-0.000529498
0.000107169
-0.00053902
2.44433e-05
-0.000548655
-5.9398e-05
-0.000559014
-0.000144162
-0.000570424
-0.000230138
-0.000582759
-0.000318024
-0.000595173
-0.000408692
-0.000605757
-0.000502708
-0.000611222
-0.00059954
-0.000606758
-0.000696396
-0.00058634
-0.000786811
-0.000543784
-0.000859411
-0.000474826
-0.000897669
-0.000380191
-0.000882045
-0.000268751
-0.00079626
-0.000158196
-0.000638353
-6.94112e-05
-0.000431667
-1.60639e-05
-0.000221362
-5.12769e-05
-3.97252e-06
7.90366e-05
-1.45983e-05
0.000195967
-3.06269e-05
0.000280809
-5.08595e-05
0.000342331
-7.42759e-05
0.000388529
-0.000100098
0.000425884
-0.000127763
0.000458855
-0.000156838
0.000489772
-0.000186921
0.000519043
-0.000217555
0.000545566
-0.000248188
0.000567245
-0.00027817
0.000581527
-0.000306799
0.000585898
-0.000333401
0.000578303
-0.00035741
0.000557476
-0.000378456
0.000523124
-0.000396411
0.000475954
-0.000411402
0.000417528
-0.000423786
0.000349975
-0.000434096
0.000275651
-0.000442978
0.000196805
-0.000451135
0.000115327
-0.000459295
3.26027e-05
-0.000468131
-5.05618e-05
-0.000478302
-0.000133991
-0.000490345
-0.000218095
-0.000504524
-0.000303845
-0.000520573
-0.000392644
-0.000537297
-0.000485983
-0.000552113
-0.000584724
-0.000560641
-0.000687868
-0.000556634
-0.000790818
-0.000532623
-0.000883422
-0.000481706
-0.000948586
-0.000400787
-0.000962964
-0.000294899
-0.000902148
-0.000180394
-0.000752858
-8.18362e-05
-0.000530225
-1.96111e-05
-0.000283587
-7.08881e-05
-3.03845e-06
8.2075e-05
-1.172e-05
0.000204649
-2.5313e-05
0.000294402
-4.28696e-05
0.000359888
-6.34284e-05
0.000409088
-8.61568e-05
0.000448612
-0.00011039
0.000483088
-0.000135598
0.00051498
-0.000161315
0.00054476
-0.000187077
0.000571327
-0.000212383
0.00059255
-0.000236696
0.00060584
-0.00025948
0.000608682
-0.00028026
0.000599083
-0.000298685
0.000575901
-0.000314588
0.000539026
-0.000328003
0.00048937
-0.000339164
0.000428689
-0.000348464
0.000359275
-0.000356405
0.000283592
-0.000363547
0.000203947
-0.000370476
0.000122256
-0.000377786
3.9912e-05
-0.000386075
-4.22721e-05
-0.000395976
-0.000124091
-0.000408122
-0.000205949
-0.000423055
-0.000288911
-0.000441009
-0.00037469
-0.000461523
-0.000465469
-0.000482894
-0.000563353
-0.000501563
-0.0006692
-0.000511678
-0.000780703
-0.000505253
-0.000889847
-0.00047346
-0.000980379
-0.000409648
-0.00102678
-0.000314285
-0.000997511
-0.000200413
-0.000866729
-9.43027e-05
-0.000636335
-2.33965e-05
-0.000354493
-9.42845e-05
-2.04556e-06
8.41206e-05
-8.60349e-06
0.000211206
-1.94771e-05
0.000305275
-3.39959e-05
0.000374406
-5.1282e-05
0.000426374
-7.04649e-05
0.000467795
-9.07912e-05
0.000503415
-0.000111644
0.000535833
-0.000132512
0.000565628
-0.000152948
0.000591763
-0.000172535
0.000612138
-0.000190887
0.000624192
-0.000207664
0.000625459
-0.000222616
0.000614035
-0.00023562
0.000588906
-0.000246704
0.00055011
-0.000256046
0.000498711
-0.000263951
0.000436594
-0.000270811
0.000366135
-0.000277059
0.00028984
-0.000283134
0.000210023
-0.000289469
0.000128591
-0.000296496
4.69393e-05
-0.000304678
-3.40905e-05
-0.000314547
-0.000114222
-0.000326732
-0.000193764
-0.000341919
-0.000273725
-0.000360698
-0.00035591
-0.00038324
-0.000442927
-0.000408736
-0.000537858
-0.000434658
-0.000643277
-0.000456022
-0.000759339
-0.000465043
-0.000880827
-0.000451813
-0.000993609
-0.00040679
-0.0010718
-0.000325798
-0.0010785
-0.000217127
-0.0009754
-0.000106328
-0.000747134
-2.73177e-05
-0.000433504
-0.000121602
-1.04579e-06
8.51664e-05
-5.39761e-06
0.000215558
-1.33778e-05
0.000313255
-2.46055e-05
0.000385634
-3.83103e-05
0.000440079
-5.36063e-05
0.000483091
-6.96712e-05
0.00051948
-8.58185e-05
0.00055198
-0.000101509
0.000581318
-0.000116329
0.000606584
-0.000129973
0.000625782
-0.000142223
0.000636442
-0.000152958
0.000636194
-0.000162162
0.00062324
-0.000169938
0.000596681
-0.000176496
0.000556668
-0.000182139
0.000504353
-0.000187218
0.000441674
-0.000192102
0.000371019
-0.000197136
0.000294874
-0.000202631
0.000215517
-0.000208861
0.000134822
-0.000216095
5.41736e-05
-0.00022464
-2.5546e-05
-0.000234891
-0.00010397
-0.000247393
-0.000181262
-0.000262848
-0.00025827
-0.000282039
-0.000336718
-0.000305589
-0.000419378
-0.000333463
-0.000509983
-0.0003642
-0.00061254
-0.000393961
-0.000729578
-0.000415745
-0.000859043
-0.000419401
-0.000989953
-0.000393367
-0.00109783
-0.000329247
-0.00114262
-0.000229812
-0.00107483
-0.000117526
-0.00085942
-3.12851e-05
-0.000519744
-0.000152887
-9.23097e-08
8.52587e-05
-2.26232e-06
0.000217728
-7.30486e-06
0.000318298
-1.51151e-05
0.000393444
-2.50527e-05
0.000450017
-3.6239e-05
0.000494277
-4.78124e-05
0.000531053
-5.90366e-05
0.000563204
-6.9359e-05
0.000591641
-7.84172e-05
0.000615642
-8.60219e-05
0.000633386
-9.21376e-05
0.000642557
-9.68623e-05
0.000640919
-0.000100414
0.000626792
-0.000103109
0.000599376
-0.000105329
0.000558888
-0.000107479
0.000506504
-0.000109949
0.000444144
-0.000113074
0.000374144
-0.000117117
0.000298917
-0.000122268
0.000220668
-0.000128666
0.00014122
-0.000136435
6.19422e-05
-0.000145735
-1.62458e-05
-0.000156815
-9.28905e-05
-0.000170089
-0.000167988
-0.000186183
-0.000242177
-0.000205912
-0.000316989
-0.000230147
-0.000395143
-0.000259424
-0.000480706
-0.000293232
-0.000578732
-0.000328969
-0.000693841
-0.000360819
-0.000827193
-0.000379112
-0.00097166
-0.000371192
-0.00110575
-0.000325194
-0.00118862
-0.000238184
-0.00116185
-0.000127683
-0.000969921
-3.52587e-05
-0.000612168
-0.000188146
7.62755e-07
8.44959e-05
6.3108e-07
0.00021786
-1.56165e-06
0.000320491
-5.9739e-06
0.000397857
-1.20983e-05
0.000456141
-1.90691e-05
0.000501248
-2.60418e-05
0.000538026
-3.22451e-05
0.000569408
-3.71302e-05
0.000596526
-4.03922e-05
0.000618904
-4.19601e-05
0.000634954
-4.19804e-05
0.000642578
-4.07596e-05
0.000639698
-3.87362e-05
0.000624768
-3.64234e-05
0.000597064
-3.43556e-05
0.00055682
-3.30343e-05
0.000505182
-3.28821e-05
0.000443991
-3.42139e-05
0.000375476
-3.72292e-05
0.000301932
-4.2027e-05
0.000225466
-4.86387e-05
0.000147832
-5.70727e-05
7.03761e-05
-6.73782e-05
-5.9403e-06
-7.96625e-05
-8.06062e-05
-9.41913e-05
-0.000153459
-0.00011146
-0.000224908
-0.000132195
-0.000296254
-0.00015732
-0.000370018
-0.000187704
-0.000450321
-0.000223572
-0.000542864
-0.00026349
-0.000653923
-0.00030303
-0.000787653
-0.000333578
-0.000941112
-0.000342266
-0.00109706
-0.000314665
-0.00121622
-0.000242407
-0.0012341
-0.000136723
-0.00107561
-3.92925e-05
-0.000709599
-0.000227439
1.45803e-06
8.30379e-05
3.0806e-06
0.000216237
3.49405e-06
0.000320077
2.34469e-06
0.000399006
1.61834e-08
0.000458469
-2.81669e-06
0.000504081
-5.19739e-06
0.000540406
-6.38592e-06
0.000570596
-5.86215e-06
0.000596002
-3.38747e-06
0.000616429
9.88799e-07
0.000630578
6.9823e-06
0.000636584
1.40829e-05
0.000632597
2.16559e-05
0.000617195
2.90041e-05
0.000589715
3.54446e-05
0.000550379
4.03789e-05
0.000500248
4.33423e-05
0.000441028
4.40263e-05
0.000374792
4.2272e-05
0.000303686
3.804e-05
0.000229698
3.13675e-05
0.000154504
2.23233e-05
7.94204e-05
1.09551e-05
5.42785e-06
-2.74609e-06
-6.6905e-05
-1.89518e-05
-0.000137253
-3.7943e-05
-0.000205917
-6.02858e-05
-0.000273911
-8.68064e-05
-0.000343498
-0.000118484
-0.000418644
-0.00015602
-0.000505328
-0.000198961
-0.000610983
-0.000244302
-0.000742311
-0.00028488
-0.000900534
-0.000308396
-0.00107355
-0.000298824
-0.00122579
-0.000242935
-0.00128999
-0.000144802
-0.00117374
-4.3579e-05
-0.000810822
-0.000271018
1.94845e-06
8.10895e-05
4.94524e-06
0.000213241
7.54183e-06
0.000317481
9.28388e-06
0.000397264
1.04263e-05
0.000457327
1.16815e-05
0.000502826
1.38221e-05
0.000538266
1.75724e-05
0.000566846
2.34164e-05
0.000590158
3.15286e-05
0.000608317
4.17606e-05
0.000620346
5.36643e-05
0.000624681
6.65739e-05
0.000619688
7.96775e-05
0.000604092
9.21155e-05
0.000577278
0.000103073
0.000539422
0.000111857
0.000491464
0.000117948
0.000434937
0.000121017
0.000371723
0.000120909
0.000303794
0.000117608
0.000232999
0.000111182
0.00016093
0.000101736
8.88657e-05
8.93807e-05
1.77834e-05
7.41615e-05
-5.16859e-05
5.60877e-05
-0.000119179
3.49872e-05
-0.000184817
1.05028e-05
-0.000249427
-1.80034e-05
-0.000314991
-5.14105e-05
-0.000385237
-9.06412e-05
-0.000466097
-0.000135971
-0.000565653
-0.000185721
-0.000692561
-0.000234402
-0.000851853
-0.00027094
-0.00103701
-0.000278675
-0.00121806
-0.000240294
-0.00132837
-0.000152234
-0.0012618
-4.84757e-05
-0.00091458
-0.000319493
2.17972e-06
7.89097e-05
6.02376e-06
0.000209397
1.02345e-05
0.00031327
1.43926e-05
0.000393106
1.86984e-05
0.000453021
2.37368e-05
0.000497788
3.0213e-05
0.000531789
3.87604e-05
0.000558298
4.97848e-05
0.000579134
6.33774e-05
0.000594725
7.92891e-05
0.000604434
9.69577e-05
0.000607012
0.000115577
0.000601069
0.00013419
0.000585479
0.000151798
0.00055967
0.000167463
0.000523757
0.000180394
0.000478533
0.000189998
0.000425332
0.000195898
0.000365823
0.000197911
0.000301782
0.000196004
0.000234906
0.000190245
0.000166689
0.000180753
9.83579e-05
0.000167659
3.08774e-05
0.000151065
-3.50921e-05
0.000131068
-9.91818e-05
0.000107649
-0.000161398
8.06562e-05
-0.000222434
4.97127e-05
-0.000284048
1.41296e-05
-0.000349653
-2.70142e-05
-0.000424954
-7.44388e-05
-0.000518228
-0.000127611
-0.000639389
-0.000182786
-0.000796678
-0.000230643
-0.000989155
-0.000254823
-0.00119388
-0.000234843
-0.00134835
-0.000159342
-0.0013373
-5.44881e-05
-0.00101943
-0.000373981
2.08693e-06
7.68228e-05
6.10127e-06
0.000205382
1.1175e-05
0.000308196
1.70951e-05
0.000387186
2.40661e-05
0.00044605
3.25627e-05
0.000489291
4.31503e-05
0.000521202
5.63243e-05
0.000545124
7.23716e-05
0.000563086
9.12799e-05
0.000575816
0.000112702
0.000583012
0.000135974
0.00058374
0.000160182
0.000576861
0.000184255
0.000561406
0.000207081
0.000536844
0.000227613
0.000503224
0.000244962
0.000461184
0.000258449
0.000411845
0.000267624
0.000356649
0.000272243
0.000297162
0.000272232
0.000234918
0.000267627
0.000171293
0.000258535
0.00010745
0.000245092
4.43209e-05
0.000227409
-1.74094e-05
0.000205695
-7.74678e-05
0.000180036
-0.000135739
0.000150475
-0.000192873
0.000116889
-0.000250462
7.88651e-05
-0.00031163
3.56313e-05
-0.00038172
-1.37609e-05
-0.000468836
-6.96043e-05
-0.000583545
-0.000129926
-0.000736356
-0.000187526
-0.000931555
-0.00022726
-0.00115414
-0.000226518
-0.0013491
-0.000166238
-0.00139758
-6.21884e-05
-0.00112348
-0.00043617
1.58078e-06
7.5242e-05
4.90022e-06
0.000202063
9.89139e-06
0.000303205
1.67656e-05
0.000380311
2.58078e-05
0.000437008
3.73742e-05
0.000477725
5.18309e-05
0.000506745
6.94681e-05
0.000527487
9.03994e-05
0.000542155
0.000114476
0.00055174
0.000141244
0.000556244
0.00016995
0.000555033
0.000199599
0.000547213
0.000229037
0.000531968
0.000257066
0.000508814
0.000282553
0.000477738
0.000304516
0.000439221
0.000322183
0.000394178
0.000335017
0.000343815
0.000342694
0.000289485