/*--------------------------------*- C++ -*----------------------------------*\
| =========                 |                                                 |
| \\      /  F ield         | OpenFOAM: The Open Source CFD Toolbox           |
|  \\    /   O peration     | Version:  2.4.0                                 |
|   \\  /    A nd           | Web:      www.OpenFOAM.org                      |
|    \\/     M anipulation  |                                                 |
\*---------------------------------------------------------------------------*/
FoamFile
{
    version     2.0;
    format      ascii;
    class       volScalarField;
    location    "1.005";
    object      T;
}
// * * * * * * * * * * * * * * * * * * * * * * * * * * * * * * * * * * * * * //

dimensions      [0 0 0 1 0 0 0];

internalField   nonuniform List<scalar> 
1600
(
101.414
104.24
107.064
109.883
112.696
115.501
118.296
121.079
123.849
126.604
129.343
132.062
134.762
137.441
140.098
142.73
145.339
147.921
150.478
153.008
155.511
157.987
160.435
162.858
165.254
167.624
169.971
172.294
174.594
176.874
179.136
181.379
183.607
185.821
188.023
190.215
192.398
194.575
196.746
198.916
101.415
104.243
107.068
109.889
112.704
115.511
118.308
121.093
123.865
126.621
129.361
132.082
134.783
137.464
140.121
142.755
145.364
147.947
150.504
153.034
155.537
158.013
160.461
162.883
165.278
167.648
169.993
172.315
174.614
176.893
179.153
181.395
183.621
185.833
188.033
190.223
192.405
194.58
196.75
198.917
101.416
104.248
107.077
109.902
112.72
115.53
118.331
121.119
123.894
126.654
129.396
132.12
134.824
137.507
140.166
142.802
145.413
147.997
150.555
153.086
155.589
158.065
160.513
162.934
165.328
167.696
170.039
172.359
174.656
176.932
179.188
181.427
183.649
185.858
188.055
190.241
192.418
194.589
196.755
198.919
101.419
104.256
107.09
109.92
112.744
115.559
118.365
121.158
123.938
126.702
129.449
132.177
134.885
137.571
140.234
142.872
145.485
148.072
150.631
153.163
155.666
158.142
160.589
163.009
165.402
167.768
170.108
172.424
174.717
176.989
179.241
181.475
183.692
185.895
188.086
190.267
192.439
194.604
196.764
198.922
101.423
104.267
107.108
109.945
112.776
115.598
118.41
121.21
123.996
126.766
129.518
132.252
134.965
137.655
140.322
142.964
145.58
148.169
150.731
153.264
155.768
158.243
160.69
163.108
165.499
167.862
170.199
172.511
174.799
177.065
179.311
181.538
183.749
185.945
188.129
190.302
192.466
194.623
196.776
198.926
101.427
104.28
107.13
109.976
112.815
115.645
118.466
121.273
124.067
126.845
129.604
132.344
135.063
137.759
140.431
143.077
145.697
148.289
150.853
153.388
155.893
158.369
160.815
163.231
165.619
167.979
170.311
172.618
174.901
177.16
179.399
181.618
183.821
186.008
188.182
190.346
192.5
194.648
196.791
198.931
101.432
104.295
107.156
110.012
112.861
115.702
118.532
121.349
124.152
126.938
129.706
132.454
135.18
137.882
140.56
143.212
145.836
148.432
150.999
153.535
156.042
158.518
160.963
163.377
165.762
168.118
170.446
172.747
175.022
177.274
179.504
181.714
183.906
186.083
188.246
190.398
192.541
194.677
196.808
198.936
101.438
104.313
107.186
110.054
112.915
115.768
118.609
121.437
124.25
127.046
129.824
132.58
135.315
138.025
140.709
143.367
145.996
148.597
151.166
153.706
156.213
158.689
161.133
163.546
165.928
168.279
170.602
172.896
175.164
177.407
179.627
181.826
184.006
186.171
188.321
190.46
192.59
194.712
196.829
198.943
101.445
104.334
107.221
110.103
112.977
115.842
118.696
121.537
124.362
127.169
129.957
132.724
135.467
138.186
140.878
143.542
146.178
148.782
151.356
153.898
156.407
158.883
161.326
163.737
166.115
168.462
170.778
173.065
175.324
177.557
179.766
181.953
184.121
186.271
188.407
190.531
192.645
194.752
196.853
198.951
101.453
104.358
107.26
110.157
113.046
115.926
118.795
121.649
124.487
127.307
130.107
132.885
135.638
138.366
141.066
143.738
146.379
148.989
151.567
154.111
156.622
159.098
161.541
163.949
166.324
168.666
170.975
173.254
175.504
177.726
179.923
182.097
184.25
186.385
188.504
190.611
192.708
194.797
196.88
198.96
101.462
104.384
107.303
110.217
113.123
116.02
118.904
121.773
124.626
127.46
130.272
133.062
135.827
138.565
141.274
143.953
146.601
149.217
151.798
154.346
156.858
159.335
161.776
164.182
166.553
168.889
171.192
173.463
175.703
177.913
180.097
182.256
184.393
186.511
188.613
190.7
192.778
194.847
196.91
198.97
101.471
104.412
107.351
110.284
113.209
116.123
119.024
121.91
124.779
127.628
130.454
133.257
136.033
138.782
141.501
144.189
146.844
149.465
152.051
154.601
157.115
159.592
162.032
164.435
166.802
169.133
171.428
173.69
175.919
178.118
180.288
182.431
184.551
186.65
188.732
190.799
192.855
194.902
196.944
198.982
101.482
104.444
107.404
110.357
113.302
116.236
119.156
122.061
124.946
127.811
130.653
133.47
136.259
139.019
141.748
144.444
147.106
149.733
152.324
154.877
157.392
159.869
162.308
164.708
167.07
169.395
171.683
173.935
176.153
178.339
180.494
182.621
184.723
186.803
188.863
190.908
192.94
194.963
196.981
198.994
101.494
104.479
107.461
110.438
113.405
116.36
119.301
122.225
125.129
128.011
130.869
133.701
136.503
139.276
142.015
144.72
147.39
150.023
152.618
155.174
157.69
160.167
162.604
165.001
167.358
169.677
171.956
174.199
176.405
178.578
180.717
182.827
184.91
186.968
189.006
191.026
193.033
195.03
197.021
199.007
101.506
104.517
107.525
110.525
113.516
116.495
119.458
122.403
125.328
128.229
131.104
133.952
136.769
139.553
142.304
145.019
147.696
150.335
152.935
155.493
158.011
160.487
162.922
165.315
167.667
169.978
172.249
174.481
176.675
178.833
180.957
183.048
185.111
187.147
189.16
191.154
193.134
195.103
197.065
199.022
101.52
104.559
107.594
110.621
113.639
116.642
119.63
122.598
125.544
128.465
131.359
134.224
137.056
139.854
142.616
145.341
148.027
150.672
153.276
155.837
158.356
160.832
163.264
165.653
167.999
170.302
172.563
174.784
176.964
179.107
181.213
183.286
185.327
187.339
189.327
191.293
193.243
195.181
197.112
199.037
101.535
104.604
107.669
110.726
113.772
116.803
119.817
122.81
125.779
128.722
131.636
134.519
137.367
140.18
142.954
145.689
148.383
151.035
153.644
156.208
158.728
161.202
163.632
166.016
168.355
170.65
172.901
175.108
177.275
179.401
181.489
183.54
185.559
187.546
189.507
191.444
193.362
195.267
197.164
199.055
101.552
104.654
107.752
110.841
113.918
116.979
120.021
123.041
126.036
129.002
131.937
134.839
137.705
140.533
143.32
146.067
148.77
151.428
154.042
156.609
159.129
161.603
164.029
166.408
168.74
171.025
173.264
175.459
177.609
179.717
181.785
183.814
185.808
187.768
189.7
191.606
193.49
195.36
197.22
199.073
101.57
104.709
107.843
110.967
114.078
117.171
120.245
123.294
126.316
129.307
132.265
135.188
138.072
140.916
143.718
146.476
149.188
151.854
154.473
157.043
159.565
162.037
164.46
166.833
169.157
171.431
173.658
175.837
177.97
180.059
182.104
184.109
186.076
188.008
189.908
191.781
193.629
195.46
197.281
199.093
101.591
104.769
107.942
111.105
114.253
117.382
120.489
123.57
126.621
129.64
132.623
135.568
138.472
141.334
144.151
146.921
149.644
152.318
154.942
157.516
160.038
162.509
164.927
167.294
169.609
171.873
174.086
176.249
178.363
180.43
182.451
184.429
186.367
188.267
190.133
191.969
193.78
195.569
197.347
199.115
101.613
104.835
108.052
111.256
114.445
117.613
120.757
123.873
126.956
130.004
133.014
135.984
138.909
141.789
144.622
147.406
150.14
152.823
155.453
158.03
160.553
163.022
165.437
167.797
170.102
172.354
174.551
176.696
178.79
180.833
182.828
184.777
186.682
188.548
190.377
192.174
193.943
195.688
197.419
199.139
101.637
104.908
108.172
111.423
114.657
117.868
121.052
124.205
127.324
130.404
133.443
136.438
139.387
142.287
145.138
147.936
150.682
153.373
156.01
158.591
161.115
163.582
165.992
168.345
170.64
172.878
175.059
177.185
179.256
181.274
183.24
185.157
187.027
188.855
190.643
192.397
194.12
195.817
197.498
199.165
101.664
104.989
108.305
111.608
114.89
118.148
121.377
124.571
127.728
130.843
133.913
136.937
139.91
142.833
145.701
148.516
151.274
153.975
156.619
159.203
161.728
164.194
166.599
168.943
171.227
173.451
175.615
177.719
179.766
181.756
183.691
185.573
187.405
189.19
190.934
192.64
194.313
195.958
197.584
199.193
101.694
105.078
108.453
111.812
115.149
118.458
121.735
124.975
128.173
131.326
134.43
137.484
140.485
143.43
146.319
149.15
151.921
154.633
157.283
159.872
162.398
164.862
167.261
169.597
171.869
174.077
176.222
178.304
180.324
182.284
184.185
186.029
187.819
189.559
191.254
192.908
194.526
196.113
197.679
199.225
101.727
105.178
108.617
112.039
115.436
118.802
122.132
125.421
128.664
131.858
134.999
138.086
141.115
144.085
146.995
149.844
152.629
155.352
158.01
160.603
163.13
165.591
167.985
170.312
172.571
174.762
176.887
178.944
180.936
182.863
184.727
186.53
188.275
189.965
191.606
193.202
194.759
196.283
197.784
199.26
101.764
105.288
108.8
112.291
115.754
119.183
122.571
125.914
129.206
132.444
135.625
138.747
141.807
144.804
147.736
150.603
153.404
156.138
158.804
161.401
163.929
166.388
168.775
171.092
173.338
175.512
177.615
179.646
181.608
183.5
185.324
187.083
188.778
190.414
191.995
193.528
195.018
196.472
197.899
199.298
101.806
105.412
109.004
112.572
116.109
119.607
123.059
126.46
129.806
133.092
136.315
139.474
142.567
145.592
148.548
151.435
154.251
156.997
159.671
162.273
164.802
167.257
169.638
171.945
174.176
176.331
178.411
180.415
182.344
184.199
185.981
187.691
189.333
190.909
192.426
193.889
195.304
196.68
198.027
199.341
101.852
105.551
109.232
112.887
116.505
120.079
123.601
127.066
130.469
133.806
137.076
140.275
143.402
146.456
149.437
152.344
155.177
157.935
160.617
163.223
165.753
168.205
170.579
172.875
175.091
177.227
179.283
181.258
183.153
184.968
186.704
188.363
189.946
191.459
192.905
194.29
195.623
196.913
198.17
199.388
101.904
105.706
109.489
113.239
116.948
120.605
124.204
127.738
131.203
134.596
137.914
141.155
144.318
147.403
150.41
153.338
156.187
158.957
161.648
164.258
166.789
169.238
171.605
173.889
176.09
178.206
180.236
182.181
184.04
185.813
187.501
189.104
190.626
192.068
193.437
194.738
195.98
197.173
198.329
199.441
101.963
105.882
109.778
113.636
117.445
121.194
124.877
128.486
132.017
135.468
138.837
142.122
145.323
148.44
151.473
154.422
157.288
160.071
162.77
165.385
167.915
170.361
172.721
174.993
177.178
179.273
181.278
183.192
185.013
186.742
188.379
189.924
191.379
192.746
194.031
195.239
196.38
197.466
198.508
199.501
102.031
106.082
110.106
114.084
118.004
121.855
125.628
129.317
132.919
136.431
139.853
143.183
146.423
149.572
152.632
155.603
158.486
161.281
163.989
166.608
169.139
171.581
173.933
176.194
178.362
180.436
182.415
184.297
186.08
187.764
189.348
190.831
192.215
193.502
194.695
195.802
196.832
197.797
198.71
199.569
102.108
106.311
110.479
114.593
118.637
122.598
126.468
130.243
133.919
137.495
140.971
144.348
147.626
150.808
153.895
156.888
159.788
162.595
165.31
167.934
170.465
172.903
175.248
177.496
179.648
181.702
183.654
185.504
187.249
188.886
190.416
191.835
193.145
194.346
195.442
196.437
197.342
198.172
198.94
199.647
102.197
106.575
110.909
115.175
119.355
123.436
127.41
131.275
135.027
138.668
142.199
145.623
148.94
152.155
155.268
158.282
161.198
164.017
166.74
169.367
171.899
174.334
176.67
178.908
181.044
183.077
185.003
186.821
188.528
190.12
191.594
192.949
194.182
195.292
196.283
197.158
197.925
198.602
199.203
199.737
102.301
106.883
111.408
115.846
120.175
124.385
128.469
132.425
136.256
139.962
143.548
147.017
150.373
153.618
156.756
159.79
162.722
165.553
168.283
170.914
173.446
175.877
178.207
180.433
182.554
184.568
186.47
188.257
189.927
191.474
192.894
194.183
195.338
196.356
197.235
197.98
198.596
199.101
199.509
199.843
102.426
107.249
111.995
116.625
121.117
125.463
129.66
133.71
137.617
141.387
145.026
148.538
151.93
155.205
158.367
161.42
164.366
167.207
169.944
172.579
175.111
177.539
179.862
182.078
184.186
186.181
188.06
189.82
191.454
192.959
194.327
195.554
196.631
197.555
198.32
198.926
199.376
199.687
199.873
199.971
102.58
107.696
112.698
117.541
122.207
126.693
131.002
135.143
139.124
142.954
146.642
150.194
153.618
156.92
160.104
163.174
166.133
168.983
171.727
174.365
176.897
179.323
181.641
183.848
185.944
187.923
189.782
191.517
193.12
194.586
195.908
197.075
198.08
198.912
199.562
200.024
200.295
200.389
200.313
200.128
102.779
108.258
113.559
118.633
123.477
128.101
132.517
136.742
140.789
144.673
148.404
151.992
155.445
158.77
161.972
165.057
168.028
170.887
173.637
176.278
178.811
181.234
183.548
185.749
187.834
189.801
191.643
193.357
194.934
196.368
197.648
198.765
199.705
200.453
200.995
201.314
201.395
201.247
200.857
200.323
103.052
109.001
114.637
119.949
124.965
129.714
134.225
138.522
142.626
146.554
150.321
153.938
157.415
160.759
163.977
167.075
170.055
172.922
175.677
178.321
180.855
183.278
185.589
187.785
189.864
191.821
193.651
195.349
196.906
198.315
199.564
200.64
201.527
202.207
202.655
202.846
202.744
202.333
201.562
200.584
103.511
110.041
116.012
121.545
126.709
131.562
136.147
140.499
144.646
148.609
152.403
156.042
159.536
162.895
166.126
169.233
172.222
175.095
177.854
180.502
183.037
185.461
187.771
189.965
192.039
193.991
195.813
197.501
199.045
200.437
201.664
202.713
203.564
204.196
204.578
204.674
204.423
203.77
202.575
201.023
104.359
111.626
117.872
123.553
128.809
133.719
138.344
142.726
146.895
150.875
154.684
158.334
161.839
165.206
168.443
171.556
174.549
177.426
180.188
182.837
185.374
187.798
190.107
192.3
194.373
196.321
198.139
199.822
201.359
202.742
203.958
204.991
205.822
206.427
206.772
206.815
206.481
205.693
204.205
202.073
)
;

boundaryField
{
    carasuperior
    {
        type            fixedGradient;
        gradient        uniform 100;
    }
    lateralizquierda
    {
        type            fixedValue;
        value           uniform 100;
    }
    lateralderecha
    {
        type            fixedValue;
        value           uniform 200;
    }
    carainferior
    {
        type            zeroGradient;
    }
    frontAndBack
    {
        type            empty;
    }
}


// ************************************************************************* //
