/*--------------------------------*- C++ -*----------------------------------*\
| =========                 |                                                 |
| \\      /  F ield         | OpenFOAM: The Open Source CFD Toolbox           |
|  \\    /   O peration     | Version:  2.4.0                                 |
|   \\  /    A nd           | Web:      www.OpenFOAM.org                      |
|    \\/     M anipulation  |                                                 |
\*---------------------------------------------------------------------------*/
FoamFile
{
    version     2.0;
    format      ascii;
    class       volScalarField;
    location    "0.0013";
    object      T;
}
// * * * * * * * * * * * * * * * * * * * * * * * * * * * * * * * * * * * * * //

dimensions      [0 0 0 1 0 0 0];

internalField   nonuniform List<scalar> 
4800
(
100.093
100.283
100.485
100.706
100.95
101.218
101.506
101.81
102.119
102.422
100.283
100.862
101.478
102.151
102.893
103.708
104.588
105.512
106.453
107.375
100.485
101.478
102.534
103.688
104.962
106.36
107.87
109.458
111.073
112.652
100.706
102.151
103.688
105.368
107.223
109.264
111.47
113.793
116.154
118.457
100.95
102.893
104.961
107.223
109.725
112.483
115.475
118.635
121.852
124.978
101.217
103.708
106.359
109.263
112.482
116.047
119.935
124.066
128.29
132.39
101.506
104.586
107.868
111.468
115.473
119.934
124.841
130.111
135.556
140.862
101.809
105.51
109.455
113.789
118.632
124.063
130.109
136.711
143.671
150.566
102.118
106.45
111.068
116.149
121.846
128.285
135.552
143.669
152.524
161.679
102.421
107.372
112.647
118.449
124.97
132.382
140.855
150.561
161.677
174.222
100.093
100.283
100.485
100.706
100.95
101.218
101.506
101.81
102.119
102.422
100.283
100.862
101.478
102.151
102.893
103.708
104.588
105.512
106.453
107.375
100.485
101.478
102.534
103.688
104.962
106.36
107.87
109.458
111.072
112.652
100.706
102.151
103.688
105.368
107.223
109.264
111.47
113.792
116.154
118.457
100.95
102.893
104.961
107.223
109.725
112.483
115.475
118.635
121.852
124.978
101.217
103.708
106.359
109.263
112.483
116.047
119.935
124.066
128.29
132.39
101.506
104.586
107.868
111.468
115.474
119.934
124.841
130.111
135.556
140.862
101.809
105.51
109.455
113.789
118.632
124.063
130.11
136.711
143.671
150.566
102.118
106.45
111.069
116.149
121.846
128.286
135.553
143.669
152.525
161.679
102.421
107.372
112.647
118.45
124.97
132.383
140.856
150.562
161.677
174.222
100.093
100.283
100.485
100.706
100.95
101.218
101.506
101.81
102.119
102.422
100.283
100.862
101.478
102.151
102.893
103.708
104.588
105.512
106.453
107.375
100.485
101.478
102.534
103.688
104.962
106.36
107.87
109.458
111.072
112.652
100.706
102.151
103.688
105.368
107.223
109.264
111.47
113.792
116.154
118.457
100.95
102.893
104.961
107.223
109.725
112.483
115.475
118.635
121.851
124.978
101.217
103.708
106.359
109.263
112.483
116.047
119.935
124.066
128.29
132.39
101.506
104.586
107.868
111.468
115.473
119.934
124.841
130.111
135.556
140.862
101.809
105.51
109.455
113.789
118.632
124.063
130.11
136.711
143.671
150.566
102.118
106.45
111.069
116.149
121.846
128.286
135.553
143.669
152.525
161.679
102.421
107.372
112.647
118.45
124.97
132.383
140.856
150.562
161.677
174.222
100.093
100.283
100.485
100.706
100.95
101.218
101.506
101.81
102.119
102.422
100.283
100.862
101.478
102.151
102.893
103.708
104.588
105.512
106.453
107.375
100.485
101.478
102.534
103.688
104.962
106.36
107.87
109.458
111.072
112.652
100.706
102.151
103.688
105.368
107.223
109.264
111.47
113.793
116.154
118.457
100.95
102.893
104.961
107.223
109.725
112.483
115.475
118.635
121.852
124.978
101.217
103.708
106.359
109.263
112.482
116.047
119.935
124.066
128.29
132.39
101.506
104.586
107.868
111.468
115.473
119.934
124.841
130.111
135.556
140.862
101.809
105.51
109.455
113.789
118.632
124.063
130.109
136.711
143.671
150.566
102.118
106.45
111.068
116.149
121.846
128.285
135.552
143.669
152.524
161.679
102.421
107.372
112.647
118.449
124.97
132.382
140.855
150.561
161.677
174.222
102.709
102.97
103.198
103.391
103.549
103.673
103.766
103.833
103.876
103.897
103.897
103.876
103.833
103.766
103.672
103.548
103.391
103.198
102.97
102.709
108.245
109.033
109.72
110.298
110.767
111.135
111.412
111.609
111.735
111.796
111.796
111.735
111.609
111.411
111.134
110.766
110.296
109.719
109.032
108.244
114.134
115.466
116.615
117.572
118.341
118.94
119.387
119.704
119.905
120.002
120.002
119.904
119.703
119.386
118.938
118.339
117.57
116.613
115.464
114.132
120.6
122.501
124.117
125.439
126.486
127.289
127.883
128.299
128.562
128.689
128.689
128.561
128.298
127.881
127.287
126.483
125.436
124.114
122.498
120.597
127.856
130.362
132.44
134.098
135.381
136.346
137.048
137.535
137.84
137.987
137.986
137.839
137.533
137.046
136.343
135.377
134.094
132.436
130.358
127.853
136.115
139.261
141.775
143.709
145.157
146.219
146.976
147.493
147.814
147.967
147.967
147.813
147.491
146.974
146.216
145.154
143.705
141.772
139.258
136.111
145.608
149.424
152.297
154.39
155.89
156.952
157.692
158.188
158.493
158.638
158.638
158.492
158.187
157.69
156.95
155.887
154.386
152.293
149.42
145.606
156.663
161.119
164.157
166.199
167.578
168.514
169.148
169.566
169.819
169.939
169.939
169.818
169.565
169.147
168.512
167.575
166.196
164.155
161.117
156.661
169.902
174.726
177.472
179.103
180.122
180.782
181.216
181.497
181.665
181.745
181.745
181.665
181.496
181.215
180.781
180.12
179.101
177.47
174.725
169.901
186.94
190.748
192.203
192.9
193.293
193.535
193.691
193.79
193.85
193.877
193.877
193.849
193.79
193.691
193.535
193.293
192.9
192.202
190.748
186.939
102.709
102.97
103.198
103.391
103.548
103.672
103.766
103.833
103.876
103.897
103.897
103.876
103.833
103.766
103.672
103.548
103.39
103.197
102.969
102.708
108.245
109.033
109.72
110.297
110.766
111.134
111.412
111.609
111.735
111.796
111.795
111.734
111.608
111.41
111.133
110.765
110.295
109.718
109.031
108.243
114.134
115.466
116.615
117.572
118.341
118.939
119.387
119.703
119.904
120.002
120.001
119.903
119.702
119.385
118.937
118.338
117.569
116.612
115.462
114.131
120.599
122.501
124.117
125.439
126.486
127.289
127.883
128.299
128.562
128.689
128.688
128.56
128.297
127.88
127.286
126.482
125.435
124.113
122.497
120.595
127.856
130.362
132.439
134.097
135.38
136.345
137.048
137.534
137.839
137.986
137.985
137.838
137.532
137.045
136.342
135.376
134.093
132.435
130.357
127.851
136.115
139.261
141.775
143.708
145.157
146.218
146.975
147.492
147.813
147.966
147.966
147.812
147.49
146.973
146.215
145.153
143.704
141.77
139.256
136.11
145.608
149.424
152.296
154.389
155.889
156.952
157.692
158.188
158.492
158.637
158.637
158.491
158.186
157.689
156.949
155.886
154.385
152.292
149.419
145.604
156.663
161.119
164.157
166.199
167.577
168.514
169.148
169.565
169.818
169.938
169.938
169.817
169.563
169.146
168.511
167.574
166.195
164.153
161.115
156.659
169.902
174.726
177.471
179.102
180.121
180.781
181.215
181.496
181.665
181.744
181.744
181.664
181.495
181.214
180.78
180.119
179.1
177.469
174.723
169.9
186.94
190.748
192.202
192.9
193.293
193.535
193.69
193.79
193.849
193.877
193.877
193.849
193.789
193.69
193.534
193.292
192.899
192.201
190.747
186.938
102.709
102.97
103.198
103.391
103.548
103.672
103.766
103.833
103.876
103.897
103.897
103.876
103.833
103.766
103.672
103.548
103.39
103.197
102.969
102.708
108.245
109.033
109.72
110.297
110.766
111.134
111.412
111.609
111.735
111.796
111.795
111.734
111.608
111.41
111.133
110.765
110.295
109.718
109.031
108.243
114.134
115.466
116.615
117.572
118.341
118.939
119.387
119.703
119.904
120.002
120.001
119.903
119.702
119.385
118.937
118.338
117.569
116.612
115.462
114.131
120.599
122.501
124.117
125.439
126.486
127.289
127.883
128.299
128.562
128.689
128.688
128.56
128.297
127.88
127.286
126.482
125.435
124.113
122.497
120.595
127.856
130.362
132.439
134.097
135.38
136.345
137.048
137.534
137.839
137.986
137.985
137.838
137.532
137.045
136.342
135.376
134.093
132.435
130.357
127.851
136.115
139.261
141.775
143.708
145.157
146.218
146.975
147.492
147.813
147.966
147.966
147.812
147.49
146.972
146.215
145.153
143.704
141.77
139.256
136.11
145.608
149.424
152.296
154.389
155.889
156.952
157.692
158.188
158.492
158.637
158.637
158.491
158.186
157.689
156.949
155.886
154.385
152.292
149.419
145.604
156.663
161.119
164.157
166.199
167.577
168.514
169.148
169.565
169.818
169.938
169.938
169.817
169.563
169.146
168.511
167.574
166.195
164.153
161.115
156.659
169.902
174.726
177.471
179.102
180.121
180.781
181.215
181.496
181.665
181.744
181.744
181.664
181.495
181.214
180.78
180.119
179.1
177.469
174.723
169.9
186.94
190.748
192.202
192.9
193.293
193.535
193.69
193.79
193.849
193.877
193.877
193.849
193.789
193.69
193.534
193.292
192.899
192.201
190.747
186.938
102.709
102.97
103.198
103.391
103.549
103.673
103.766
103.833
103.876
103.897
103.897
103.876
103.833
103.766
103.672
103.548
103.391
103.198
102.97
102.709
108.245
109.033
109.72
110.298
110.767
111.135
111.412
111.609
111.735
111.796
111.796
111.735
111.609
111.411
111.134
110.765
110.296
109.719
109.032
108.244
114.134
115.466
116.615
117.572
118.341
118.94
119.387
119.704
119.905
120.002
120.002
119.904
119.703
119.386
118.938
118.339
117.57
116.613
115.464
114.132
120.6
122.501
124.117
125.439
126.486
127.289
127.883
128.299
128.562
128.689
128.689
128.561
128.298
127.881
127.287
126.483
125.436
124.114
122.498
120.597
127.856
130.362
132.44
134.098
135.381
136.346
137.048
137.535
137.84
137.987
137.986
137.839
137.533
137.046
136.343
135.377
134.094
132.436
130.358
127.853
136.115
139.261
141.775
143.709
145.157
146.219
146.976
147.493
147.814
147.967
147.967
147.813
147.491
146.974
146.216
145.154
143.705
141.771
139.258
136.111
145.608
149.424
152.297
154.39
155.89
156.952
157.692
158.188
158.493
158.638
158.638
158.492
158.187
157.69
156.95
155.887
154.386
152.293
149.42
145.606
156.663
161.119
164.157
166.199
167.578
168.514
169.148
169.566
169.819
169.939
169.939
169.818
169.565
169.147
168.512
167.575
166.196
164.155
161.117
156.661
169.902
174.726
177.472
179.103
180.122
180.782
181.216
181.497
181.665
181.745
181.745
181.665
181.496
181.215
180.781
180.12
179.101
177.47
174.725
169.901
186.94
190.748
192.203
192.9
193.293
193.535
193.691
193.79
193.85
193.877
193.877
193.849
193.79
193.691
193.535
193.293
192.9
192.202
190.748
186.939
102.422
102.119
101.81
101.506
101.218
100.95
100.707
100.486
100.283
100.093
107.374
106.452
105.512
104.588
103.709
102.894
102.151
101.478
100.862
100.283
112.651
111.071
109.457
107.87
106.36
104.962
103.689
102.535
101.478
100.486
118.454
116.152
113.791
111.469
109.264
107.224
105.369
103.689
102.151
100.707
124.975
121.85
118.634
115.475
112.483
109.726
107.224
104.962
102.894
100.95
132.388
128.289
124.065
119.935
116.047
112.484
109.264
106.361
103.709
101.218
140.86
135.555
130.111
124.842
119.935
115.475
111.47
107.87
104.588
101.506
150.565
143.671
136.712
130.111
124.066
118.634
113.792
109.457
105.512
101.81
161.679
152.525
143.671
135.555
128.289
121.85
116.152
111.071
106.452
102.119
174.223
161.679
150.565
140.859
132.387
124.974
118.453
112.65
107.374
102.422
102.421
102.118
101.809
101.506
101.217
100.95
100.706
100.485
100.283
100.093
107.373
106.451
105.51
104.586
103.707
102.892
102.15
101.477
100.861
100.283
112.649
111.07
109.456
107.868
106.359
104.961
103.687
102.533
101.477
100.485
118.453
116.151
113.79
111.468
109.262
107.222
105.367
103.687
102.15
100.706
124.974
121.848
118.632
115.473
112.482
109.724
107.222
104.961
102.893
100.95
132.386
128.287
124.064
119.933
116.046
112.482
109.262
106.359
103.707
101.217
140.858
135.554
130.109
124.84
119.933
115.474
111.468
107.868
104.586
101.506
150.564
143.669
136.71
130.109
124.064
118.633
113.79
109.456
105.51
101.809
161.677
152.523
143.669
135.553
128.287
121.848
116.15
111.069
106.45
102.118
174.221
161.677
150.563
140.857
132.385
124.972
118.452
112.648
107.372
102.421
102.421
102.118
101.809
101.506
101.217
100.95
100.706
100.485
100.283
100.093
107.373
106.451
105.51
104.586
103.707
102.892
102.15
101.477
100.861
100.283
112.649
111.07
109.456
107.868
106.359
104.961
103.687
102.533
101.477
100.485
118.453
116.151
113.79
111.468
109.262
107.222
105.367
103.687
102.15
100.706
124.974
121.848
118.632
115.473
112.482
109.724
107.222
104.961
102.893
100.95
132.386
128.287
124.064
119.933
116.046
112.482
109.262
106.359
103.707
101.217
140.858
135.554
130.109
124.84
119.933
115.474
111.468
107.868
104.586
101.506
150.564
143.669
136.71
130.109
124.064
118.633
113.79
109.456
105.51
101.809
161.677
152.523
143.669
135.553
128.287
121.848
116.15
111.069
106.45
102.118
174.221
161.677
150.563
140.857
132.385
124.972
118.452
112.648
107.372
102.421
102.422
102.119
101.81
101.506
101.218
100.95
100.707
100.486
100.283
100.093
107.374
106.452
105.512
104.588
103.709
102.894
102.151
101.478
100.862
100.283
112.651
111.071
109.457
107.87
106.36
104.962
103.689
102.535
101.478
100.486
118.454
116.152
113.791
111.469
109.264
107.224
105.369
103.689
102.151
100.707
124.975
121.85
118.634
115.475
112.483
109.726
107.224
104.962
102.894
100.95
132.388
128.289
124.065
119.935
116.047
112.484
109.264
106.361
103.709
101.218
140.86
135.555
130.111
124.842
119.935
115.475
111.47
107.87
104.588
101.506
150.565
143.671
136.712
130.111
124.066
118.634
113.792
109.457
105.512
101.81
161.679
152.525
143.671
135.555
128.289
121.85
116.152
111.071
106.452
102.119
174.223
161.679
150.565
140.859
132.387
124.974
118.453
112.65
107.374
102.422
186.939
169.901
156.66
145.604
136.109
127.85
120.594
114.13
108.243
102.708
190.748
174.723
161.113
149.416
139.252
130.352
122.493
115.459
109.029
102.969
192.201
177.466
164.148
152.284
141.761
132.425
124.104
116.605
109.714
103.196
192.897
179.094
166.184
154.371
143.688
134.076
125.42
117.557
110.288
103.388
193.288
180.108
167.556
155.862
145.126
135.349
126.458
118.319
110.753
103.544
193.529
180.761
168.482
156.912
146.173
136.3
127.248
118.907
111.114
103.666
193.681
181.186
169.101
157.633
146.91
136.983
127.824
119.341
111.382
103.756
193.776
181.453
169.498
158.103
147.398
137.441
128.215
119.637
111.567
103.819
193.828
181.603
169.722
158.371
147.679
137.706
128.442
119.81
111.675
103.856
193.847
181.656
169.801
158.465
147.776
137.797
128.52
119.869
111.711
103.868
193.834
181.619
169.743
158.393
147.698
137.72
128.451
119.815
111.677
103.856
193.788
181.487
169.543
158.149
147.436
137.467
128.23
119.644
111.569
103.819
193.703
181.245
169.178
157.707
146.967
137.018
127.84
119.344
111.381
103.755
193.568
180.862
168.606
157.022
146.249
136.337
127.254
118.896
111.1
103.66
193.362
180.285
167.757
156.024
145.22
135.375
126.435
118.276
110.714
103.529
193.046
179.42
166.521
154.61
143.795
134.068
125.339
117.453
110.206
103.357
192.544
178.105
164.724
152.633
141.864
132.339
123.915
116.399
109.56
103.14
191.668
176.032
162.093
149.897
139.301
130.113
122.12
115.089
108.764
102.873
189.883
172.596
158.221
146.168
135.982
127.327
119.924
113.51
107.814
102.556
185.3
166.644
152.594
141.244
131.838
123.967
117.335
111.674
106.719
102.192
186.938
169.899
156.657
145.601
136.107
127.848
120.592
114.128
108.241
102.707
190.746
174.72
161.111
149.413
139.25
130.35
122.491
115.457
109.028
102.968
192.199
177.463
164.145
152.282
141.759
132.423
124.102
116.603
109.712
103.195
192.896
179.091
166.181
154.368
143.685
134.074
125.418
117.555
110.286
103.387
193.287
180.105
167.553
155.859
145.123
135.347
126.456
118.317
110.751
103.543
193.527
180.759
168.479
156.909
146.171
136.298
127.246
118.905
111.112
103.665
193.679
181.183
169.098
157.63
146.907
136.98
127.822
119.339
111.381
103.755
193.774
181.451
169.495
158.1
147.395
137.438
128.212
119.635
111.565
103.818
193.826
181.6
169.719
158.368
147.676
137.703
128.44
119.808
111.673
103.854
193.845
181.653
169.798
158.462
147.773
137.795
128.517
119.866
111.709
103.867
193.832
181.615
169.74
158.39
147.695
137.717
128.449
119.813
111.675
103.855
193.786
181.484
169.54
158.145
147.433
137.465
128.228
119.642
111.567
103.818
193.701
181.242
169.174
157.703
146.964
137.015
127.838
119.342
111.378
103.754
193.566
180.859
168.602
157.019
146.246
136.334
127.251
118.894
111.098
103.659
193.36
180.281
167.753
156.021
145.217
135.372
126.433
118.273
110.712
103.528
193.044
179.416
166.517
154.607
143.791
134.065
125.336
117.451
110.204
103.356
192.541
178.102
164.72
152.629
141.86
132.336
123.912
116.396
109.558
103.139
191.666
176.028
162.089
149.893
139.297
130.11
122.117
115.086
108.762
102.872
189.88
172.592
158.217
146.165
135.978
127.324
119.921
113.507
107.812
102.555
185.297
166.64
152.59
141.241
131.835
123.964
117.332
111.672
106.717
102.191
186.938
169.899
156.657
145.601
136.107
127.848
120.592
114.128
108.241
102.707
190.746
174.72
161.111
149.413
139.25
130.35
122.491
115.457
109.028
102.968
192.199
177.463
164.145
152.282
141.759
132.423
124.102
116.603
109.712
103.195
192.896
179.091
166.181
154.368
143.685
134.074
125.418
117.555
110.286
103.387
193.287
180.105
167.553
155.859
145.123
135.347
126.456
118.317
110.751
103.543
193.527
180.759
168.479
156.909
146.17
136.298
127.246
118.905
111.112
103.665
193.679
181.183
169.098
157.63
146.907
136.98
127.822
119.339
111.381
103.755
193.774
181.45
169.495
158.1
147.395
137.438
128.212
119.635
111.565
103.818
193.826
181.6
169.719
158.368
147.676
137.703
128.44
119.808
111.673
103.854
193.845
181.653
169.798
158.462
147.773
137.795
128.517
119.866
111.709
103.867
193.832
181.615
169.74
158.39
147.695
137.717
128.449
119.813
111.675
103.855
193.786
181.484
169.54
158.145
147.433
137.465
128.228
119.642
111.567
103.818
193.701
181.242
169.174
157.703
146.964
137.015
127.838
119.342
111.378
103.754
193.566
180.859
168.602
157.019
146.246
136.334
127.251
118.894
111.098
103.659
193.36
180.281
167.753
156.021
145.217
135.372
126.433
118.273
110.712
103.528
193.044
179.416
166.517
154.607
143.791
134.065
125.336
117.451
110.204
103.356
192.541
178.102
164.72
152.629
141.86
132.336
123.912
116.396
109.558
103.139
191.666
176.028
162.089
149.893
139.297
130.11
122.117
115.086
108.762
102.872
189.88
172.592
158.217
146.165
135.978
127.324
119.921
113.507
107.812
102.555
185.297
166.64
152.59
141.241
131.835
123.964
117.332
111.672
106.717
102.191
186.939
169.901
156.66
145.603
136.109
127.85
120.594
114.13
108.243
102.708
190.748
174.723
161.113
149.416
139.252
130.352
122.493
115.459
109.029
102.969
192.201
177.466
164.148
152.284
141.761
132.425
124.104
116.605
109.714
103.196
192.897
179.094
166.184
154.371
143.688
134.076
125.42
117.557
110.288
103.388
193.288
180.108
167.556
155.862
145.126
135.349
126.458
118.319
110.753
103.544
193.529
180.761
168.482
156.912
146.173
136.3
127.248
118.907
111.114
103.666
193.681
181.186
169.101
157.633
146.91
136.983
127.824
119.341
111.382
103.756
193.776
181.453
169.498
158.103
147.398
137.441
128.215
119.637
111.567
103.819
193.828
181.603
169.722
158.371
147.679
137.706
128.442
119.81
111.675
103.856
193.847
181.656
169.801
158.465
147.776
137.797
128.52
119.869
111.711
103.868
193.834
181.619
169.743
158.393
147.698
137.72
128.451
119.815
111.677
103.856
193.788
181.487
169.543
158.149
147.436
137.467
128.23
119.644
111.569
103.819
193.703
181.245
169.178
157.707
146.967
137.018
127.84
119.344
111.381
103.755
193.568
180.862
168.606
157.022
146.249
136.337
127.254
118.896
111.1
103.66
193.362
180.285
167.757
156.024
145.22
135.375
126.435
118.276
110.714
103.529
193.046
179.42
166.521
154.61
143.795
134.068
125.339
117.453
110.206
103.357
192.543
178.105
164.724
152.633
141.864
132.339
123.915
116.399
109.56
103.14
191.668
176.032
162.093
149.897
139.301
130.113
122.12
115.089
108.764
102.873
189.883
172.596
158.221
146.168
135.982
127.327
119.924
113.51
107.814
102.556
185.3
166.644
152.593
141.244
131.838
123.967
117.335
111.674
106.719
102.192
170.202
156.588
144.933
135.133
126.935
120.102
114.407
109.622
105.503
101.789
154.928
145.263
136.226
128.284
121.526
115.892
111.25
107.424
104.205
101.36
141.209
134.205
127.389
121.234
115.942
111.552
108.004
105.169
102.877
100.921
129.207
124.064
119.018
114.429
110.5
107.304
104.82
102.958
101.575
100.491
118.891
115.12
111.468
108.191
105.458
103.343
101.842
100.885
100.352
100.087
110.249
107.517
104.954
102.743
101.014
99.83
99.1893
99.0339
99.2592
99.7259
103.29
101.343
99.6139
98.2378
97.3131
96.8884
96.9597
97.474
98.3367
99.421
98.0405
96.6623
95.5403
94.7801
94.4578
94.6095
95.2271
96.2593
97.6168
99.1829
94.524
93.5175
92.7933
92.4394
92.5182
93.057
94.0442
95.4286
97.1234
99.0198
92.7604
91.9379
91.4107
91.2586
91.5375
92.2705
93.4439
95.0066
96.873
98.9408
170.199
156.585
144.93
135.13
126.932
120.099
114.404
109.62
105.5
101.787
154.926
145.26
136.223
128.281
121.523
115.889
111.247
107.421
104.203
101.358
141.207
134.202
127.387
121.231
115.939
111.549
108.001
105.167
102.875
100.92
129.204
124.062
119.016
114.427
110.497
107.301
104.818
102.955
101.572
100.489
118.889
115.118
111.465
108.189
105.456
103.34
101.839
100.882
100.349
100.085
110.247
107.515
104.952
102.741
101.012
99.8274
99.1864
99.0307
99.256
99.7238
103.289
101.342
99.6121
98.2358
97.3108
96.8857
96.9565
97.4704
98.333
99.4184
98.0389
96.6606
95.5384
94.778
94.4554
94.6067
95.2236
96.2552
97.6124
99.1796
94.5225
93.5159
92.7915
92.4374
92.5158
93.0541
94.0406
95.4241
97.1182
99.0153
92.759
91.9363
91.4089
91.2567
91.5352
92.2677
93.4403
95.0019
96.8671
98.935
170.199
156.585
144.93
135.13
126.932
120.099
114.404
109.62
105.5
101.787
154.926
145.26
136.223
128.281
121.523
115.889
111.247
107.421
104.203
101.358
141.207
134.202
127.387
121.231
115.939
111.549
108.001
105.167
102.875
100.92
129.204
124.062
119.016
114.427
110.497
107.301
104.818
102.955
101.572
100.489
118.889
115.118
111.465
108.189
105.456
103.34
101.839
100.882
100.349
100.085
110.247
107.515
104.952
102.741
101.012
99.8274
99.1863
99.0307
99.256
99.7238
103.289
101.342
99.612
98.2357
97.3107
96.8856
96.9565
97.4704
98.333
99.4184
98.0389
96.6606
95.5384
94.778
94.4554
94.6066
95.2236
96.2552
97.6124
99.1796
94.5224
93.5158
92.7915
92.4374
92.5158
93.0541
94.0406
95.4241
97.1182
99.0153
92.759
91.9363
91.4089
91.2567
91.5352
92.2677
93.4403
95.002
96.8671
98.935
170.202
156.588
144.933
135.133
126.935
120.102
114.407
109.622
105.503
101.789
154.928
145.263
136.226
128.284
121.526
115.891
111.25
107.424
104.205
101.36
141.209
134.205
127.389
121.234
115.942
111.552
108.003
105.169
102.877
100.921
129.207
124.064
119.018
114.429
110.5
107.304
104.82
102.958
101.575
100.491
118.891
115.12
111.468
108.191
105.458
103.343
101.842
100.885
100.352
100.087
110.249
107.517
104.953
102.743
101.014
99.83
99.1893
99.0339
99.2592
99.7259
103.29
101.343
99.6139
98.2378
97.3131
96.8883
96.9596
97.474
98.3367
99.421
98.0404
96.6622
95.5402
94.78
94.4577
94.6095
95.227
96.2592
97.6168
99.1829
94.5239
93.5174
92.7933
92.4394
92.5182
93.057
94.0442
95.4286
97.1234
99.0198
92.7603
91.9378
91.4106
91.2586
91.5375
92.2705
93.4439
95.0066
96.873
98.9408
184.501
188.726
190.31
191.057
191.474
191.73
191.896
192.003
192.067
192.098
192.098
192.067
192.003
191.896
191.73
191.473
191.056
190.308
188.722
184.494
163.847
169.038
171.965
173.691
174.767
175.466
175.93
176.233
176.417
176.504
176.504
176.416
176.232
175.928
175.464
174.763
173.686
171.958
169.027
163.831
147.572
152.225
155.398
157.534
158.984
159.98
160.663
161.119
161.399
161.533
161.533
161.398
161.117
160.66
159.976
158.978
157.526
155.387
152.209
147.55
133.971
137.84
140.788
142.963
144.546
145.689
146.501
147.057
147.404
147.57
147.57
147.402
147.054
146.497
145.684
144.539
142.953
140.774
137.821
133.947
122.495
125.613
128.172
130.193
131.749
132.924
133.787
134.392
134.776
134.962
134.961
134.774
134.389
133.783
132.918
131.741
130.182
128.158
125.595
122.471
112.964
115.432
117.575
119.362
120.807
121.94
122.799
123.415
123.812
124.007
124.006
123.811
123.413
122.796
121.935
120.799
119.352
117.561
115.414
112.941
105.324
107.262
109.031
110.576
111.878
112.936
113.759
114.363
114.757
114.952
114.952
114.756
114.361
113.757
112.932
111.872
110.568
109.019
107.246
105.304
99.5743
101.11
102.578
103.915
105.082
106.059
106.837
107.418
107.802
107.994
107.994
107.802
107.417
106.836
106.056
105.078
103.908
102.568
101.096
99.556
95.7282
96.9932
98.2531
99.4397
100.505
101.416
102.156
102.715
103.089
103.276
103.276
103.089
102.715
102.156
101.415
100.502
99.4347
98.245
96.9813
95.7118
93.8009
94.93
96.0835
97.1917
98.202
99.078
99.796
100.342
100.709
100.894
100.894
100.71
100.343
99.7964
99.0777
98.2003
97.1878
96.0765
94.9192
93.7855
184.503
188.727
190.311
191.058
191.475
191.731
191.897
192.004
192.068
192.098
192.098
192.067
192.002
191.895
191.729
191.472
191.054
190.306
188.721
184.492
163.85
169.041
171.967
173.693
174.768
175.467
175.931
176.234
176.417
176.504
176.504
176.416
176.231
175.927
175.463
174.762
173.684
171.956
169.025
163.828
147.574
152.227
155.4
157.536
158.986
159.981
160.664
161.12
161.4
161.533
161.532
161.398
161.116
160.659
159.974
158.977
157.524
155.385
152.207
147.548
133.973
137.842
140.79
142.965
144.548
145.69
146.502
147.057
147.404
147.57
147.57
147.402
147.053
146.496
145.683
144.538
142.951
140.772
137.819
133.945
122.498
125.616
128.174
130.194
131.751
132.925
133.788
134.392
134.776
134.962
134.961
134.774
134.388
133.782
132.917
131.74
130.18
128.156
125.593
122.47
112.966
115.433
117.577
119.364
120.808
121.941
122.8
123.415
123.812
124.007
124.006
123.811
123.412
122.795
121.934
120.798
119.351
117.56
115.412
112.939
105.326
107.264
109.032
110.578
111.879
112.936
113.76
114.363
114.757
114.952
114.952
114.756
114.36
113.756
112.931
111.871
110.566
109.017
107.244
105.302
99.5761
101.111
102.579
103.916
105.083
106.059
106.838
107.418
107.803
107.994
107.993
107.802
107.417
106.835
106.055
105.077
103.907
102.567
101.094
99.5545
95.7299
96.9947
98.2545
99.441
100.506
101.417
102.157
102.716
103.089
103.276
103.276
103.089
102.715
102.155
101.414
100.501
99.4336
98.2438
96.98
95.7105
93.8024
94.9314
96.0848
97.1928
98.203
99.0787
99.7965
100.343
100.709
100.894
100.894
100.71
100.342
99.7958
99.0769
98.1994
97.1867
96.0754
94.918
93.7842
184.503
188.727
190.311
191.058
191.475
191.731
191.897
192.004
192.068
192.098
192.098
192.067
192.002
191.895
191.729
191.472
191.054
190.306
188.721
184.492
163.85
169.041
171.967
173.693
174.768
175.467
175.931
176.234
176.417
176.504
176.504
176.416
176.231
175.927
175.463
174.762
173.684
171.956
169.025
163.828
147.574
152.227
155.4
157.536
158.986
159.981
160.664
161.12
161.4
161.533
161.532
161.398
161.116
160.659
159.974
158.977
157.524
155.385
152.207
147.548
133.973
137.842
140.79
142.965
144.548
145.69
146.502
147.057
147.404
147.57
147.57
147.402
147.053
146.496
145.683
144.538
142.951
140.772
137.819
133.945
122.498
125.616
128.174
130.194
131.751
132.925
133.788
134.392
134.776
134.962
134.961
134.774
134.388
133.782
132.917
131.74
130.18
128.156
125.593
122.47
112.966
115.433
117.577
119.364
120.808
121.941
122.8
123.415
123.812
124.007
124.006
123.81
123.412
122.795
121.934
120.798
119.351
117.56
115.412
112.939
105.326
107.263
109.032
110.578
111.879
112.936
113.76
114.363
114.757
114.952
114.952
114.756
114.36
113.756
112.931
111.871
110.566
109.017
107.244
105.302
99.5761
101.111
102.579
103.916
105.083
106.059
106.838
107.418
107.803
107.994
107.993
107.802
107.417
106.835
106.055
105.077
103.907
102.567
101.094
99.5545
95.7299
96.9947
98.2545
99.441
100.506
101.417
102.157
102.716
103.089
103.276
103.276
103.089
102.715
102.155
101.414
100.501
99.4336
98.2438
96.9799
95.7104
93.8024
94.9314
96.0848
97.1928
98.203
99.0787
99.7965
100.343
100.709
100.894
100.894
100.71
100.342
99.7958
99.0769
98.1994
97.1867
96.0754
94.9179
93.7842
184.501
188.726
190.31
191.057
191.474
191.73
191.896
192.003
192.067
192.098
192.098
192.067
192.003
191.896
191.73
191.473
191.056
190.308
188.722
184.494
163.847
169.038
171.965
173.691
174.767
175.466
175.93
176.233
176.417
176.504
176.504
176.416
176.232
175.928
175.464
174.763
173.686
171.958
169.027
163.831
147.572
152.225
155.398
157.534
158.984
159.98
160.663
161.119
161.399
161.533
161.533
161.398
161.117
160.66
159.976
158.978
157.526
155.387
152.209
147.55
133.971
137.84
140.788
142.963
144.546
145.689
146.501
147.057
147.404
147.57
147.57
147.402
147.054
146.497
145.684
144.539
142.953
140.774
137.821
133.947
122.495
125.613
128.172
130.193
131.749
132.924
133.787
134.392
134.776
134.962
134.961
134.774
134.389
133.783
132.918
131.741
130.182
128.158
125.594
122.471
112.964
115.431
117.575
119.362
120.807
121.94
122.799
123.415
123.812
124.007
124.006
123.811
123.413
122.796
121.935
120.799
119.352
117.561
115.414
112.941
105.324
107.262
109.031
110.576
111.878
112.935
113.759
114.363
114.757
114.952
114.952
114.756
114.361
113.757
112.932
111.872
110.568
109.019
107.246
105.303
99.5742
101.11
102.578
103.915
105.082
106.059
106.837
107.418
107.802
107.994
107.994
107.802
107.417
106.836
106.056
105.078
103.908
102.568
101.096
99.5559
95.7282
96.9932
98.2531
99.4397
100.505
101.416
102.156
102.715
103.089
103.276
103.276
103.089
102.715
102.156
101.415
100.502
99.4347
98.245
96.9812
95.7118
93.8008
94.93
96.0835
97.1917
98.202
99.0779
99.7959
100.342
100.709
100.894
100.894
100.71
100.343
99.7964
99.0776
98.2003
97.1877
96.0765
94.9191
93.7855
101.792
105.513
109.641
114.433
120.133
126.969
135.168
144.965
156.613
170.217
101.363
104.216
107.444
111.278
115.926
121.563
128.322
136.262
145.293
154.952
100.925
102.889
105.191
108.033
111.588
115.982
121.274
127.428
134.239
141.237
100.494
101.587
102.98
104.85
107.34
110.54
114.47
119.057
124.099
129.236
100.091
100.364
100.907
101.872
103.379
105.497
108.231
111.505
115.154
118.92
99.7291
99.2713
99.0554
99.2186
99.8647
101.052
102.781
104.989
107.549
110.276
99.4238
98.349
97.4955
96.9884
96.9219
97.349
98.2735
99.6474
101.373
103.316
99.1856
97.6303
96.281
95.2554
94.6422
94.4923
94.8141
95.5717
96.6899
98.0635
99.0231
97.1393
95.4506
94.0724
93.0894
92.552
92.4724
92.8234
93.5435
94.5452
98.9369
96.8908
95.0305
93.4739
92.3044
91.5723