/*--------------------------------*- C++ -*----------------------------------*\
| =========                 |                                                 |
| \\      /  F ield         | OpenFOAM: The Open Source CFD Toolbox           |
|  \\    /   O peration     | Version:  2.4.0                                 |
|   \\  /    A nd           | Web:      www.OpenFOAM.org                      |
|    \\/     M anipulation  |                                                 |
\*---------------------------------------------------------------------------*/
FoamFile
{
    version     2.0;
    format      ascii;
    class       volScalarField;
    location    "0.145";
    object      T;
}
// * * * * * * * * * * * * * * * * * * * * * * * * * * * * * * * * * * * * * //

dimensions      [0 0 0 1 0 0 0];

internalField   nonuniform List<scalar> 
1600
(
99.5123
98.5477
97.6155
96.7371
95.9336
95.2256
94.633
94.1752
93.8706
93.7367
93.7898
94.0451
94.5164
95.2162
96.1555
97.3435
98.7882
100.496
102.47
104.714
107.23
110.016
113.069
116.388
119.965
123.795
127.869
132.177
136.709
141.452
146.393
151.518
156.81
162.253
167.83
173.52
179.305
185.164
191.077
197.022
99.5129
98.5495
97.6186
96.7414
95.9391
95.2322
94.6409
94.1842
93.8809
93.7481
93.8025
94.059
94.5316
95.2326
96.1731
97.3623
98.8081
100.517
102.492
104.737
107.254
110.04
113.094
116.413
119.99
123.819
127.892
132.199
136.73
141.472
146.412
151.535
156.825
162.266
167.841
173.529
179.312
185.17
191.08
197.023
99.5141
98.5531
97.6246
96.7498
95.9499
95.2454
94.6564
94.2021
93.9011
93.7708
93.8275
94.0864
94.5613
95.2648
96.2076
97.3992
98.8472
100.558
102.535
104.782
107.3
110.088
113.143
116.462
120.039
123.868
127.94
132.245
136.774
141.513
146.449
151.569
156.856
162.293
167.863
173.548
179.327
185.18
191.086
197.025
99.516
98.5586
97.6337
96.7626
95.9663
95.2653
94.6799
94.2292
93.9317
93.8048
93.865
94.1274
94.6059
95.3128
96.259
97.4539
98.9052
100.619
102.599
104.849
107.369
110.158
113.214
116.534
120.111
123.939
128.009
132.313
136.838
141.574
146.506
151.62
156.902
162.333
167.898
173.576
179.349
185.195
191.096
197.028
99.5185
98.566
97.6461
96.7798
95.9884
95.2923
94.7116
94.2656
93.9727
93.8505
93.9153
94.1823
94.6653
95.3766
96.3273
97.5264
98.9818
100.699
102.683
104.936
107.459
110.25
113.308
116.629
120.206
124.033
128.102
132.402
136.924
141.654
146.581
151.689
156.963
162.387
167.944
173.614
179.378
185.216
191.108
197.033
99.5216
98.5754
97.6617
96.8017
96.0163
95.3263
94.7516
94.3115
94.0245
93.908
93.9785
94.2511
94.7395
95.4563
96.4122
97.6164
99.0767
100.799
102.787
105.044
107.57
110.364
113.424
116.745
120.323
124.149
128.215
132.512
137.029
141.754
146.674
151.774
157.04
162.454
168.001
173.661
179.415
185.243
191.124
197.038
99.5254
98.5868
97.6808
96.8283
96.0504
95.3677
94.8002
94.3672
94.0872
93.9776
94.0548
94.3339
94.8288
95.5518
96.5137
97.7238
99.1896
100.917
102.91
105.171
107.701
110.498
113.56
116.883
120.46
124.285
128.349
132.643
137.155
141.873
146.785
151.876
157.131
162.535
168.069
173.717
179.459
185.274
191.143
197.044
99.53
98.6005
97.7035
96.86
96.0909
95.4169
94.8579
94.4332
94.1613
94.0596
94.1445
94.4311
94.9333
95.6633
96.632
97.8486
99.3205
101.054
103.052
105.318
107.852
110.652
113.717
117.041
120.618
124.442
128.504
132.793
137.299
142.01
146.913
151.993
157.237
162.628
168.149
173.783
179.51
185.311
191.165
197.051
99.5354
98.6164
97.7301
96.8969
96.1381
95.4741
94.925
94.5099
94.2472
94.1546
94.2482
94.5432
95.0534
95.7911
96.7672
97.9908
99.4693
101.209
103.212
105.483
108.021
110.825
113.892
117.217
120.795
124.618
128.676
132.961
137.461
142.164
147.057
152.126
157.357
162.734
168.24
173.857
179.568
185.352
191.19
197.06
99.5415
98.6348
97.7606
96.9395
96.1925
95.54
95.002
94.5978
94.3456
94.2631
94.3663
94.6706
95.1896
95.9357
96.9197
98.1506
99.636
101.381
103.391
105.666
108.209
111.016
114.085
117.412
120.989
124.81
128.866
133.146
137.64
142.334
147.217
152.274
157.49
162.851
168.34
173.94
179.633
185.399
191.218
197.069
99.5485
98.6558
97.7955
96.9881
96.2545
95.6151
95.0897
94.6977
94.4572
94.3858
94.4998
94.8141
95.3426
96.0976
97.0898
98.3284
99.8207
101.572
103.587
105.868
108.413
111.224
114.295
117.622
121.199
125.019
129.071
133.347
137.833
142.519
147.39
152.434
157.636
162.98
168.451
174.032
179.704
185.45
191.248
197.079
99.5565
98.6796
97.8351
97.0432
96.3247
95.6999
95.1888
94.8103
94.5829
94.5238
94.6493
94.9745
95.5132
96.2775
97.2783
98.5245
100.024
101.781
103.801
106.086
108.635
111.448
114.52
117.848
121.424
125.241
129.29
133.56
138.04
142.716
147.577
152.607
157.793
163.12
168.571
174.131
179.782
185.506
191.282
197.09
99.5655
98.7065
97.8798
97.1052
96.4037
95.7954
95.3
94.9367
94.7235
94.678
94.8161
95.153
95.7024
96.4764
97.4859
98.7399
100.246
102.009
104.034
106.322
108.874
111.688
114.76
118.088
121.662
125.477
129.521
133.786
138.258
142.925
147.774
152.791
157.961
163.269
168.7
174.238
179.866
185.566
191.318
197.102
99.5756
98.7367
97.9299
97.1748
96.4923
95.9023
95.4245
95.0778
94.8805
94.8496
95.0014
95.3508
95.9114
96.6956
97.714
98.9756
100.488
102.256
104.285
106.576
109.129
111.943
115.016
118.341
121.913
125.724
129.764
134.022
138.486
143.144
147.982
152.985
158.138
163.428
168.838
174.353
179.956
185.63
191.357
197.115
99.5869
98.7706
97.9859
97.2527
96.5913
96.0217
95.5634
95.2351
95.0551
95.0402
95.2067
95.5695
96.1421
96.9367
97.964
99.2331
100.751
102.524
104.556
106.849
109.403
112.216
115.287
118.609
122.177
125.983
130.017
134.268
138.724
143.372
148.197
153.186
158.324
163.595
168.983
174.474
180.052
185.699
191.399
197.129
99.5996
98.8084
98.0485
97.3396
96.7017
96.1547
95.7179
95.41
95.2489
95.2515
95.4339
95.811
96.3961
97.2016
98.2381
99.5146
101.039
102.816
104.85
107.143
109.697
112.508
115.576
118.894
122.457
126.256
130.282
134.525
138.971
143.608
148.421
153.396
158.517
163.769
169.135
174.602
180.153
185.772
191.443
197.143
99.6136
98.8505
98.1183
97.4364
96.8247
96.3028
95.8898
95.6042
95.4639
95.4855
95.6852
96.0775
96.676
97.4929
98.5387
99.8225
101.352
103.132
105.168
107.462
110.013
112.822
115.885
119.197
122.753
126.544
130.561
134.794
139.23
143.855
148.655
153.614
158.718
163.95
169.295
174.736
180.26
185.849
191.489
197.159
99.6293
98.8974
98.196
97.5441
96.9614
96.4673
96.0806
95.8197
95.7021
95.7445
95.9628
96.3716
96.9844
97.8132
98.8686
100.16
101.694
103.478
105.515
107.808
110.357
113.161
116.218
119.523
123.07
126.852
130.858
135.079
139.502
144.113
148.898
153.842
158.928
164.14
169.462
174.878
180.372
185.931
191.539
197.175
99.6468
98.9497
98.2825
97.6639
97.1134
96.65
96.2924
96.0586
95.9659
96.0311
96.2697
96.6963
97.3243
98.1657
99.2313
100.53
102.07
103.856
105.894
108.185
110.73
113.529
116.579
119.875
123.412
127.182
131.177
135.384
139.792
144.388
149.156
154.082
159.148
164.338
169.636
175.026
180.491
186.017
191.591
197.193
99.6662
99.0078
98.3786
97.797
97.2822
96.8529
96.5273
96.3234
96.2582
96.3482
96.6089
97.0547
97.6991
98.5541
99.6303
100.937
102.482
104.271
106.309
108.597
111.138
113.931
116.972
120.259
123.784
127.541
131.521
135.713
140.104
144.682
149.431
154.337
159.381
164.548
169.821
175.182
180.617
186.109
191.647
197.211
99.6878
99.0724
98.4854
97.945
97.4698
97.0781
96.788
96.6169
96.5818
96.699
96.9838
97.4506
98.1128
98.9823
100.07
101.385
102.935
104.727
106.764
109.05
111.586
114.371
117.404
120.679
124.191
127.933
131.897
136.071
140.443
145.001
149.729
154.611
159.631
164.772
170.017
175.349
180.751
186.207
191.707
197.231
99.7118
99.1443
98.6043
98.1095
97.6782
97.3282
97.0771
96.9423
96.9403
97.0873
97.3984
97.888
98.5694
99.4546
100.555
101.879
103.434
105.229
107.266
109.549
112.079
114.856
117.878
121.14
124.638
128.364
132.309
136.463
140.814
145.349
150.053
154.909
159.902
165.015
170.229
175.528
180.895
186.313
191.772
197.252
99.7386
99.2243
98.7365
98.2924
97.9097
97.6058
97.398
97.303
97.3374
97.5169
97.8568
98.3712
99.0735
99.9758
101.089
102.423
103.985
105.781
107.818
110.098
112.622
115.39
118.4
121.649
125.131
128.838
132.764
136.896
141.223
145.733
150.409
155.237
160.2
165.28
170.46
175.722
181.05
186.428
191.843
197.276
99.7684
99.3134
98.8837
98.496
98.1672
97.9143
97.7541
97.703
97.7773
97.9925
98.3638
98.9052
99.6302
100.551
101.678
103.022
104.591
106.391
108.427
110.703
113.22
115.979
118.976
122.21
125.675
129.363
133.266
137.374
141.676
146.157
150.803
155.599
160.528
165.572
170.713
175.936
181.221
186.553
191.92
197.301
99.8016
99.4128
99.0477
98.7227
98.4538
98.2573
98.1496
98.1468
98.2647
98.5189
98.9244
99.4952
100.245
101.185
102.328
103.684
105.259
107.062
109.098
111.37
113.88
116.628
119.613
122.831
126.277
129.944
133.823
137.905
142.178
146.628
151.241
156.002
160.892
165.896
170.995
176.172
181.409
186.691
192.005
197.329
99.8387
99.5237
99.2309
98.9755
98.773
98.639
98.5891
98.6393
98.805
99.1017
99.5442
100.147
100.923
101.885
103.045
104.412
105.995
107.802
109.837
112.105
114.607
117.345
120.315
123.516
126.943
130.587
134.441
138.495
142.737
147.153
151.73
156.451
161.299
166.258
171.309
176.435
181.619
186.845
192.1
197.361
99.8803
99.6479
99.4357
99.2579
99.1291
99.0641
99.078
99.1861
99.404
99.7468
100.229
100.866
101.671
102.656
103.834
105.214
106.805
108.615
110.65
112.914
115.408
118.134
121.09
124.274
127.679
131.299
135.126
139.15
143.358
147.738
152.275
156.952
161.755
166.663
171.661
176.73
181.854
187.016
192.206
197.396
99.927
99.7871
99.6652
99.5741
99.5272
99.5383
99.6222
99.7938
100.068
100.461
100.987
101.66
102.495
103.505
104.702
106.095
107.695
109.51
111.544
113.803
116.29
119.004
121.945
125.109
128.492
132.087
135.885
139.877
144.049
148.39
152.884
157.514
162.265
167.119
172.057
177.062
182.118
187.21
192.325
197.436
99.9796
99.9439
99.9233
99.9289
99.9729
100.068
100.229
100.469
100.805
101.251
101.823
102.536
103.403
104.439
105.655
107.063
108.673
110.491
112.525
114.78
117.258
119.959
122.884
126.029
129.389
132.958
136.726
140.683
144.818
149.117
153.564
158.144
162.839
167.632
172.504
177.438
182.418
187.429
192.46
197.481
100.039
100.121
100.215
100.329
100.474
100.662
100.906
101.221
101.623
102.126
102.747
103.501
104.402
105.465
106.702
108.125
109.743
111.566
113.6
115.85
118.319
121.008
123.916
127.041
130.377
133.918
137.655
141.577
145.673
149.927
154.325
158.85
163.484
168.21
173.009
177.864
182.759
187.679
192.613
197.532
100.107
100.322
100.545
100.78
101.038
101.328
101.663
102.059
102.531
103.094
103.766
104.563
105.499
106.589
107.848
109.286
110.914
112.741
114.775
117.02
119.48
122.156
125.048
128.152
131.464
134.977
138.681
142.567
146.621
150.829
155.175
159.641
164.21
168.864
173.582
178.349
183.147
187.964
192.788
197.591
100.185
100.553
100.922
101.294
101.676
102.077
102.511
102.993
103.539
104.165
104.89
105.73
106.702
107.821
109.1
110.554
112.191
114.023
116.056
118.296
120.747
123.41
126.285
129.368
132.656
136.14
139.812
143.66
147.672
151.832
156.123
160.528
165.028
169.603
174.234
178.903
183.593
188.293
192.989
197.659
100.274
100.819
101.356
101.882
102.401
102.924
103.464
104.036
104.658
105.349
106.128
107.012
108.02
109.166
110.467
111.935
113.582
115.417
117.45
119.685
122.127
124.777
127.635
130.697
133.96
137.416
141.055
144.866
148.835
152.946
157.182
161.523
165.95
170.442
174.978
179.539
184.107
188.673
193.222
197.739
100.38
101.131
101.86
102.559
103.231
103.885
104.536
105.201
105.902
106.658
107.49
108.418
109.46
110.633
111.954
113.436
115.091
116.93
118.962
121.192
123.625
126.262
129.103
132.145
135.384
138.812
142.419
146.193
150.12
154.183
158.363
162.64
166.992
171.396
175.83
180.274
184.706
189.118
193.496
197.835
100.506
101.501
102.454
103.349
104.186
104.979
105.745
106.505
107.284
108.103
108.987
109.956
111.03
112.228
113.567
115.062
116.725
118.567
120.597
122.822
125.246
127.87
130.695
133.719
136.935
140.336
143.912
147.651
151.537
155.553
159.679
163.892
168.169
172.485
176.813
181.129
185.412
189.648
193.826
197.952
100.662
101.953
103.167
104.279
105.294
106.23
107.111
107.964
108.817
109.696
110.627
111.634
112.738
113.958
115.314
116.819
118.488
120.333
122.361
124.58
126.995
129.608
132.418
135.423
138.618
141.994
145.542
149.249
153.098
157.07
161.145
165.299
169.504
173.732
177.952
182.135
186.253
190.292
194.23
198.096
100.863
102.523
104.04
105.389
106.588
107.666
108.657
109.597
110.517
111.449
112.422
113.461
114.59
115.829
117.198
118.712
120.386
122.231
124.257
126.471
128.878
131.48
134.276
137.266
140.442
143.797
147.32
150.998
154.814
158.748
162.779
166.879
171.019
175.166
179.283
183.333
187.275
191.09
194.736
198.278
101.14
103.278
105.138
106.732
108.109
109.317
110.406
111.419
112.396
113.372
114.379
115.444
116.592
117.846
119.224
120.745
122.421
124.267
126.29
128.499
130.899
133.492
136.278
139.253
142.414
145.752
149.255
152.91
156.699
160.603
164.597
168.654
172.741
176.82
180.849
184.777
188.548
192.117
195.404
198.526
101.605
104.334
106.541
108.365
109.896
111.212
112.377
113.446
114.465
115.473
116.504
117.587
118.749
120.012
121.397
122.922
124.6
126.445
128.466
130.672
133.066
135.652
138.43
141.396
144.546
147.871
151.36
154.998
158.77
162.652
166.621
170.647
174.696
178.727
182.691
186.528
190.158
193.498
196.381
198.952
102.461
105.938
108.43
110.408
112.034
113.409
114.614
115.711
116.751
117.775
118.817
119.909
121.077
122.345
123.733
125.258
126.937
128.781
130.801
133.003
135.394
137.976
140.749
143.71
146.853
150.171
153.652
157.282
161.043
164.914
168.869
172.878
176.905
180.908
184.834
188.621
192.17
195.379
197.981
199.989
)
;

boundaryField
{
    carasuperior
    {
        type            fixedGradient;
        gradient        uniform 100;
    }
    lateralizquierda
    {
        type            fixedValue;
        value           uniform 100;
    }
    lateralderecha
    {
        type            fixedValue;
        value           uniform 200;
    }
    carainferior
    {
        type            zeroGradient;
    }
    frontAndBack
    {
        type            empty;
    }
}


// ************************************************************************* //
