/*--------------------------------*- C++ -*----------------------------------*\
| =========                 |                                                 |
| \\      /  F ield         | OpenFOAM: The Open Source CFD Toolbox           |
|  \\    /   O peration     | Version:  2.4.0                                 |
|   \\  /    A nd           | Web:      www.OpenFOAM.org                      |
|    \\/     M anipulation  |                                                 |
\*---------------------------------------------------------------------------*/
FoamFile
{
    version     2.0;
    format      ascii;
    class       volScalarField;
    location    "5";
    object      p;
}
// * * * * * * * * * * * * * * * * * * * * * * * * * * * * * * * * * * * * * //

dimensions      [0 2 -2 0 0 0 0];

internalField   nonuniform List<scalar> 
4800
(
4.56333e-06
-0.00159619
-0.00328204
-0.00453305
-0.00502417
-0.00460374
-0.00322444
-0.00088982
0.00235545
0.00641568
0.001604
-2.9913e-05
-0.00122807
-0.0019434
-0.00205206
-0.00144377
-7.07757e-05
0.0020836
0.00500992
0.0086618
0.00332974
0.00111839
-8.77673e-05
-0.000647239
-0.000629461
2.41012e-05
0.00134511
0.00336094
0.00609391
0.00954114
0.0045002
0.00163078
0.00024969
-0.000325253
-0.00032305
0.000270627
0.00147597
0.00333896
0.00592647
0.00929592
0.00456134
0.0011695
-0.000397378
-0.00106218
-0.00117011
-0.000733042
0.00027557
0.00194075
0.00440202
0.00782467
0.00314443
-0.00055905
-0.00227867
-0.0030843
-0.00339059
-0.0032159
-0.00250476
-0.00110585
0.00123488
0.00489579
7.01017e-05
-0.00370365
-0.00552057
-0.00650322
-0.00709226
-0.00729726
-0.00701326
-0.00599647
-0.0038319
0.00029153
-0.00466406
-0.00826784
-0.0101178
-0.0113023
-0.0122527
-0.0129648
-0.0132742
-0.0128333
-0.0110506
-0.00626582
-0.0108942
-0.0141144
-0.0159315
-0.0173255
-0.0186938
-0.0200268
-0.0211073
-0.0214882
-0.0204815
-0.0148643
-0.0183049
-0.0209826
-0.0227027
-0.0242839
-0.0260804
-0.0281128
-0.0301785
-0.0318353
-0.0328415
-0.0284626
5.67916e-06
-0.00161701
-0.00331343
-0.00457341
-0.0050699
-0.0046517
-0.00327255
-0.000936052
0.00231345
0.00638056
0.00162189
-3.44584e-05
-0.00121066
-0.00191583
-0.00201939
-0.0014079
-3.48029e-05
0.00211704
0.00503925
0.00868709
0.00336032
0.00109236
-8.89299e-05
-0.000646123
-0.000630799
2.28435e-05
0.00134371
0.00335885
0.00609102
0.00953936
0.00454465
0.00159407
0.000249943
-0.000321911
-0.000323971
0.000269206
0.00147406
0.00333582
0.005921
0.00929109
0.00461576
0.00112634
-0.000392296
-0.00105138
-0.00116355
-0.000726786
0.000281155
0.00194405
0.00439859
0.0078179
0.003204
-0.000606775
-0.00227201
-0.00307055
-0.00338103
-0.00320643
-0.00249551
-0.0010984
0.00122895
0.00487691
0.000130797
-0.00375249
-0.00551343
-0.00648817
-0.00708078
-0.00728538
-0.00700012
-0.00598074
-0.00383969
0.000243519
-0.004609
-0.00831487
-0.0101113
-0.0112877
-0.0122407
-0.0129526
-0.0132605
-0.0128091
-0.0110736
-0.00643296
-0.0108486
-0.0141571
-0.015927
-0.0173133
-0.0186826
-0.0200147
-0.0210911
-0.0214315
-0.0204646
-0.0152395
-0.0182718
-0.0210195
-0.0227018
-0.0242769
-0.026073
-0.028102
-0.0301557
-0.0316944
-0.0325119
-0.028576
5.88262e-06
-0.00161689
-0.00331332
-0.00457333
-0.00506983
-0.00465165
-0.00327251
-0.000936023
0.00231348
0.00638058
0.001622
-3.43568e-05
-0.00121056
-0.00191575
-0.00201933
-0.00140785
-3.4765e-05
0.00211707
0.00503927
0.00868711
0.00336042
0.00109246
-8.8842e-05
-0.00064605
-0.000630741
2.289e-05
0.00134374
0.00335888
0.00609105
0.00953938
0.00454473
0.00159415
0.000250014
-0.00032185
-0.00032392
0.000269248
0.0014741
0.00333584
0.00592103
0.00929111
0.00461581
0.00112639
-0.000392242
-0.00105133
-0.00116351
-0.000726748
0.000281188
0.00194408
0.00439862
0.00781792
0.00320404
-0.000606729
-0.00227197
-0.00307051
-0.003381
-0.00320639
-0.00249547
-0.00109837
0.00122898
0.00487693
0.000130834
-0.00375245
-0.00551339
-0.00648814
-0.00708075
-0.00728535
-0.00700009
-0.00598071
-0.00383967
0.000243539
-0.00460897
-0.00831484
-0.0101113
-0.0112876
-0.0122407
-0.0129526
-0.0132605
-0.012809
-0.0110736
-0.00643294
-0.0108485
-0.0141571
-0.015927
-0.0173133
-0.0186825
-0.0200147
-0.021091
-0.0214315
-0.0204646
-0.0152395
-0.0182718
-0.0210195
-0.0227018
-0.0242769
-0.026073
-0.028102
-0.0301557
-0.0316944
-0.0325119
-0.028576
7.04716e-06
-0.00159548
-0.00328167
-0.0045328
-0.00502399
-0.00460361
-0.00322434
-0.000889743
0.00235551
0.00641573
0.00160471
-2.94982e-05
-0.00122776
-0.00194316
-0.00205188
-0.00144364
-7.06742e-05
0.00208368
0.00500999
0.00866185
0.00333009
0.0011187
-8.75076e-05
-0.000647034
-0.000629301
2.42259e-05
0.0013452
0.00336102
0.00609398
0.00954119
0.00450043
0.00163101
0.00024989
-0.000325087
-0.000322913
0.000270741
0.00147606
0.00333904
0.00592654
0.00929597
0.0045615
0.00116966
-0.000397227
-0.00106205
-0.00117
-0.000732941
0.000275658
0.00194083
0.00440208
0.00782472
0.00314454
-0.000558929
-0.00227855
-0.00308419
-0.00339049
-0.00321581
-0.00250468
-0.00110578
0.00123494
0.00489584
7.01858e-05
-0.00370355
-0.00552048
-0.00650313
-0.00709217
-0.00729718
-0.00701318
-0.0059964
-0.00383184
0.000291579
-0.00466399
-0.00826776
-0.0101177
-0.0113022
-0.0122526
-0.0129647
-0.0132741
-0.0128333
-0.0110505
-0.00626577
-0.0108942
-0.0141143
-0.0159315
-0.0173255
-0.0186937
-0.0200267
-0.0211072
-0.0214881
-0.0204814
-0.0148643
-0.0183049
-0.0209825
-0.0227026
-0.0242838
-0.0260803
-0.0281127
-0.0301785
-0.0318352
-0.0328415
-0.0284626
0.011138
0.016335
0.0218373
0.0275171
0.0332895
0.0391048
0.0449394
0.0507877
0.0566577
0.0625696
0.0685561
0.0746632
0.0809506
0.0874895
0.0943567
0.101621
0.109322
0.117441
0.12586
0.13434
0.0129427
0.0177147
0.022848
0.028235
0.0337927
0.0394634
0.0452107
0.0510161
0.056876
0.0627999
0.0688092
0.0749365
0.0812246
0.0877228
0.0944818
0.101543
0.108922
0.116588
0.124442
0.13229
0.0136377
0.0182454
0.0232409
0.0285212
0.034002
0.0396212
0.045337
0.0511247
0.0569746
0.062889
0.0688815
0.0749755
0.0812025
0.0876004
0.094209
0.101064
0.108185
0.115561
0.123126
0.130733
0.0134075
0.0180594
0.0231058
0.0284349
0.0339571
0.0396085
0.0453472
0.051148
0.0569988
0.0628982
0.068853
0.0748782
0.0809957
0.087234
0.0936283
0.100219
0.107046
0.114138
0.121493
0.129039
0.012208
0.0171539
0.02246
0.0280011
0.0336832
0.0394482
0.0452628
0.0511082
0.0569754
0.0628615
0.0687681
0.0747012
0.0806715
0.086697
0.0928069
0.0990483
0.105489
0.112219
0.119331
0.126897
0.00998883
0.0155824
0.0213951
0.0273141
0.0332604
0.0392016
0.0451283
0.0510383
0.0569312
0.0628058
0.068659
0.074487
0.0802871
0.0860621
0.0918295
0.0976365
0.103579
0.109812
0.116568
0.124191
0.00688181
0.0136132
0.0201831
0.0265996
0.0328552
0.0389832
0.0450198
0.0509896
0.0569045
0.062766
0.0685663
0.0742902
0.0799179
0.0854315
0.0908254
0.0961304
0.101457
0.10702
0.113215
0.120898
0.00330363
0.0117755
0.0192569
0.0261679
0.0326701
0.0389172
0.0450123
0.0510085
0.0569282
0.0627727
0.0685272
0.074163
0.0796409
0.0849155
0.089946
0.094727
0.0993632
0.104082
0.109406
0.117003
0.00130623
0.0117556
0.0195599
0.0265012
0.0329431
0.03912
0.0451658
0.0511335
0.0570371
0.062868
0.0685995
0.0741873
0.079569
0.0846642
0.0893777
0.093632
0.0974771
0.100932
0.104349
0.110652
0.00585772
0.0170912
0.0227387
0.0282721
0.0339362
0.0396954
0.0455306
0.051405
0.0572821
0.0631246
0.0688865
0.0745041
0.0798861
0.0849014
0.0893625
0.0930064
0.0954779
0.0964818
0.0952125
0.096741
0.0111115
0.0163165
0.021825
0.0275094
0.0332847
0.0391018
0.0449374
0.0507859
0.0566558
0.0625672
0.068553
0.0746592
0.0809455
0.0874835
0.0943503
0.101615
0.109318
0.117442
0.125868
0.134359
0.012965
0.0177334
0.0228628
0.0282463
0.0338012
0.0394698
0.0452157
0.0510205
0.0568803
0.0628044
0.0688142
0.074942
0.0812303
0.087728
0.0944852
0.101543
0.108917
0.116575
0.12442
0.132259
0.0136405
0.0182502
0.0232462
0.0285262
0.0340063
0.0396246
0.0453396
0.0511268
0.0569762
0.0628903
0.0688826
0.0749764
0.0812032
0.0876007
0.0942086
0.101063
0.108183
0.115557
0.12312
0.130728
0.0134119
0.0180665
0.0231129
0.0284412
0.0339621
0.0396122
0.0453498
0.0511498
0.0570001
0.062899
0.0688536
0.0748787
0.080996
0.0872343
0.0936283
0.100218
0.107044
0.114135
0.121487
0.129034
0.0122199
0.0171672
0.0224709
0.0280097
0.0336892
0.0394522
0.0452653
0.0511098
0.0569765
0.0628622
0.0687688
0.0747019
0.0806723
0.0866979
0.0928077
0.0990484
0.105488
0.112216
0.119321
0.126882
0.0100143
0.0156041
0.0214088
0.0273233
0.0332658
0.0392045
0.0451297
0.0510389
0.0569315
0.0628059
0.0686592
0.0744873
0.0802876
0.086063
0.0918306
0.0976371
0.103579
0.109811
0.11655
0.124154
0.00694948
0.013658
0.0202038
0.0266105
0.0328598
0.0389846
0.04502
0.0509893
0.0569042
0.0627658
0.0685664
0.0742905
0.0799187
0.0854328
0.0908271
0.0961313
0.101456
0.107015
0.113172
0.120795
0.00341853
0.0118223
0.0192665
0.0261716
0.0326697
0.0389153
0.0450105
0.051007
0.056927
0.0627717
0.0685263
0.0741623
0.0796405
0.0849159
0.0899475
0.0947275
0.0993617
0.104087
0.109368
0.116838
0.00144974
0.011692
0.0194886
0.0264707
0.0329273
0.0391104
0.0451597
0.0511289
0.0570326
0.062863
0.0685935
0.0741801
0.0795609
0.0846566
0.0893734
0.093633
0.0974962
0.10102
0.10447
0.110473
0.0066989
0.0172347
0.0227492
0.0282951
0.0339512
0.0397024
0.0455346
0.0514079
0.0572846
0.0631274
0.06889
0.0745085
0.0798913
0.0849071
0.0893669
0.0930039
0.0954685
0.0965129
0.0951508
0.0956758
0.0111115
0.0163165
0.021825
0.0275094
0.0332847
0.0391018
0.0449374
0.050786
0.0566558
0.0625672
0.068553
0.0746592
0.0809455
0.0874835
0.0943503
0.101615
0.109318
0.117442
0.125868
0.134359
0.0129651
0.0177334
0.0228628
0.0282463
0.0338012
0.0394698
0.0452157
0.0510205
0.0568803
0.0628044
0.0688142
0.074942
0.0812303
0.087728
0.0944852
0.101543
0.108917
0.116575
0.12442
0.132259
0.0136405
0.0182502
0.0232462
0.0285262
0.0340063
0.0396247
0.0453396
0.0511268
0.0569762
0.0628903
0.0688826
0.0749764
0.0812032
0.0876007
0.0942086
0.101063
0.108183
0.115557
0.12312
0.130728
0.0134119
0.0180665
0.0231129
0.0284412
0.0339621
0.0396122
0.0453498
0.0511498
0.0570001
0.062899
0.0688536
0.0748787
0.080996
0.0872343
0.0936283
0.100218
0.107044
0.114135
0.121487
0.129034
0.0122199
0.0171673
0.0224709
0.0280097
0.0336892
0.0394522
0.0452653
0.0511098
0.0569765
0.0628622
0.0687688
0.0747019
0.0806723
0.0866979
0.0928077
0.0990484
0.105488
0.112216
0.119321
0.126882
0.0100143
0.0156042
0.0214088
0.0273233
0.0332658
0.0392045
0.0451297
0.0510389
0.0569315
0.0628059
0.0686592
0.0744873
0.0802876
0.086063
0.0918306
0.0976371
0.103579
0.109811
0.11655
0.124154
0.00694949
0.013658
0.0202038
0.0266105
0.0328598
0.0389846
0.04502
0.0509893
0.0569042
0.0627658
0.0685664
0.0742905
0.0799187
0.0854328
0.0908271
0.0961313
0.101456
0.107015
0.113172
0.120795
0.00341855
0.0118223
0.0192665
0.0261716
0.0326697
0.0389154
0.0450105
0.051007
0.056927
0.0627717
0.0685263
0.0741623
0.0796405
0.0849159
0.0899475
0.0947275
0.0993617
0.104087
0.109368
0.116838
0.00144975
0.011692
0.0194886
0.0264707
0.0329273
0.0391104
0.0451597
0.0511289
0.0570326
0.062863
0.0685935
0.0741801
0.0795609
0.0846566
0.0893734
0.093633
0.0974962
0.10102
0.10447
0.110473
0.00669891
0.0172347
0.0227493
0.0282951
0.0339512
0.0397024
0.0455346
0.0514079
0.0572846
0.0631274
0.06889
0.0745085
0.0798913
0.0849071
0.089367
0.0930039
0.0954685
0.0965129
0.0951508
0.0956758
0.011138
0.016335
0.0218373
0.0275172
0.0332895
0.0391048
0.0449394
0.0507877
0.0566577
0.0625696
0.0685561
0.0746632
0.0809506
0.0874895
0.0943567
0.101621
0.109322
0.117441
0.12586
0.13434
0.0129427
0.0177147
0.0228481
0.028235
0.0337927
0.0394634
0.0452107
0.0510161
0.0568761
0.0627999
0.0688092
0.0749365
0.0812246
0.0877228
0.0944818
0.101543
0.108922
0.116588
0.124442
0.13229
0.0136378
0.0182454
0.023241
0.0285212
0.034002
0.0396212
0.045337
0.0511247
0.0569746
0.062889
0.0688815
0.0749755
0.0812025
0.0876004
0.094209
0.101064
0.108185
0.115561
0.123126
0.130733
0.0134075
0.0180595
0.0231059
0.028435
0.0339571
0.0396085
0.0453472
0.051148
0.0569988
0.0628982
0.068853
0.0748782
0.0809957
0.087234
0.0936283
0.100219
0.107046
0.114138
0.121493
0.129039
0.012208
0.0171539
0.0224601
0.0280012
0.0336832
0.0394483
0.0452628
0.0511082
0.0569754
0.0628615
0.0687681
0.0747012
0.0806715
0.086697
0.0928069
0.0990483
0.105489
0.112219
0.119331
0.126897
0.00998888
0.0155824
0.0213951
0.0273142
0.0332604
0.0392016
0.0451283
0.0510383
0.0569312
0.0628058
0.068659
0.074487
0.0802871
0.0860621
0.0918295
0.0976365
0.103579
0.109812
0.116568
0.124191
0.00688186
0.0136132
0.0201831
0.0265997
0.0328553
0.0389832
0.0450199
0.0509896
0.0569045
0.062766
0.0685663
0.0742902
0.0799179
0.0854315
0.0908254
0.0961304
0.101457
0.10702
0.113215
0.120898
0.00330367
0.0117755
0.019257
0.0261679
0.0326701
0.0389173
0.0450123
0.0510085
0.0569282
0.0627727
0.0685272
0.074163
0.0796409
0.0849155
0.089946
0.094727
0.0993632
0.104082
0.109406
0.117003
0.00130627
0.0117556
0.0195599
0.0265012
0.0329431
0.03912
0.0451658
0.0511335
0.0570371
0.062868
0.0685995
0.0741873
0.079569
0.0846642
0.0893778
0.093632
0.0974771
0.100932
0.104349
0.110652
0.00585775
0.0170912
0.0227388
0.0282721
0.0339362
0.0396954
0.0455306
0.051405
0.0572821
0.0631246
0.0688866
0.0745041
0.0798861
0.0849014
0.0893625
0.0930064
0.0954779
0.0964818
0.0952125
0.096741
0.14251
0.149922
0.156156
0.160894
0.163972
0.165392
0.165333
0.164164
0.162438
0.160839
0.139834
0.146704
0.152553
0.15712
0.160268
0.161999
0.162462
0.161951
0.160802
0.159235
0.138115
0.144887
0.150703
0.155303
0.158548
0.160432
0.161081
0.160745
0.159604
0.157547
0.136533
0.143492
0.149517
0.154319
0.157742
0.159767
0.160507
0.160186
0.158889
0.156296
0.134736
0.142123
0.148566
0.153729
0.157435
0.15966
0.16051
0.160206
0.158782
0.155806
0.132703
0.140788
0.147851
0.153523
0.157609
0.160098
0.161106
0.160862
0.159394
0.15623
0.130636
0.139705
0.147539
0.153804
0.15832
0.161108
0.162315
0.162188
0.160773
0.157615
0.128978
0.13932
0.147975
0.154818
0.159717
0.162775
0.164182
0.164211
0.162936
0.159959
0.12797
0.14032
0.149751
0.156977
0.162057
0.165239
0.166777
0.166955
0.165876
0.163219
0.132343
0.145924
0.154523
0.161093
0.165715
0.168665
0.170156
0.170416
0.169546
0.167301
0.142543
0.149968
0.15621
0.160953
0.164031
0.165446
0.165378
0.164194
0.162455
0.160837
0.139797
0.146661
0.152505
0.157071
0.16022
0.161956
0.162426
0.161925
0.160797
0.159213
0.138115
0.144891
0.150709
0.15531
0.158554
0.160437
0.161081
0.160743
0.159621
0.157516
0.13654
0.143504
0.149532
0.154334
0.157756
0.159778
0.16051
0.160187
0.158917
0.156256
0.134744
0.142134
0.148578
0.153741
0.157445
0.159666
0.160509
0.160204
0.158815
0.15576
0.132714
0.1408
0.147864
0.153534
0.157619
0.160104
0.161105
0.160861
0.15943
0.156182
0.130659
0.139721
0.147553
0.153817
0.158329
0.161113
0.162313
0.162187
0.160809
0.157566
0.129119
0.139376
0.147999
0.154833
0.159725
0.162778
0.164179
0.164209
0.16297
0.159912
0.128299
0.140337
0.149728
0.156969
0.162051
0.165235
0.166771
0.166952
0.165905
0.163177
0.13223
0.145549
0.154356
0.161045
0.165697
0.168658
0.170151
0.170415
0.169572
0.167266
0.142543
0.149968
0.15621
0.160953
0.164031
0.165446
0.165378
0.164194
0.162455
0.160837
0.139797
0.146661
0.152505
0.157071
0.16022
0.161956
0.162426
0.161925
0.160797
0.159213
0.138115
0.144891
0.150709
0.15531
0.158554
0.160437
0.161081
0.160743
0.159621
0.157516
0.13654
0.143504
0.149532
0.154334
0.157756
0.159778
0.16051
0.160187
0.158917
0.156256
0.134744
0.142134
0.148578
0.153741
0.157445
0.159666
0.160509
0.160204
0.158815
0.15576
0.132714
0.1408
0.147864
0.153534
0.157619
0.160104
0.161105
0.160861
0.15943
0.156182
0.130659
0.139721
0.147553
0.153817
0.158329
0.161113
0.162313
0.162187
0.160809
0.157566
0.129119
0.139376
0.147999
0.154833
0.159725
0.162778
0.164179
0.164209
0.16297
0.159912
0.128299
0.140337
0.149728
0.156969
0.162051
0.165235
0.166771
0.166952
0.165905
0.163177
0.13223
0.145549
0.154356
0.161045
0.165697
0.168658
0.170151
0.170415
0.169572
0.167266
0.14251
0.149922
0.156156
0.160894
0.163972
0.165392
0.165333
0.164164
0.162438
0.160839
0.139834
0.146704
0.152553
0.15712
0.160268
0.161999
0.162463
0.161951
0.160802
0.159235
0.138115
0.144887
0.150703
0.155303
0.158548
0.160432
0.161081
0.160745
0.159604
0.157547
0.136533
0.143492
0.149517
0.154319
0.157742
0.159767
0.160507
0.160186
0.158889
0.156296
0.134736
0.142123
0.148566
0.153729
0.157435
0.15966
0.16051
0.160206
0.158782
0.155806
0.132703
0.140788
0.147851
0.153523
0.157609
0.160098
0.161106
0.160862
0.159394
0.15623
0.130636
0.139705
0.147539
0.153804
0.15832
0.161108
0.162315
0.162188
0.160773
0.157615
0.128978
0.13932
0.147975
0.154818
0.159717
0.162775
0.164182
0.164211
0.162936
0.159959
0.12797
0.14032
0.149751
0.156977
0.162057
0.165239
0.166777
0.166955
0.165876
0.163219
0.132343
0.145924
0.154523
0.161093
0.165715
0.168665
0.170156
0.170416
0.169546
0.167301
0.166615
0.162063
0.164071
0.16767
0.170805
0.173053
0.17428
0.174532
0.173853
0.172056
0.177787
0.17247
0.172514
0.174385
0.176393
0.178005
0.178947
0.179163
0.178657
0.177297
0.183369
0.180229
0.179965
0.180937
0.182201
0.183317
0.18401
0.184186
0.183829
0.182855
0.188829
0.187124
0.186846
0.187337
0.188114
0.188864
0.189355
0.189493
0.189257
0.188603
0.194416
0.193526
0.193327
0.193581
0.194057
0.19455
0.194888
0.194994
0.194852
0.194449
0.200105
0.199681
0.199571
0.199711
0.2
0.200314
0.200538
0.200616
0.200544
0.200333
0.205897
0.205742
0.2057
0.205775
0.205937
0.206118
0.206251
0.2063
0.206276
0.206211
0.21178
0.211802
0.211793
0.211814
0.211872
0.211939
0.211985
0.211996
0.211997
0.212046
0.217783
0.217912
0.217909
0.217864
0.217813
0.217759
0.217705
0.217659
0.217661
0.217793
0.223943
0.224134
0.224099
0.223956
0.223766
0.223563
0.223379
0.223246
0.22322
0.223401
0.230326
0.230527
0.230412
0.230121
0.229741
0.229337
0.228976
0.228714
0.228619
0.228808
0.237025
0.237158
0.236894
0.236384
0.235743
0.23507
0.234468
0.234019
0.233803
0.233937
0.244156
0.244098
0.243586
0.242767
0.241774
0.240748
0.23983
0.239125
0.238718
0.238702
0.251863
0.251405
0.250511
0.249272
0.247828
0.24636
0.245046
0.244011
0.243323
0.24302
0.260325
0.259089
0.257644
0.255867
0.253878
0.251897
0.250119
0.248681
0.247609
0.24682
0.269651
0.267119
0.264869
0.262443
0.259857
0.25734
0.255078
0.253185
0.25161
0.250089
0.279901
0.275163
0.271844
0.268736
0.265605
0.262644
0.259973
0.257636
0.255445
0.252872
0.290749
0.282459
0.277863
0.274222
0.270803
0.2677
0.264871
0.262219
0.259345
0.255343
0.30219
0.288023
0.281756
0.277957
0.27484
0.272241
0.269814
0.267201
0.263684
0.25785
0.313166
0.288267
0.280323
0.277771
0.276459
0.275702
0.274758
0.272925
0.269032
0.260996
0.167456
0.162206
0.164186
0.167738
0.17083
0.173065
0.174284
0.174535
0.173875
0.172029
0.17793
0.172407
0.172561
0.17443
0.176415
0.178018
0.178954
0.179168
0.178675
0.177278
0.183379
0.180158
0.179974
0.180958
0.182214
0.183328
0.184017
0.184191
0.183843
0.182843
0.188852
0.187095
0.18685
0.187347
0.188124
0.188872
0.189361
0.189498
0.189268
0.188595
0.19443
0.193512
0.193326
0.193586
0.194063
0.194556
0.194893
0.194998
0.194859
0.194445
0.20011
0.199674
0.19957
0.199713
0.200003
0.200317
0.200542
0.200619
0.200548
0.200331
0.205898
0.20574
0.205699
0.205775
0.205939
0.206121
0.206253
0.206302
0.206277
0.206211
0.21178
0.211803
0.211793
0.211814
0.211873
0.211941
0.211986
0.211997
0.211996
0.212047
0.217781
0.217915
0.217909
0.217863
0.217813
0.21776
0.217706
0.21766
0.217659
0.217795
0.22394
0.224138
0.224099
0.223955
0.223766
0.223563
0.22338
0.223246
0.223216
0.223405
0.230321
0.230532
0.230411
0.23012
0.229741
0.229337
0.228977
0.228714
0.228615
0.228813
0.237019
0.237163
0.236893
0.236383
0.235742
0.235069
0.234468
0.234019
0.233799
0.233942
0.24415
0.2441
0.243584
0.242765
0.241773
0.240747
0.23983
0.239126
0.238716
0.238707
0.251859
0.2514
0.250507
0.249269
0.247825
0.246359
0.245046
0.244012
0.243325
0.243024
0.260324
0.259071
0.257637
0.255863
0.253875
0.251895
0.250119
0.248684
0.247619
0.246821
0.269664
0.267081
0.264862
0.262441
0.259853
0.257338
0.255078
0.25319
0.251631
0.250084
0.279952
0.275093
0.271837
0.268735
0.265599
0.262643
0.259973
0.257644
0.255484
0.252858
0.290815
0.282285
0.277839
0.27422
0.270795
0.267699
0.264872
0.262232
0.259409
0.255315
0.302305
0.287699
0.281761
0.278
0.274855
0.272254
0.269822
0.267223
0.263782
0.257801
0.314496
0.288376
0.280618
0.277955
0.276527
0.275736
0.274774
0.272955
0.269175
0.260919
0.167456
0.162206
0.164186
0.167738
0.17083
0.173065
0.174284
0.174535
0.173875
0.172029
0.17793
0.172407
0.172561
0.17443
0.176415
0.178018
0.178954
0.179168
0.178675
0.177278
0.183379
0.180158
0.179974
0.180958
0.182214
0.183328
0.184017
0.184191
0.183843
0.182843
0.188852
0.187095
0.18685
0.187347
0.188124
0.188872
0.189361
0.189498
0.189268
0.188595
0.19443
0.193512
0.193326
0.193586
0.194063
0.194556
0.194893
0.194998
0.194859
0.194445
0.20011
0.199674
0.19957
0.199713
0.200003
0.200317
0.200542
0.200619
0.200548
0.200331
0.205898
0.20574
0.205699
0.205775
0.205939
0.206121
0.206253
0.206302
0.206277
0.206211
0.21178
0.211803
0.211793
0.211814
0.211873
0.211941
0.211986
0.211997
0.211996
0.212047
0.217781
0.217915
0.217909
0.217863
0.217813
0.21776
0.217706
0.21766
0.217659
0.217795
0.22394
0.224138
0.224099
0.223955
0.223766
0.223563
0.22338
0.223246
0.223216
0.223405
0.230321
0.230532
0.230411
0.23012
0.229741
0.229337
0.228977
0.228714
0.228615
0.228813
0.237019
0.237163
0.236893
0.236383
0.235742
0.235069
0.234468
0.234019
0.233799
0.233942
0.24415
0.2441
0.243584
0.242765
0.241773
0.240747
0.23983
0.239126
0.238716
0.238707
0.251859
0.2514
0.250507
0.249269
0.247825
0.246359
0.245046
0.244012
0.243325
0.243024
0.260324
0.259071
0.257637
0.255863
0.253875
0.251895
0.250119
0.248684
0.247619
0.246821
0.269664
0.267081
0.264862
0.262441
0.259853
0.257338
0.255078
0.25319
0.251631
0.250084
0.279952
0.275093
0.271837
0.268735
0.265599
0.262643
0.259973
0.257644
0.255484
0.252858
0.290815
0.282285
0.277839
0.27422
0.270795
0.267699
0.264872
0.262232
0.259409
0.255315
0.302305
0.287699
0.281761
0.278
0.274855
0.272254
0.269822
0.267223
0.263782
0.257801
0.314496
0.288376
0.280618
0.277955
0.276527
0.275736
0.274774
0.272955
0.269175
0.260919
0.166615
0.162063
0.164071
0.16767
0.170805
0.173053
0.17428
0.174532
0.173853
0.172056
0.177787
0.17247
0.172514
0.174385
0.176393
0.178005
0.178947
0.179163
0.178657
0.177297
0.183369
0.180229
0.179965
0.180937
0.182201
0.183317
0.18401
0.184186
0.183829
0.182855
0.188829
0.187124
0.186846
0.187336
0.188114
0.188864
0.189355
0.189493
0.189257
0.188603
0.194416
0.193526
0.193327
0.193581
0.194057
0.19455
0.194888
0.194994
0.194852
0.194449
0.200105
0.199681
0.199571
0.199711
0.2
0.200314
0.200538
0.200616
0.200544
0.200333
0.205897
0.205742
0.2057
0.205775
0.205937
0.206118
0.206251
0.2063
0.206276
0.206211
0.21178
0.211802
0.211793
0.211814
0.211872
0.211939
0.211985
0.211996
0.211997
0.212046
0.217783
0.217912
0.217909
0.217864
0.217813
0.217759
0.217705
0.217659
0.217661
0.217793
0.223943
0.224134
0.224099
0.223956
0.223766
0.223563
0.223379
0.223246
0.22322
0.223401
0.230326
0.230527
0.230412
0.230121
0.229741
0.229337
0.228976
0.228714
0.228619
0.228808
0.237025
0.237158
0.236894
0.236384
0.235743
0.23507
0.234468
0.234019
0.233803
0.233937
0.244156
0.244098
0.243586
0.242767
0.241774
0.240748
0.23983
0.239125
0.238718
0.238702
0.251863
0.251405
0.250511
0.249272
0.247828
0.24636
0.245046
0.244011
0.243323
0.24302
0.260325
0.259089
0.257644
0.255867
0.253878
0.251897
0.250119
0.248681
0.247609
0.24682
0.269651
0.267119
0.264869
0.262443
0.259857
0.25734
0.255078
0.253185
0.25161
0.250089
0.279901
0.275163
0.271844
0.268736
0.265605
0.262644
0.259973
0.257636
0.255445
0.252872
0.290749
0.282459
0.277863
0.274222
0.270803
0.2677
0.264871
0.262219
0.259345
0.255344
0.30219
0.288023
0.281756
0.277957
0.27484
0.272241
0.269814
0.267201
0.263684
0.25785
0.313166
0.288267
0.280323
0.277771
0.276459
0.275702
0.274758
0.272925
0.269032
0.260996
0.252751
0.261357
0.266578
0.270675
0.274235
0.277483
0.279699
0.279881
0.276243
0.265771
0.223626
0.239426
0.250646
0.260195
0.26928
0.277937
0.285019
0.28886
0.286585
0.273748
0.206145
0.221465
0.234824
0.248328
0.262797
0.277777
0.291433
0.30102
0.301894
0.287384
0.192637
0.206474
0.220674
0.237109
0.256557
0.278393
0.300251
0.318126
0.324866
0.310622
0.182813
0.195475
0.210161
0.228937
0.252952
0.281923
0.313525
0.342753
0.359479
0.349926
0.176923
0.18928
0.204805
0.22591
0.254377
0.290785
0.33373
0.378191
0.411317
0.415399
0.174779
0.187886
0.205006
0.228928
0.262193
0.30667
0.362922
0.427644
0.486879
0.521359
0.17549
0.19008
0.209363
0.23652
0.275004
0.328455
0.400534
0.491322
0.591104
0.69497
0.177433
0.193141
0.213862
0.243067
0.285172
0.346071
0.434072
0.557402
0.726243
1.0061
0.178782
0.193998
0.213532
0.240757
0.280362
0.339699
0.432757
0.587059
0.873425
1.49055
0.253091
0.260894
0.266451
0.270665
0.274234
0.277492
0.279703
0.279915
0.276439
0.265659
0.224045
0.239351
0.25058
0.260161
0.269258
0.277931
0.285012
0.288897
0.286848
0.273595
0.2064
0.221483
0.234792
0.248286
0.262756
0.277749
0.291402
0.301054
0.302234
0.287188
0.192726
0.206458
0.220621
0.23704
0.256483
0.278325
0.300177
0.318141
0.325276
0.310383
0.182839
0.195442
0.210091
0.228839
0.252837
0.281801
0.313386
0.342729
0.359912
0.349671
0.176931
0.189243
0.204725
0.22579
0.254219
0.290585
0.333488
0.378073
0.411672
0.415352
0.174794
0.187863
0.204938
0.228805
0.261996
0.306357
0.362491
0.427309
0.486856
0.521849
0.175534
0.190114
0.209384
0.23652
0.274952
0.328254
0.400156
0.490973
0.589809
0.694653
0.177501
0.193253
0.214046
0.243357
0.285602
0.346631
0.434814
0.558004
0.723012
1.00381
0.178833
0.194037
0.21355
0.240759
0.280375
0.339773
0.433114
0.587493
0.869736
1.4998
0.253091
0.260894
0.266451
0.270665
0.274234
0.277492
0.279703
0.279915
0.276439
0.265659
0.224045
0.239351
0.25058
0.260161
0.269258
0.277931
0.285012
0.288897
0.286848
0.273595
0.2064
0.221483
0.234792
0.248286
0.262756
0.277749
0.291402
0.301054
0.302234
0.287188
0.192726
0.206458
0.220621
0.23704
0.256483
0.278325
0.300177
0.318141
0.325276
0.310383
0.182839
0.195442
0.210091
0.228839
0.252837
0.281801
0.313386
0.342729
0.359912
0.349671
0.176931
0.189243
0.204725
0.22579
0.254219
0.290585
0.333488
0.378073
0.411672
0.415352
0.174794
0.187863
0.204938
0.228805
0.261996
0.306357
0.362491
0.427309
0.486856
0.521849
0.175534
0.190114
0.209384
0.23652
0.274952
0.328254
0.400156
0.490973
0.589809
0.694653
0.177501
0.193253
0.214046
0.243357
0.285602
0.346631
0.434814
0.558004
0.723012
1.00381
0.178833
0.194037
0.21355
0.240759
0.280375
0.339773
0.433114
0.587493
0.869736
1.4998
0.252751
0.261357
0.266578
0.270675
0.274235
0.277483
0.279699
0.279881
0.276243
0.265771
0.223626
0.239426
0.250646
0.260195
0.26928
0.277937
0.285019
0.28886
0.286585
0.273748
0.206145
0.221465
0.234824
0.248328
0.262797
0.277777
0.291433
0.30102
0.301894
0.287384
0.192637
0.206474
0.220674
0.237109
0.256557
0.278393
0.300251
0.318126
0.324866
0.310622
0.182813
0.195475
0.210161
0.228937
0.252952
0.281923
0.313525
0.342753
0.359479
0.349926
0.176923
0.18928
0.204805
0.22591
0.254377
0.290785
0.33373
0.378191
0.411317
0.415399
0.174779
0.187886
0.205006
0.228928
0.262193
0.30667
0.362922
0.427644
0.486879
0.521359
0.17549
0.19008
0.209363
0.23652
0.275004
0.328455
0.400534
0.491322
0.591104
0.69497
0.177433
0.193141
0.213862
0.243067
0.285172
0.346071
0.434072
0.557402
0.726243
1.0061
0.178782
0.193998
0.213532
0.240757
0.280362
0.339699
0.432757
0.587059
0.873425
1.49055
-0.153801
-0.133129
-0.115081
-0.0984374
-0.0818185
-0.0650169
-0.0480241
-0.0308749
-0.0136298
0.00364031
0.0208591
0.0379545
0.0548609
0.0715296
0.0879875
0.104423
0.121319
0.139716
0.162916
0.200681
-0.139829
-0.126345
-0.111822
-0.0965696
-0.0806376
-0.064236
-0.0475
-0.0305265
-0.0133998
0.00380554
0.0210243
0.0381983
0.055288
0.0722967
0.0892965
0.106494
0.124286
0.143294
0.165028
0.192932
-0.136614
-0.124621
-0.110921
-0.0960628
-0.0803665
-0.0640967
-0.0474267
-0.0304785
-0.0133461
0.00389585
0.0211865
0.0384771
0.0557343
0.0729515
0.0901677
0.107499
0.125159
0.14344
0.162897
0.18443
-0.1378
-0.1255
-0.111624
-0.0966329
-0.0808337
-0.0644675
-0.0477037
-0.0306628
-0.0134326
0.00391999
0.021342
0.0387884
0.0562188
0.0735977
0.0908981
0.108108
0.125229
0.14226
0.159258
0.176326
-0.14049
-0.127517
-0.113152
-0.0977815
-0.0816904
-0.0650949
-0.0481469
-0.0309514
-0.0135817
0.00390873
0.021476
0.0390766
0.056658
0.0741495
0.0914528
0.10844
0.124934
0.140734
0.155667
0.169694
-0.142912
-0.129324
-0.114493
-0.0987616
-0.0823956
-0.0655906
-0.0484807
-0.031155
-0.0136728
0.00392297
0.0215942
0.0392952
0.0569593
0.0744826
0.0917086
0.108444
0.124385
0.139259
0.152855
0.165234
-0.143405
-0.12958
-0.114616
-0.0988074
-0.0823962
-0.0655637
-0.0484345
-0.0310918
-0.013591
0.0040261
0.0217193
0.0394355
0.057094
0.0745694
0.0916768
0.108171
0.123751
0.138138
0.151191
0.163129
-0.141095
-0.127628
-0.113049
-0.0975917
-0.0814752
-0.0648762
-0.0479252
-0.0307149
-0.0133119
0.00423111
0.0218625
0.0395168
0.057101
0.0744785
0.0914582
0.107796
0.123224
0.137522
0.150655
0.162984
-0.135993
-0.123661
-0.110059
-0.0953937
-0.0798911
-0.0637517
-0.0471367
-0.0301689
-0.0129413
0.004472
0.022004
0.0395739
0.0570794
0.0743825
0.0912992
0.107606
0.12307
0.13753
0.15102
0.163971
-0.127729
-0.117694
-0.105852
-0.09249
-0.0779241
-0.0624414
-0.0462779
-0.0296163
-0.0125943
0.00468185
0.0221219
0.0396435
0.0571435
0.0744866
0.0914986
0.107967
0.123666
0.138421
0.152219
0.165385
-0.154184
-0.133012
-0.115067
-0.0984598
-0.0818312
-0.0650245
-0.0480294
-0.0308782
-0.0136315
0.00363994
0.0208597
0.0379553
0.0548609
0.0715266
0.0879778
0.104402
0.121296
0.139667
0.162586
0.200082
-0.139772
-0.126174
-0.111745
-0.0965327
-0.0806112
-0.0642176
-0.0474874
-0.030518
-0.0133943
0.00380896
0.0210267
0.0382012
0.0552933
0.0723075
0.0893158
0.106526
0.124345
0.143366
0.164928
0.192675
-0.136674
-0.124596
-0.110897
-0.0960445
-0.0803517
-0.0640861
-0.0474193
-0.0304734
-0.0133425
0.00389825
0.021188
0.038478
0.055735
0.0729519
0.0901664
0.107495
0.125153
0.143422
0.162806
0.184345
-0.137845
-0.1255