/*--------------------------------*- C++ -*----------------------------------*\
| =========                 |                                                 |
| \\      /  F ield         | OpenFOAM: The Open Source CFD Toolbox           |
|  \\    /   O peration     | Version:  2.4.0                                 |
|   \\  /    A nd           | Web:      www.OpenFOAM.org                      |
|    \\/     M anipulation  |                                                 |
\*---------------------------------------------------------------------------*/
FoamFile
{
    version     2.0;
    format      ascii;
    class       volScalarField;
    location    "0.0038";
    object      T;
}
// * * * * * * * * * * * * * * * * * * * * * * * * * * * * * * * * * * * * * //

dimensions      [0 0 0 1 0 0 0];

internalField   nonuniform List<scalar> 
4800
(
100.193
100.58
100.966
101.352
101.736
102.114
102.485
102.842
103.179
103.491
100.58
101.74
102.9
104.059
105.212
106.352
107.469
108.545
109.564
110.504
100.966
102.9
104.835
106.771
108.701
110.614
112.492
114.308
116.028
117.615
101.352
104.059
106.771
109.489
112.208
114.913
117.579
120.167
122.625
124.893
101.736
105.212
108.701
112.208
115.73
119.252
122.745
126.156
129.413
132.421
102.115
106.352
110.614
114.913
119.252
123.622
127.992
132.303
136.452
140.296
102.485
107.469
112.492
117.579
122.745
127.992
133.301
138.611
143.797
148.642
102.842
108.545
114.308
120.167
126.157
132.303
138.612
145.047
151.482
157.624
103.179
109.564
116.028
122.625
129.414
136.452
143.797
151.483
159.464
167.445
103.491
110.504
117.616
124.895
132.423
140.297
148.643
157.625
167.446
178.212
100.193
100.58
100.966
101.352
101.736
102.115
102.485
102.842
103.179
103.491
100.58
101.74
102.9
104.059
105.212
106.352
107.469
108.545
109.564
110.504
100.966
102.9
104.835
106.771
108.701
110.614
112.492
114.308
116.027
117.614
101.352
104.059
106.771
109.489
112.208
114.913
117.579
120.167
122.625
124.893
101.736
105.212
108.701
112.208
115.73
119.252
122.745
126.156
129.413
132.421
102.115
106.352
110.614
114.913
119.252
123.622
127.992
132.303
136.452
140.296
102.485
107.469
112.492
117.579
122.745
127.992
133.302
138.612
143.797
148.642
102.842
108.546
114.308
120.167
126.157
132.303
138.612
145.047
151.483
157.624
103.179
109.564
116.028
122.626
129.414
136.453
143.797
151.483
159.464
167.446
103.491
110.505
117.616
124.895
132.423
140.298
148.643
157.626
167.447
178.212
100.193
100.58
100.966
101.352
101.736
102.115
102.485
102.842
103.179
103.491
100.58
101.74
102.9
104.059
105.212
106.352
107.469
108.545
109.564
110.504
100.966
102.9
104.835
106.771
108.701
110.614
112.492
114.308
116.027
117.614
101.352
104.059
106.771
109.489
112.208
114.913
117.579
120.167
122.625
124.893
101.736
105.212
108.701
112.208
115.73
119.252
122.745
126.156
129.413
132.421
102.115
106.352
110.614
114.913
119.252
123.622
127.992
132.303
136.452
140.296
102.485
107.469
112.492
117.579
122.745
127.992
133.302
138.612
143.797
148.642
102.842
108.546
114.308
120.167
126.157
132.303
138.612
145.047
151.483
157.624
103.179
109.564
116.028
122.626
129.414
136.453
143.797
151.483
159.464
167.446
103.491
110.505
117.616
124.895
132.423
140.298
148.643
157.626
167.447
178.212
100.193
100.58
100.966
101.352
101.736
102.114
102.485
102.842
103.179
103.491
100.58
101.74
102.9
104.059
105.212
106.352
107.469
108.545
109.564
110.504
100.966
102.9
104.835
106.771
108.701
110.614
112.492
114.308
116.028
117.615
101.352
104.059
106.771
109.489
112.208
114.913
117.579
120.167
122.625
124.893
101.736
105.212
108.701
112.208
115.73
119.252
122.745
126.156
129.413
132.421
102.115
106.352
110.614
114.913
119.252
123.622
127.992
132.303
136.452
140.296
102.485
107.469
112.492
117.579
122.745
127.992
133.301
138.611
143.797
148.642
102.842
108.545
114.308
120.167
126.157
132.303
138.612
145.047
151.482
157.624
103.179
109.564
116.028
122.625
129.414
136.452
143.797
151.483
159.464
167.445
103.491
110.504
117.616
124.895
132.423
140.297
148.643
157.625
167.446
178.212
103.77
104.014
104.22
104.389
104.524
104.628
104.705
104.76
104.794
104.811
104.811
104.794
104.76
104.705
104.628
104.524
104.389
104.22
104.014
103.77
111.347
112.08
112.698
113.202
113.603
113.911
114.139
114.299
114.4
114.449
114.449
114.4
114.299
114.139
113.91
113.602
113.202
112.697
112.079
111.346
119.034
120.262
121.288
122.12
122.775
123.274
123.641
123.898
124.059
124.137
124.137
124.059
123.897
123.64
123.273
122.773
122.119
121.287
120.26
119.033
126.914
128.645
130.075
131.217
132.102
132.769
133.255
133.592
133.802
133.904
133.903
133.802
133.591
133.254
132.768
132.1
131.215
130.073
128.643
126.912
135.084
137.332
139.15
140.57
141.649
142.447
143.02
143.412
143.656
143.773
143.772
143.655
143.411
143.019
142.445
141.647
140.568
139.147
137.329
135.082
143.67
146.449
148.623
150.266
151.477
152.351
152.967
153.382
153.637
153.759
153.759
153.637
153.381
152.965
152.349
151.475
150.264
148.621
146.446
143.668
152.852
156.171
158.63
160.395
161.643
162.515
163.114
163.512
163.754
163.869
163.868
163.753
163.511
163.113
162.513
161.641
160.393
158.628
156.169
152.851
162.928
166.753
169.331
171.043
172.185
172.952
173.464
173.798
173.999
174.094
174.094
173.999
173.797
173.463
172.95
172.184
171.041
169.329
166.751
162.927
174.483
178.582
180.898
182.261
183.104
183.643
183.993
184.218
184.352
184.414
184.414
184.351
184.217
183.993
183.642
183.103
182.261
180.898
178.582
174.483
188.979
192.196
193.419
194.001
194.326
194.524
194.649
194.729
194.776
194.798
194.797
194.776
194.728
194.649
194.523
194.326
194.001
193.419
192.196
188.978
103.77
104.014
104.22
104.389
104.524
104.628
104.705
104.759
104.794
104.811
104.811
104.794
104.759
104.705
104.627
104.523
104.389
104.219
104.013
103.77
111.347
112.08
112.697
113.202
113.603
113.911
114.139
114.299
114.4
114.449
114.449
114.399
114.298
114.138
113.909
113.601
113.201
112.696
112.078
111.345
119.034
120.262
121.288
122.12
122.774
123.274
123.641
123.897
124.059
124.136
124.136
124.058
123.896
123.64
123.272
122.772
122.118
121.286
120.259
119.032
126.914
128.645
130.075
131.216
132.102
132.769
133.255
133.591
133.802
133.903
133.903
133.801
133.59
133.253
132.767
132.099
131.213
130.072
128.642
126.911
135.084
137.331
139.149
140.57
141.648
142.447
143.02
143.411
143.655
143.772
143.771
143.654
143.41
143.018
142.444
141.646
140.567
139.146
137.328
135.081
143.67
146.448
148.623
150.266
151.477
152.351
152.966
153.381
153.637
153.758
153.758
153.636
153.38
152.964
152.348
151.474
150.262
148.619
146.445
143.666
152.852
156.171
158.63
160.395
161.642
162.514
163.113
163.511
163.753
163.868
163.867
163.752
163.51
163.112
162.512
161.639
160.392
158.626
156.167
152.849
162.928
166.753
169.33
171.043
172.185
172.951
173.463
173.797
173.998
174.093
174.093
173.998
173.796
173.462
172.949
172.182
171.04
169.328
166.75
162.925
174.484
178.582
180.898
182.261
183.103
183.642
183.993
184.217
184.351
184.413
184.413
184.35
184.216
183.992
183.641
183.102
182.259
180.896
178.58
174.481
188.979
192.196
193.419
194.001
194.325
194.523
194.649
194.728
194.775
194.797
194.797
194.775
194.728
194.648
194.523
194.325
194
193.418
192.195
188.977
103.77
104.014
104.22
104.389
104.524
104.628
104.705
104.759
104.794
104.811
104.811
104.794
104.759
104.705
104.627
104.523
104.389
104.219
104.013
103.77
111.347
112.08
112.697
113.202
113.603
113.911
114.139
114.299
114.4
114.449
114.449
114.399
114.298
114.138
113.909
113.601
113.201
112.696
112.078
111.345
119.034
120.262
121.288
122.12
122.774
123.274
123.641
123.897
124.059
124.136
124.136
124.058
123.896
123.64
123.272
122.772
122.118
121.286
120.259
119.032
126.914
128.645
130.075
131.216
132.102
132.769
133.255
133.591
133.802
133.903
133.903
133.801
133.59
133.253
132.767
132.099
131.213
130.072
128.642
126.911
135.084
137.331
139.149
140.57
141.648
142.447
143.02
143.411
143.655
143.772
143.771
143.654
143.41
143.018
142.444
141.646
140.567
139.146
137.328
135.081
143.67
146.448
148.623
150.266
151.477
152.351
152.966
153.381
153.637
153.758
153.758
153.636
153.38
152.964
152.348
151.474
150.262
148.619
146.445
143.666
152.852
156.171
158.63
160.395
161.642
162.514
163.113
163.511
163.753
163.868
163.867
163.752
163.51
163.112
162.512
161.639
160.392
158.626
156.167
152.849
162.928
166.753
169.33
171.043
172.185
172.951
173.463
173.797
173.998
174.093
174.093
173.998
173.796
173.462
172.949
172.182
171.04
169.328
166.75
162.925
174.484
178.582
180.898
182.261
183.103
183.642
183.993
184.217
184.351
184.413
184.413
184.35
184.216
183.992
183.641
183.102
182.259
180.896
178.58
174.481
188.979
192.196
193.419
194.001
194.325
194.523
194.649
194.728
194.775
194.797
194.797
194.775
194.728
194.648
194.523
194.325
194
193.418
192.195
188.977
103.77
104.014
104.22
104.389
104.524
104.628
104.705
104.76
104.794
104.811
104.811
104.794
104.76
104.705
104.628
104.524
104.389
104.22
104.014
103.77
111.347
112.08
112.698
113.202
113.603
113.911
114.139
114.299
114.4
114.449
114.449
114.4
114.299
114.139
113.91
113.602
113.202
112.697
112.079
111.346
119.034
120.262
121.288
122.12
122.775
123.274
123.641
123.898
124.059
124.137
124.137
124.059
123.897
123.64
123.273
122.773
122.119
121.287
120.26
119.033
126.914
128.645
130.075
131.217
132.102
132.769
133.255
133.592
133.802
133.904
133.903
133.802
133.591
133.254
132.768
132.1
131.215
130.073
128.643
126.912
135.084
137.332
139.15
140.57
141.649
142.447
143.02
143.412
143.656
143.773
143.772
143.655
143.411
143.019
142.445
141.647
140.568
139.147
137.329
135.082
143.67
146.449
148.623
150.266
151.477
152.351
152.967
153.382
153.637
153.759
153.759
153.637
153.381
152.965
152.349
151.475
150.264
148.621
146.446
143.668
152.852
156.171
158.63
160.395
161.643
162.515
163.114
163.512
163.754
163.869
163.868
163.753
163.511
163.113
162.513
161.641
160.393
158.628
156.169
152.851
162.928
166.753
169.331
171.043
172.185
172.952
173.464
173.798
173.999
174.094
174.094
173.999
173.797
173.463
172.95
172.184
171.041
169.329
166.751
162.927
174.483
178.582
180.898
182.261
183.104
183.643
183.993
184.218
184.352
184.414
184.414
184.351
184.217
183.993
183.642
183.103
182.261
180.898
178.582
174.483
188.979
192.196
193.419
194.001
194.326
194.524
194.649
194.729
194.776
194.798
194.797
194.776
194.728
194.649
194.523
194.326
194.001
193.419
192.196
188.978
103.491
103.179
102.842
102.485
102.115
101.736
101.353
100.967
100.58
100.194
110.504
109.564
108.545
107.469
106.353
105.212
104.059
102.901
101.74
100.58
117.614
116.027
114.308
112.492
110.615
108.702
106.772
104.836
102.901
100.967
124.892
122.624
120.166
117.579
114.914
112.209
109.49
106.772
104.059
101.353
132.42
129.413
126.156
122.745
119.253
115.731
112.209
108.702
105.213
101.736
140.295
136.451
132.303
127.993
123.623
119.253
114.914
110.616
106.353
102.115
148.641
143.796
138.612
133.302
127.994
122.746
117.58
112.494
107.47
102.485
157.624
151.483
145.048
138.613
132.305
126.159
120.169
114.31
108.547
102.843
167.446
159.465
151.485
143.799
136.455
129.417
122.628
116.03
109.566
103.18
178.213
167.448
157.627
148.646
140.3
132.426
124.898
117.618
110.506
103.492
103.49
103.179
102.841
102.484
102.114
101.735
101.352
100.966
100.58
100.193
110.502
109.562
108.544
107.467
106.351
105.211
104.058
102.899
101.739
100.58
117.612
116.026
114.306
112.491
110.613
108.7
106.77
104.835
102.899
100.966
124.891
122.623
120.165
117.577
114.912
112.207
109.489
106.77
104.058
101.352
132.418
129.411
126.155
122.743
119.251
115.729
112.207
108.701
105.211
101.735
140.293
136.449
132.301
127.991
123.621
119.251
114.913
110.614
106.352
102.114
148.639
143.795
138.61
133.301
127.992
122.744
117.579
112.492
107.468
102.485
157.622
151.481
145.046
138.611
132.303
126.157
120.167
114.308
108.545
102.842
167.444
159.463
151.483
143.797
136.453
129.415
122.626
116.028
109.564
103.179
178.211
167.446
157.625
148.644
140.298
132.424
124.896
117.616
110.505
103.491
103.49
103.179
102.841
102.484
102.114
101.735
101.352
100.966
100.58
100.193
110.502
109.562
108.544
107.467
106.351
105.211
104.058
102.899
101.739
100.58
117.612
116.026
114.306
112.491
110.613
108.7
106.77
104.835
102.899
100.966
124.891
122.623
120.165
117.577
114.912
112.207
109.489
106.77
104.058
101.352
132.418
129.411
126.155
122.743
119.251
115.729
112.207
108.701
105.211
101.735
140.293
136.449
132.301
127.991
123.621
119.251
114.913
110.614
106.352
102.114
148.639
143.795
138.61
133.301
127.992
122.744
117.579
112.492
107.468
102.485
157.622
151.481
145.046
138.611
132.303
126.157
120.167
114.308
108.545
102.842
167.444
159.463
151.483
143.797
136.453
129.415
122.626
116.028
109.564
103.179
178.211
167.446
157.625
148.644
140.298
132.424
124.896
117.616
110.505
103.491
103.491
103.179
102.842
102.485
102.115
101.736
101.353
100.967
100.58
100.194
110.504
109.564
108.545
107.469
106.353
105.212
104.059
102.901
101.74
100.58
117.614
116.027
114.308
112.492
110.615
108.702
106.772
104.836
102.901
100.967
124.892
122.624
120.166
117.579
114.914
112.209
109.49
106.772
104.059
101.353
132.42
129.413
126.156
122.745
119.253
115.731
112.209
108.702
105.213
101.736
140.295
136.451
132.303
127.993
123.623
119.253
114.914
110.616
106.353
102.115
148.641
143.796
138.612
133.302
127.994
122.746
117.58
112.494
107.47
102.485
157.624
151.483
145.048
138.613
132.305
126.159
120.169
114.31
108.547
102.843
167.446
159.465
151.485
143.799
136.455
129.417
122.628
116.03
109.566
103.18
178.213
167.448
157.627
148.646
140.3
132.426
124.898
117.618
110.506
103.492
188.98
174.487
162.933
152.858
143.676
135.09
126.92
119.039
111.35
103.772
192.198
178.587
166.76
156.179
146.458
137.341
128.654
120.268
112.084
104.016
193.422
180.905
169.341
158.642
148.636
139.163
130.087
121.298
112.704
104.223
194.005
182.271
171.057
160.412
150.285
140.588
131.233
122.134
113.211
104.392
194.33
183.116
172.204
161.667
151.503
141.675
132.126
122.793
113.615
104.528
194.53
183.661
172.978
162.548
152.388
142.484
132.803
123.3
113.928
104.634
194.658
184.018
173.502
163.161
153.019
143.072
133.302
123.678
114.163
104.714
194.741
184.253
173.852
163.579
153.455
143.485
133.657
123.95
114.333
104.771
194.793
184.401
174.075
163.848
153.741
143.759
133.895
124.132
114.447
104.811
194.822
184.484
174.201
164.002
153.905
143.917
134.033
124.239
114.515
104.834
194.832
184.512
174.245
164.056
153.965
143.976
134.085
124.28
114.54
104.842
194.824
184.49
174.213
164.019
153.926
143.94
134.055
124.257
114.527
104.838
194.798
184.415
174.1
163.885
153.787
143.809
133.943
124.172
114.474
104.82
194.748
184.276
173.894
163.641
153.534
143.572
133.742
124.02
114.379
104.788
194.667
184.049
173.565
163.26
153.146
143.214
133.44
123.794
114.239
104.74
194.536
183.695
173.066
162.698
152.588
142.71
133.022
123.483
114.048
104.676
194.319
183.137
172.318
161.891
151.816
142.029
132.468
123.077
113.801
104.593
193.922
182.225
171.194
160.753
150.774
141.141
131.763
122.567
113.494
104.491
193.07
180.662
169.502
159.179
149.411
140.022
130.896
121.951
113.126
104.368
190.773
177.873
167.001
157.081
147.703
138.672
129.874
121.236
112.703
104.228
188.979
174.485
162.931
152.856
143.674
135.088
126.918
119.037
111.349
103.771
192.196
178.585
166.757
156.177
146.456
137.339
128.652
120.267
112.083
104.015
193.42
180.902
169.338
158.639
148.634
139.16
130.084
121.296
112.702
104.222
194.003
182.268
171.054
160.409
150.282
140.586
131.231
122.132
113.209
104.391
194.329
183.114
172.201
161.664
151.5
141.672
132.123
122.791
113.613
104.527
194.528
183.658
172.976
162.545
152.385
142.481
132.8
123.298
113.926
104.633
194.656
184.015
173.499
163.158
153.016
143.069
133.3
123.676
114.161
104.713
194.739
184.25
173.848
163.576
153.452
143.483
133.655
123.947
114.331
104.77
194.791
184.398
174.072
163.845
153.738
143.756
133.892
124.13
114.445
104.809
194.82
184.48
174.197
163.999
153.902
143.914
134.031
124.237
114.513
104.832
194.83
184.509
174.241
164.053
153.962
143.973
134.082
124.277
114.538
104.841
194.822
184.487
174.209
164.015
153.923
143.937
134.052
124.255
114.525
104.837
194.795
184.412
174.097
163.882
153.783
143.806
133.94
124.17
114.472
104.819
194.746
184.272
173.89
163.637
153.531
143.569
133.739
124.018
114.377
104.786
194.664
184.046
173.561
163.256
153.143
143.211
133.437
123.791
114.237
104.739
194.533
183.691
173.062
162.694
152.585
142.706
133.019
123.48
114.046
104.675
194.316
183.133
172.314
161.888
151.812
142.025
132.465
123.074
113.799
104.592
193.919
182.221
171.19
160.749
150.77
141.137
131.76
122.564
113.491
104.489
193.067
180.658
169.498
159.175
149.408
140.019
130.893
121.949
113.124
104.367
190.77
177.869
166.997
157.078
147.7
138.668
129.871
121.233
112.7
104.227
188.979
174.485
162.931
152.856
143.674
135.088
126.918
119.037
111.349
103.771
192.196
178.585
166.757
156.177
146.456
137.339
128.652
120.267
112.083
104.015
193.42
180.902
169.338
158.639
148.634
139.16
130.084
121.296
112.702
104.222
194.003
182.268
171.054
160.409
150.282
140.586
131.231
122.132
113.209
104.391
194.329
183.114
172.201
161.664
151.5
141.672
132.123
122.791
113.613
104.527
194.528
183.658
172.976
162.545
152.385
142.481
132.8
123.298
113.926
104.633
194.656
184.015
173.499
163.158
153.016
143.069
133.3
123.676
114.161
104.713
194.739
184.25
173.848
163.576
153.452
143.483
133.655
123.947
114.331
104.77
194.791
184.398
174.072
163.845
153.738
143.756
133.892
124.13
114.445
104.809
194.82
184.48
174.197
163.999
153.902
143.914
134.031
124.237
114.513
104.832
194.83
184.509
174.241
164.053
153.962
143.973
134.082
124.277
114.538
104.841
194.822
184.487
174.209
164.015
153.923
143.937
134.052
124.255
114.525
104.837
194.795
184.412
174.097
163.882
153.783
143.806
133.94
124.17
114.472
104.819
194.746
184.272
173.89
163.637
153.531
143.569
133.739
124.018
114.377
104.786
194.664
184.046
173.561
163.256
153.143
143.211
133.437
123.791
114.237
104.739
194.533
183.691
173.062
162.694
152.585
142.706
133.019
123.48
114.046
104.675
194.316
183.133
172.314
161.888
151.812
142.025
132.465
123.074
113.799
104.592
193.919
182.221
171.19
160.749
150.77
141.137
131.76
122.564
113.491
104.489
193.067
180.658
169.498
159.175
149.408
140.019
130.893
121.949
113.124
104.367
190.77
177.869
166.997
157.078
147.7
138.668
129.871
121.233
112.7
104.227
188.98
174.487
162.933
152.858
143.676
135.09
126.92
119.039
111.35
103.772
192.198
178.587
166.76
156.179
146.458
137.341
128.654
120.268
112.084
104.016
193.422
180.905
169.341
158.642
148.636
139.163
130.087
121.298
112.704
104.223
194.005
182.271
171.057
160.412
150.285
140.588
131.233
122.134
113.211
104.392
194.33
183.116
172.204
161.667
151.503
141.675
132.126
122.793
113.615
104.528
194.53
183.661
172.978
162.548
152.388
142.484
132.803
123.3
113.928
104.634
194.658
184.018
173.502
163.161
153.019
143.072
133.302
123.678
114.163
104.714
194.741
184.253
173.852
163.579
153.455
143.485
133.657
123.95
114.333
104.771
194.793
184.401
174.075
163.848
153.741
143.759
133.895
124.132
114.447
104.811
194.822
184.484
174.201
164.002
153.905
143.917
134.033
124.239
114.515
104.834
194.832
184.512
174.245
164.056
153.965
143.976
134.085
124.28
114.54
104.842
194.824
184.49
174.213
164.019
153.926
143.94
134.055
124.257
114.527
104.838
194.798
184.415
174.1
163.885
153.787
143.809
133.943
124.172
114.474
104.82
194.748
184.276
173.894
163.641
153.534
143.572
133.742
124.02
114.379
104.788
194.667
184.049
173.565
163.26
153.146
143.214
133.44
123.794
114.239
104.74
194.536
183.695
173.066
162.698
152.588
142.71
133.022
123.483
114.048
104.676
194.319
183.137
172.318
161.891
151.816
142.029
132.468
123.077
113.801
104.593
193.922
182.225
171.194
160.753
150.774
141.141
131.763
122.567
113.494
104.491
193.07
180.662
169.502
159.179
149.411
140.022
130.896
121.952
113.126
104.368
190.773
177.873
167.001
157.081
147.703
138.672
129.874
121.236
112.703
104.228
182.933
173.086
163.588
154.486
145.692
137.126
128.725
120.441
112.235
104.074
175.835
168.004
159.835
151.637
143.506
135.462
127.497
119.595
111.74
103.91
169.961
163.332
156.183
148.791
141.298
133.775
126.252
118.739
111.238
103.745
165.151
159.271
152.864
146.129
139.199
132.156
125.05
117.91
110.752
103.585
161.232
155.851
149.982
143.762
137.3
130.675
123.943
117.143
110.302
103.437
158.083
153.051
147.574
141.749
135.663
129.386
122.973
116.468
109.904
103.305
155.628
150.844
145.652
140.123
134.326
128.324
122.17
115.907
109.572
103.196
153.821
149.209
144.215
138.897
133.311
127.514
121.554
115.475
109.316
103.111
152.63
148.128
143.261
138.078
132.631
126.968
121.138
115.184
109.142
103.054
152.039
147.591
142.785
137.669
132.289
126.694
120.929
115.037
109.055
103.03
182.929
173.083
163.584
154.482
145.688
137.122
128.721
120.438
112.232
104.072
175.832
168.001
159.831
151.633
143.503
135.458
127.494
119.592
111.737
103.909
169.958
163.328
156.18
148.787
141.295
133.772
126.249
118.736
111.236
103.744
165.149
159.268
152.861
146.126
139.195
132.153
125.047
117.907
110.749
103.583
161.229
155.848
149.979
143.759
137.297
130.672
123.94
117.14
110.299
103.435
158.08
153.048
147.571
141.747
135.66
129.382
122.97
116.465
109.9
103.303
155.626
150.842
145.649
140.12
134.323
128.321
122.166
115.903
109.568
103.193
153.818
149.207
144.213
138.894
133.308
127.51
121.549
115.47
109.311
103.108
152.628
148.126
143.259
138.075
132.627
126.964
121.134
115.178
109.136
103.049
152.037
147.588
142.783
137.666
132.286
126.69
120.925
115.032
109.049
103.024
182.929
173.083
163.584
154.482
145.688
137.122
128.721
120.438
112.232
104.072
175.832
168.001
159.831
151.633
143.503
135.459
127.494
119.593
111.737
103.909
169.958
163.328
156.18
148.787
141.295
133.772
126.249
118.736
111.236
103.744
165.149
159.268
152.861
146.126
139.196
132.153
125.047
117.907
110.749
103.583
161.229
155.848
149.979
143.759
137.297
130.672
123.94
117.14
110.299
103.435
158.08
153.048
147.571
141.747
135.66
129.382
122.97
116.465
109.9
103.303
155.626
150.842
145.649
140.12
134.323
128.321
122.166
115.903
109.568
103.193
153.818
149.207
144.213
138.894
133.308
127.51
121.549
115.47
109.311
103.108
152.628
148.126
143.259
138.075
132.627
126.964
121.134
115.178
109.136
103.049
152.037
147.588
142.783
137.666
132.286
126.69
120.925
115.032
109.049
103.024
182.933
173.086
163.588
154.486
145.692
137.126
128.725
120.441
112.235
104.074
175.835
168.004
159.835
151.637
143.506
135.462
127.497
119.596
111.74
103.91
169.961
163.332
156.183
148.791
141.299
133.775
126.252
118.739
111.238
103.745
165.151
159.271
152.864
146.129
139.199
132.156
125.05
117.91
110.752
103.585
161.232
155.851
149.982
143.762
137.3
130.675
123.943
117.143
110.302
103.437
158.083
153.051
147.574
141.749
135.663
129.386
122.973
116.468
109.904
103.305
155.628
150.844
145.652
140.123
134.326
128.324
122.17
115.907
109.572
103.196
153.821
149.209
144.216
138.897
133.311
127.514
121.554
115.475
109.316
103.111
152.63
148.128
143.261
138.078
132.631
126.968
121.138
115.184
109.142
103.054
152.039
147.591
142.786
137.669
132.289
126.694
120.929
115.037
109.055
103.03
192.075
194.955
196.151
196.786
197.182
197.448
197.633
197.759
197.837
197.875
197.875
197.838
197.76
197.634
197.45
197.183
196.788
196.153
194.956
192.075
182.51
186.57
189.035
190.62
191.695
192.448
192.98
193.344
193.574
193.684
193.685
193.575
193.347
192.983
192.452
191.699
190.624
189.039
186.572
182.51
175.617
179.838
182.859
185.023
186.59
187.732
188.556
189.128
189.491
189.668
189.668
189.493
189.132
188.56
187.737
186.596
185.029
182.865
179.842
175.62
170.252
174.398
177.634
180.118
182.009
183.433
184.484
185.225
185.699
185.93
185.931
185.702
185.23
184.491
183.441
182.018
180.128
177.644
174.407
170.26
165.967
169.99
173.29
175.938
178.027
179.644
180.86
181.729
182.29
182.565
182.566
182.294
181.736
180.87
179.656
178.041
175.953
173.306
170.006
165.983
162.555
166.456
169.753
172.478
174.682
176.424
177.754
178.716
179.341
179.649
179.651
179.347
178.726
177.768
176.44
174.702
172.5
169.777
166.481
162.58
159.904
163.702
166.972
169.726
171.994
173.812
175.218
176.244
176.914
177.246
177.249
176.922
176.256
175.236
173.834
172.02
169.755
167.004
163.737
159.94
157.954
161.672
164.91
167.671
169.971
171.835
173.288
174.355
175.055
175.404
175.407
175.065
174.37
173.309
171.862
170.004
167.708
164.951
161.717
158.001
156.67
160.332
163.545
166.304
168.62
170.508
171.988
173.079
173.798
174.157
174.16
173.809
173.097
172.013
170.54
168.658
166.348
163.594
160.386
156.726
156.031
159.667
162.865
165.622
167.943
169.842
171.334
172.437
173.165
173.527
173.531
173.176
172.457
171.362
169.877
167.985
165.67
162.919
159.725
156.094
192.077
194.957
196.153
196.788
197.183
197.449
197.634
197.759
197.837
197.875
197.875
197.837
197.759
197.634
197.449
197.182
196.787
196.151
194.954
192.073
182.513
186.573
189.038
190.622
191.697
192.45
192.981
193.345
193.574
193.684
193.685
193.574
193.346
192.982
192.451
191.697
190.622
189.037
186.57
182.507
175.62
179.841
182.862
185.025
186.592
187.733
188.557
189.129
189.492
189.668
189.668
189.493
189.131
188.559
187.736
186.595
185.027
182.863
179.84
175.617
170.255
174.401
177.637
180.121
182.011
183.435
184.485
185.226
185.699
185.93
185.931
185.701
185.229
184.49
183.44
182.016
180.126
177.642
174.404
170.257
165.97
169.993
173.292
175.94
178.029
179.645
180.861
181.73
182.29
182.565
182.566
182.293
181.736
180.868
179.654
178.039
175.951
173.304
170.004
165.98
162.558
166.459
169.756
172.48
174.684
176.425
177.755
178.717
179.341
179.649
179.651
179.346
178.725
177.766
176.439
174.7
172.498
169.775
166.479
162.577
159.907
163.705
166.974
169.728
171.996
173.814
175.219
176.244
176.914
177.246
177.248
176.921
176.255
175.234
173.833
172.018
169.754
167.002
163.735
159.938
157.957
161.675
164.912
167.673
169.973
171.836
173.289
174.355
175.056
175.404
175.406
175.064
174.369
173.308
171.861
170.002
167.706
164.949
161.714
157.999
156.672
160.335
163.547
166.307
168.622
170.51
171.989
173.08
173.799
174.157
174.16
173.809
173.097
172.012
170.538
168.656
166.347
163.592
160.384
156.724
156.034
159.669
162.867
165.624
167.945
169.844
171.336
172.438
173.165
173.528
173.531
173.176
172.456
171.361
169.875
167.984
165.668
162.917
159.723
156.092
192.077
194.957
196.153
196.788
197.183
197.449
197.634
197.759
197.837
197.875
197.875
197.837
197.759
197.634
197.449
197.182
196.787
196.151
194.954
192.073
182.513
186.573
189.038
190.622
191.697
192.45
192.981
193.345
193.574
193.684
193.685
193.574
193.346
192.982
192.451
191.697
190.622
189.037
186.57
182.507
175.621
179.841
182.862
185.025
186.592
187.733
188.557
189.129
189.492
189.668
189.668
189.493
189.131
188.559
187.736
186.595
185.027
182.863
179.84
175.617
170.255
174.401
177.637
180.121
182.011
183.435
184.485
185.226
185.699
185.93
185.931
185.701
185.229
184.49
183.44
182.016
180.126
177.642
174.404
170.257
165.971
169.993
173.292
175.94
178.029
179.645
180.861
181.73
182.29
182.565
182.566
182.293
181.735
180.868
179.654
178.039
175.951
173.304
170.004
165.98
162.558
166.459
169.756
172.48
174.684
176.425
177.755
178.717
179.341
179.649
179.651
179.346
178.725
177.766
176.439
174.7
172.498
169.775
166.479
162.577
159.908
163.705
166.974
169.728
171.996
173.814
175.219
176.244
176.914
177.246
177.248
176.921
176.255
175.234
173.833
172.018
169.754
167.002
163.735
159.938
157.957
161.675
164.912
167.673
169.973
171.836
173.289
174.356
175.056
175.404
175.407
175.064
174.37
173.308
171.861
170.002
167.706
164.949
161.715
157.999
156.673
160.335
163.547
166.307
168.622
170.51
171.989
173.08
173.799
174.157
174.16
173.809
173.097
172.012
170.538
168.657
166.347
163.592
160.384
156.724
156.034
159.669
162.867
165.624
167.945
169.844
171.336
172.438
173.165
173.527
173.531
173.176
172.456
171.361
169.875
167.984
165.668
162.917
159.724
156.092
192.075
194.955
196.151
196.786
197.182
197.448
197.633
197.759
197.837
197.875
197.875
197.838
197.76
197.634
197.45
197.183
196.788
196.153
194.956
192.075
182.51
186.57
189.035
190.62
191.695
192.448
192.98
193.344
193.574
193.684
193.685
193.575
193.347
192.983
192.452
191.699
190.624
189.039
186.572
182.51
175.617
179.838
182.859
185.023
186.59
187.732
188.556
189.128
189.491
189.668
189.668
189.493
189.132
188.56
187.737
186.596
185.029
182.865
179.842
175.62
170.252
174.398
177.634
180.118
182.009
183.433
184.484
185.225
185.699
185.93
185.931
185.702
185.23
184.491
183.441
182.018
180.128
177.644
174.407
170.26
165.967
169.99
173.29
175.938
178.027
179.643
180.86
181.729
182.29
182.565
182.566
182.294
181.736
180.869
179.656
178.041
175.953
173.306
170.006
165.982
162.555
166.456
169.753
172.478
174.682
176.424
177.754
178.716
179.341
179.649
179.651
179.347
178.726
177.767
176.44
174.702
172.5
169.777
166.481
162.579
159.904
163.702
166.972
169.726
171.994
173.812
175.218
176.244
176.914
177.246
177.249
176.922
176.256
175.236
173.834
172.02
169.756
167.005
163.737
159.94
157.954
161.672
164.91
167.671
169.971
171.835
173.288
174.355
175.055
175.404
175.407
175.065
174.37
173.31
171.862
170.004
167.708
164.951
161.717
158.001
156.67
160.333
163.545
166.304
168.62
170.508
171.988
173.08
173.798
174.157
174.16
173.809
173.098
172.013
170.54
168.658
166.348
163.594
160.386
156.726
156.031
159.667
162.865
165.622
167.944
169.842
171.335
172.437
173.165
173.528
173.532
173.176
172.457
171.362
169.877
167.985
165.67
162.919
159.726
156.094
104.074
112.238
120.448
128.735
137.138
145.705
154.498
163.598
173.094
182.935
103.911
111.743
119.602
127.506
135.473
143.518
151.648
159.844
168.011
175.838
103.746
111.241
118.744
126.26
133.785
141.308
148.799
156.189
163.335
169.961
103.585
110.753
117.913
125.054
132.161
139.203
146.131
152.864
159.268
165.146
103.436
110.3
117.143
123.943
130.673
137.296
143.756
149.973
155.839
161.218
103.303
109.9
116.463
122.966
129.375
135.649
141.732
147.554
153.028
158.059
103.192
109.564
115.895
122.154
128.303
134.3
140.093
145.619
150.809
155.592
103.106
109.305
115.456
121.528
127.481
133.273
138.854
144.169
149.161
153.773
103.047
109.128
115.156
121.101
126.924
132.58
138.023
143.203
148.069
152.572
103.013
109.038
115.005
120.886