/*--------------------------------*- C++ -*----------------------------------*\
| =========                 |                                                 |
| \\      /  F ield         | OpenFOAM: The Open Source CFD Toolbox           |
|  \\    /   O peration     | Version:  2.4.0                                 |
|   \\  /    A nd           | Web:      www.OpenFOAM.org                      |
|    \\/     M anipulation  |                                                 |
\*---------------------------------------------------------------------------*/
FoamFile
{
    version     2.0;
    format      ascii;
    class       volScalarField;
    location    "0.7";
    object      p;
}
// * * * * * * * * * * * * * * * * * * * * * * * * * * * * * * * * * * * * * //

dimensions      [0 2 -2 0 0 0 0];

internalField   nonuniform List<scalar> 
4800
(
1.37914e-08
-0.00124425
-0.00224078
-0.00271471
-0.00242446
-0.00126652
0.000780902
0.0036993
0.00743468
0.0118899
0.0012462
-1.15264e-05
-0.000679154
-0.000782135
-0.000237394
0.00103641
0.00306609
0.00584745
0.00934924
0.0135071
0.00224971
0.000630783
-3.52664e-05
-2.87957e-05
0.000604221
0.00191482
0.00392191
0.00662844
0.0100224
0.0140659
0.00264903
0.000615604
-0.00015902
-0.00015573
0.000480525
0.00177536
0.00374196
0.00639473
0.00974799
0.0137993
0.00209052
-0.000246474
-0.00112824
-0.00116957
-0.000579671
0.00065408
0.00255046
0.00514822
0.00850562
0.0126868
0.000377537
-0.0021182
-0.00308017
-0.0031922
-0.00269538
-0.00157727
0.000201079
0.00272116
0.00611391
0.0105841
-0.00255889
-0.00506368
-0.00606983
-0.00627338
-0.00592118
-0.00499198
-0.00341329
-0.0010414
0.00236277
0.00730746
-0.00669017
-0.00906241
-0.0100765
-0.0103929
-0.010246
-0.00960465
-0.0083566
-0.00628457
-0.0030209
0.00256732
-0.0118976
-0.0140159
-0.0150061
-0.015456
-0.0155782
-0.015341
-0.0145981
-0.013057
-0.0102539
-0.00383038
-0.017979
-0.0197552
-0.0206957
-0.0212917
-0.0217377
-0.0220358
-0.0220652
-0.0215483
-0.0203077
-0.0145858
-5.14044e-07
-0.00126244
-0.00226602
-0.00274685
-0.00246027
-0.00130356
0.000744111
0.00366428
0.00740323
0.011864
0.00126217
-1.3974e-05
-0.000662861
-0.000758947
-0.000211194
0.00106456
0.00309406
0.00587341
0.0093721
0.0135269
0.00227441
0.000610405
-3.5722e-05
-2.77007e-05
0.000603144
0.00191366
0.00392062
0.00662671
0.0100203
0.0140647
0.00268296
0.000588422
-0.000159175
-0.000154015
0.000478748
0.00177301
0.00373917
0.00639111
0.00974292
0.0137951
0.00212995
-0.000277089
-0.00112517
-0.00116298
-0.00057653
0.000656705
0.00255242
0.00514854
0.00850134
0.0126806
0.000419091
-0.00215125
-0.00307639
-0.00318407
-0.00269054
-0.00157275
0.000205216
0.00272397
0.00610741
0.0105689
-0.00251785
-0.00509693
-0.00606586
-0.00626455
-0.00591505
-0.00498573
-0.00340641
-0.00103289
0.00235443
0.00727065
-0.00665228
-0.00909387
-0.0100727
-0.0103841
-0.0102391
-0.00959757
-0.00834878
-0.00627034
-0.00304351
0.00243654
-0.0118655
-0.0140442
-0.0150034
-0.0154482
-0.0155705
-0.0153317
-0.0145845
-0.0130136
-0.0102443
-0.0041235
-0.0179548
-0.0197799
-0.0206953
-0.021287
-0.0217318
-0.022025
-0.0220404
-0.0214281
-0.02004
-0.0146482
-5.13643e-07
-0.00126245
-0.00226602
-0.00274685
-0.00246027
-0.00130356
0.000744111
0.00366428
0.00740323
0.011864
0.00126216
-1.39802e-05
-0.000662865
-0.000758952
-0.000211199
0.00106456
0.00309406
0.0058734
0.0093721
0.0135269
0.0022744
0.000610393
-3.57313e-05
-2.77086e-05
0.000603136
0.00191366
0.00392062
0.0066267
0.0100202
0.0140647
0.00268294
0.000588408
-0.000159187
-0.000154026
0.000478738
0.001773
0.00373916
0.0063911
0.00974291
0.0137951
0.00212993
-0.000277105
-0.00112518
-0.00116299
-0.000576541
0.000656694
0.00255241
0.00514853
0.00850133
0.0126806
0.000419071
-0.00215126
-0.0030764
-0.00318409
-0.00269055
-0.00157276
0.000205207
0.00272397
0.0061074
0.0105689
-0.00251787
-0.00509694
-0.00606587
-0.00626456
-0.00591507
-0.00498574
-0.00340642
-0.0010329
0.00235442
0.00727065
-0.00665229
-0.00909389
-0.0100728
-0.0103841
-0.0102391
-0.00959758
-0.00834879
-0.00627035
-0.00304352
0.00243653
-0.0118655
-0.0140442
-0.0150034
-0.0154482
-0.0155705
-0.0153317
-0.0145845
-0.0130136
-0.0102443
-0.0041235
-0.0179548
-0.0197799
-0.0206953
-0.021287
-0.0217318
-0.022025
-0.0220405
-0.0214281
-0.02004
-0.0146482
2.55123e-08
-0.00124427
-0.0022408
-0.00271472
-0.00242447
-0.00126653
0.000780892
0.00369929
0.00743467
0.0118899
0.00124619
-1.15434e-05
-0.000679172
-0.000782151
-0.00023741
0.00103639
0.00306608
0.00584743
0.00934923
0.0135071
0.00224969
0.000630757
-3.5291e-05
-2.88181e-05
0.0006042
0.0019148
0.0039219
0.00662842
0.0100224
0.0140659
0.00264899
0.00061557
-0.00015905
-0.000155757
0.000480499
0.00177533
0.00374194
0.00639471
0.00974798
0.0137993
0.00209048
-0.000246509
-0.00112827
-0.0011696
-0.000579699
0.000654055
0.00255044
0.00514821
0.00850561
0.0126868
0.000377496
-0.00211824
-0.00308021
-0.00319223
-0.00269541
-0.00157729
0.000201055
0.00272114
0.00611389
0.0105841
-0.00255894
-0.00506372
-0.00606987
-0.00627341
-0.00592121
-0.00499201
-0.00341331
-0.00104142
0.00236275
0.00730744
-0.00669021
-0.00906245
-0.0100765
-0.0103929
-0.010246
-0.00960467
-0.00835662
-0.00628459
-0.00302092
0.0025673
-0.0118977
-0.0140159
-0.0150062
-0.015456
-0.0155782
-0.015341
-0.0145981
-0.013057
-0.0102539
-0.00383039
-0.017979
-0.0197553
-0.0206958
-0.0212917
-0.0217378
-0.0220358
-0.0220652
-0.0215483
-0.0203077
-0.0145858
0.0169215
0.0223603
0.0280553
0.033894
0.0398031
0.0457407
0.0516874
0.057638
0.0635963
0.0695731
0.0755847
0.081654
0.0878099
0.0940866
0.10052
0.107141
0.113962
0.120955
0.128036
0.135041
0.0182167
0.0233437
0.0287663
0.0343875
0.0401354
0.0459616
0.0518368
0.0577454
0.0636824
0.0696507
0.0756596
0.0817244
0.0878645
0.0941024
0.10046
0.106951
0.113571
0.12029
0.127028
0.133649
0.0186722
0.0237013
0.0290358
0.0345836
0.0402742
0.0460581
0.0519031
0.0577903
0.063711
0.0696642
0.0756548
0.0816933
0.0877937
0.0939729
0.100247
0.106628
0.113116
0.119686
0.12628
0.132784
0.0184714
0.0235679
0.0289552
0.0345407
0.0402552
0.046052
0.0519016
0.0577867
0.0636986
0.069635
0.0755984
0.0815954
0.0876361
0.0937339
0.0999044
0.106163
0.112523
0.118984
0.12552
0.132058
0.0176305
0.0229779
0.0285612
0.0342908
0.0401032
0.0459615
0.0518461
0.0577465
0.0636577
0.0695783
0.0755094
0.0814543
0.0874189
0.093413
0.0994517
0.105557
0.111762
0.118103
0.124607
0.131283
0.0161378
0.0219855
0.0279246
0.0339
0.039871
0.0458257
0.0517645
0.0576901
0.0636049
0.0695101
0.0754058
0.0812918
0.0871685
0.0930401
0.0989184
0.104831
0.110832
0.117001
0.123453
0.130363
0.0140786
0.0207689
0.0272196
0.0335088
0.03966
0.0457127
0.0517015
0.0576478
0.063563
0.069451
0.0753104
0.0811358
0.0869201
0.0926579
0.0983519
0.104027
0.109752
0.115656
0.121969
0.129209
0.0117127
0.0196645
0.0267146
0.0333063
0.0395912
0.0456956
0.0517008
0.057647
0.0635519
0.0694196
0.0752448
0.081015
0.0867129
0.0923188
0.0978175
0.103219
0.108597
0.114114
0.120105
0.127685
0.010574
0.0198809
0.0270589
0.0336132
0.0398161
0.0458437
0.0517949
0.0577063
0.0635876
0.0694354
0.0752367
0.0809694
0.0866026
0.0920957
0.0974014
0.102488
0.107393
0.11219
0.117114
0.124313
0.0145475
0.0240977
0.0294783
0.0349196
0.0405174
0.0462217
0.0520075
0.0578393
0.0636868
0.0695248
0.0753267
0.0810584
0.0866712
0.0920931
0.0972161
0.101881
0.105895
0.109015
0.110791
0.115266
0.0169025
0.0223474
0.028047
0.0338891
0.0398002
0.0457391
0.0516865
0.0576373
0.0635957
0.0695723
0.0755837
0.0816526
0.087808
0.0940844
0.100518
0.10714
0.113962
0.120958
0.128043
0.135056
0.0182343
0.0233583
0.0287778
0.034396
0.0401415
0.045966
0.0518399
0.0577478
0.0636844
0.0696525
0.0756615
0.0817262
0.0878661
0.0941034
0.100459
0.106948
0.113565
0.120279
0.127012
0.133628
0.0186747
0.0237053
0.0290399
0.0345874
0.0402773
0.0460605
0.0519049
0.0577917
0.063712
0.0696649
0.0756554
0.0816936
0.0877938
0.0939725
0.100246
0.106627
0.113113
0.119682
0.126275
0.13278
0.0184747
0.0235732
0.0289602
0.0345451
0.0402586
0.0460544
0.0519033
0.0577879
0.0636994
0.0696355
0.0755987
0.0815955
0.0876361
0.0937337
0.0999037
0.106162
0.112521
0.118981
0.125515
0.132054
0.0176396
0.0229878
0.0285688
0.0342966
0.0401072
0.0459641
0.0518478
0.0577475
0.0636584
0.0695788
0.0755097
0.0814545
0.0874191
0.0934131
0.0994515
0.105557
0.111761
0.118099
0.124598
0.131272
0.0161586
0.022002
0.0279341
0.0339063
0.0398747
0.0458276
0.0517654
0.0576905
0.063605
0.0695102
0.0754059
0.0812919
0.0871687
0.0930404
0.0989187
0.104831
0.110831
0.116998
0.123438
0.130336
0.0141353
0.0208037
0.0272345
0.0335165
0.0396633
0.0457137
0.0517016
0.0576476
0.0635627
0.0694508
0.0753103
0.0811359
0.0869204
0.0926585
0.0983526
0.104026
0.10975
0.11565
0.121936
0.129134
0.0118105
0.0197009
0.0267208
0.0333091
0.0395911
0.0456944
0.0516997
0.0576461
0.0635512
0.069419
0.0752443
0.0810147
0.0867128
0.0923192
0.0978186
0.103219
0.108596
0.114117
0.120074
0.127563
0.0106993
0.0198287
0.0270028
0.0335912
0.0398053
0.0458375
0.0517915
0.0577041
0.0635857
0.0694334
0.0752343
0.0809666
0.0865995
0.0920933
0.0974014
0.102492
0.107409
0.112256
0.117195
0.124169
0.0152348
0.0241972
0.0294812
0.0349363
0.0405278
0.0462261
0.0520097
0.0578407
0.0636878
0.0695258
0.0753279
0.0810598
0.0866727
0.0920945
0.0972159
0.101876
0.105885
0.109034
0.110734
0.114458
0.0169025
0.0223474
0.028047
0.0338891
0.0398002
0.0457391
0.0516865
0.0576373
0.0635957
0.0695723
0.0755837
0.0816526
0.087808
0.0940844
0.100518
0.10714
0.113962
0.120958
0.128043
0.135056
0.0182343
0.0233583
0.0287778
0.034396
0.0401415
0.045966
0.0518399
0.0577478
0.0636844
0.0696525
0.0756615
0.0817262
0.0878661
0.0941034
0.100459
0.106948
0.113565
0.120279
0.127012
0.133628
0.0186747
0.0237053
0.0290399
0.0345874
0.0402773
0.0460605
0.0519049
0.0577917
0.063712
0.0696649
0.0756554
0.0816936
0.0877938
0.0939725
0.100246
0.106627
0.113113
0.119682
0.126275
0.13278
0.0184747
0.0235732
0.0289602
0.034545
0.0402586
0.0460544
0.0519033
0.0577879
0.0636994
0.0696355
0.0755987
0.0815955
0.0876361
0.0937337
0.0999037
0.106162
0.112521
0.118981
0.125515
0.132054
0.0176396
0.0229878
0.0285688
0.0342966
0.0401072
0.0459641
0.0518478
0.0577475
0.0636584
0.0695788
0.0755097
0.0814545
0.0874191
0.0934131
0.0994515
0.105557
0.111761
0.118099
0.124598
0.131272
0.0161586
0.022002
0.0279341
0.0339063
0.0398747
0.0458276
0.0517654
0.0576905
0.063605
0.0695102
0.0754059
0.0812919
0.0871687
0.0930404
0.0989187
0.104831
0.110831
0.116998
0.123438
0.130336
0.0141353
0.0208037
0.0272344
0.0335165
0.0396633
0.0457137
0.0517016
0.0576476
0.0635627
0.0694508
0.0753103
0.0811359
0.0869204
0.0926585
0.0983526
0.104026
0.10975
0.11565
0.121936
0.129134
0.0118105
0.0197009
0.0267208
0.0333091
0.0395911
0.0456944
0.0516997
0.0576461
0.0635512
0.069419
0.0752443
0.0810147
0.0867128
0.0923192
0.0978186
0.103219
0.108596
0.114117
0.120074
0.127563
0.0106993
0.0198287
0.0270028
0.0335912
0.0398053
0.0458375
0.0517915
0.0577041
0.0635857
0.0694334
0.0752343
0.0809666
0.0865995
0.0920933
0.0974014
0.102492
0.107409
0.112256
0.117195
0.124169
0.0152348
0.0241972
0.0294812
0.0349363
0.0405278
0.0462261
0.0520097
0.0578407
0.0636878
0.0695258
0.0753279
0.0810598
0.0866727
0.0920945
0.0972159
0.101876
0.105885
0.109034
0.110734
0.114458
0.0169215
0.0223603
0.0280553
0.033894
0.0398031
0.0457407
0.0516874
0.057638
0.0635963
0.0695731
0.0755847
0.081654
0.0878099
0.0940866
0.10052
0.107141
0.113962
0.120955
0.128036
0.135041
0.0182167
0.0233437
0.0287663
0.0343875
0.0401354
0.0459616
0.0518368
0.0577454
0.0636824
0.0696507
0.0756596
0.0817244
0.0878645
0.0941024
0.10046
0.106951
0.113571
0.12029
0.127028
0.133649
0.0186721
0.0237013
0.0290358
0.0345836
0.0402742
0.0460581
0.0519031
0.0577903
0.063711
0.0696642
0.0756548
0.0816933
0.0877937
0.0939729
0.100247
0.106628
0.113116
0.119686
0.12628
0.132784
0.0184714
0.0235679
0.0289552
0.0345407
0.0402552
0.046052
0.0519016
0.0577867
0.0636986
0.069635
0.0755984
0.0815954
0.0876361
0.0937339
0.0999044
0.106163
0.112523
0.118984
0.12552
0.132058
0.0176305
0.0229779
0.0285612
0.0342908
0.0401032
0.0459615
0.0518461
0.0577465
0.0636577
0.0695784
0.0755094
0.0814543
0.0874189
0.093413
0.0994517
0.105557
0.111762
0.118103
0.124607
0.131283
0.0161378
0.0219855
0.0279246
0.0339
0.039871
0.0458257
0.0517645
0.0576901
0.0636049
0.0695101
0.0754058
0.0812918
0.0871685
0.0930401
0.0989184
0.104831
0.110832
0.117001
0.123453
0.130363
0.0140786
0.0207688
0.0272196
0.0335088
0.03966
0.0457127
0.0517015
0.0576478
0.063563
0.069451
0.0753104
0.0811358
0.0869201
0.0926579
0.0983519
0.104027
0.109752
0.115656
0.121969
0.129209
0.0117127
0.0196645
0.0267146
0.0333063
0.0395912
0.0456956
0.0517008
0.057647
0.0635519
0.0694196
0.0752448
0.081015
0.0867129
0.0923188
0.0978175
0.103219
0.108597
0.114114
0.120105
0.127685
0.010574
0.0198809
0.0270588
0.0336132
0.0398161
0.0458437
0.0517949
0.0577063
0.0635876
0.0694355
0.0752367
0.0809694
0.0866026
0.0920958
0.0974014
0.102488
0.107393
0.11219
0.117114
0.124313
0.0145475
0.0240977
0.0294783
0.0349196
0.0405174
0.0462217
0.0520075
0.0578393
0.0636868
0.0695248
0.0753267
0.0810584
0.0866712
0.0920931
0.0972161
0.101882
0.105895
0.109015
0.110791
0.115266
0.141729
0.147811
0.153019
0.157151
0.160088
0.161802
0.162361
0.161962
0.160959
0.159713
0.139952
0.145692
0.150646
0.154646
0.157592
0.159465
0.160328
0.160343
0.159701
0.158468
0.139011
0.144701
0.149632
0.15364
0.15663
0.158583
0.159553
0.159677
0.159034
0.157472
0.138415
0.144251
0.149315
0.153436
0.156518
0.158542
0.159557
0.159684
0.158931
0.156999
0.137968
0.144128
0.149461
0.153788
0.157015
0.159132
0.160194
0.160318
0.159477
0.15729
0.137669
0.144364
0.150102
0.154716
0.158133
0.160366
0.161489
0.16163
0.160752
0.15845
0.137638
0.145106
0.151349
0.156295
0.159911
0.162263
0.163457
0.163639
0.162784
0.1605
0.138152
0.146645
0.153419
0.158666
0.162431
0.164862
0.166111
0.166347
0.165568
0.163421
0.13939
0.149445
0.156681
0.162069
0.165824
0.16822
0.169466
0.169744
0.169074
0.167162
0.145106
0.155864
0.162266
0.167012
0.170294
0.172402
0.17352
0.173791
0.173237
0.171623
0.141753
0.147843
0.153057
0.157192
0.16013
0.161841
0.162395
0.161987
0.160975
0.159712
0.139928
0.145664
0.150615
0.154613
0.157559
0.159434
0.1603
0.160323
0.159699
0.15845
0.139012
0.144704
0.149636
0.153644
0.156634
0.158586
0.159553
0.159677
0.15905
0.157447
0.138419
0.144259
0.149324
0.153445
0.156526
0.158549
0.159558
0.159686
0.158955
0.156967
0.137974
0.144136
0.149468
0.153794
0.15702
0.159135
0.160192
0.160317
0.159503
0.157254
0.137679
0.144374
0.150109
0.154723
0.158138
0.160369
0.161487
0.161629
0.160781
0.158413
0.137662
0.145119
0.151357
0.156301
0.159916
0.162265
0.163454
0.163637
0.162812
0.160463
0.138273
0.146688
0.153434
0.158674
0.162434
0.164862
0.166108
0.166346
0.165594
0.163386
0.139658
0.149455
0.156658
0.16206
0.165818
0.168216
0.169461
0.169742
0.169097
0.16713
0.145044
0.155571
0.162135
0.166975
0.170279
0.172396
0.173516
0.17379
0.173256
0.171598
0.141753
0.147843
0.153057
0.157192
0.16013
0.161841
0.162395
0.161987
0.160975
0.159712
0.139928
0.145664
0.150615
0.154613
0.157559
0.159434
0.1603
0.160323
0.159699
0.15845
0.139012
0.144704
0.149636
0.153644
0.156634
0.158586
0.159553
0.159677
0.15905
0.157447
0.138419
0.144259
0.149324
0.153445
0.156526
0.158549
0.159558
0.159686
0.158955
0.156967
0.137974
0.144136
0.149468
0.153794
0.15702
0.159135
0.160192
0.160317
0.159503
0.157254
0.137679
0.144374
0.150109
0.154723
0.158138
0.160369
0.161487
0.161629
0.160781
0.158413
0.137662
0.145119
0.151357
0.156301
0.159916
0.162265
0.163454
0.163637
0.162812
0.160463
0.138273
0.146688
0.153434
0.158674
0.162434
0.164862
0.166108
0.166346
0.165594
0.163386
0.139658
0.149455
0.156658
0.16206
0.165818
0.168216
0.169461
0.169742
0.169097
0.16713
0.145044
0.155571
0.162135
0.166975
0.170279
0.172396
0.173516
0.17379
0.173256
0.171598
0.141729
0.147811
0.153019
0.157151
0.160088
0.161802
0.162361
0.161962
0.160959
0.159713
0.139952
0.145692
0.150646
0.154646
0.157592
0.159465
0.160328
0.160343
0.159701
0.158468
0.139011
0.144701
0.149632
0.15364
0.15663
0.158583
0.159553
0.159677
0.159034
0.157472
0.138415
0.144251
0.149315
0.153436
0.156518
0.158542
0.159557
0.159684
0.158931
0.156999
0.137968
0.144128
0.149461
0.153788
0.157015
0.159132
0.160194
0.160318
0.159477
0.15729
0.137669
0.144364
0.150102
0.154716
0.158133
0.160366
0.161489
0.16163
0.160752
0.15845
0.137638
0.145106
0.151349
0.156295
0.159911
0.162263
0.163457
0.163639
0.162784
0.1605
0.138152
0.146645
0.153419
0.158666
0.162431
0.164862
0.166111
0.166347
0.165568
0.163421
0.13939
0.149445
0.156681
0.162069
0.165824
0.16822
0.169466
0.169744
0.169074
0.167162
0.145106
0.155864
0.162266
0.167012
0.170294
0.172402
0.17352
0.173791
0.173237
0.171623
0.174227
0.170261
0.171407
0.173781
0.175847
0.177347
0.178194
0.178401
0.177952
0.176664
0.183765
0.17956
0.179354
0.180469
0.181695
0.182695
0.183293
0.183434
0.183085
0.182113
0.189132
0.186732
0.186402
0.186919
0.187634
0.188279
0.188681
0.188771
0.188513
0.187821
0.194561
0.193284
0.192994
0.193209
0.19361
0.194008
0.194265
0.194318
0.194137
0.193672
0.200148
0.199491
0.199288
0.199367
0.199584
0.199818
0.199973
0.2
0.199881
0.199591
0.205851
0.205536
0.205414
0.205436
0.205544
0.205671
0.205754
0.205763
0.205689
0.20553
0.211656
0.21153
0.211464
0.211457
0.211494
0.211544
0.211573
0.211564
0.211522
0.211459
0.217538
0.217532
0.217494
0.21746
0.21744
0.217424
0.217402
0.217371
0.217345
0.217356
0.223507
0.223573
0.223542
0.223472
0.223388
0.223301
0.22322
0.223154
0.22313
0.223195
0.22958
0.229692
0.229644
0.229513
0.229345
0.229167
0.229005
0.228884
0.228843
0.228944
0.235803
0.235934
0.235833
0.235605
0.235316
0.235012
0.234736
0.23453
0.234444
0.234561
0.242248
0.242351
0.242149
0.241771
0.241307
0.240825
0.24039
0.240056
0.23989
0.239984
0.249021
0.24901
0.248628
0.248026
0.247319
0.246596
0.245943
0.245429
0.245128
0.245137
0.256268
0.255978
0.255299
0.25438
0.253347
0.252312
0.251377
0.250619
0.250112
0.249931
0.264186
0.263304
0.262161
0.260813
0.259371
0.257961
0.256682
0.255615
0.254809
0.254276
0.27303
0.270976
0.269135
0.267248
0.265341
0.263526
0.261876
0.260444
0.259224
0.258103
0.282944
0.278812
0.275961
0.27348
0.271136
0.26898
0.267
0.265187
0.263429
0.261407
0.293643
0.286107
0.282022
0.279077
0.276511
0.274251
0.27213
0.270011
0.267605
0.26428
0.304843
0.291949
0.286309
0.283263
0.280985
0.279156
0.277338
0.27517
0.272082
0.266985
0.319496
0.294079
0.2861
0.284133
0.283459
0.283214
0.282616
0.280999
0.277381
0.270029
0.174914
0.170386
0.171505
0.173837
0.175868
0.177356
0.178198
0.178404
0.177969
0.176645
0.183864
0.179508
0.179391
0.180504
0.181711
0.182705
0.183298
0.183438
0.183099
0.1821
0.189135
0.186677
0.186408
0.186933
0.187643
0.188287
0.188686
0.188775
0.188524
0.187812
0.194577
0.193262
0.192997
0.193217
0.193616
0.194014
0.19427
0.194321
0.194145
0.193667
0.200158
0.199481
0.199288
0.199371
0.199587
0.199822
0.199976
0.200003
0.199886
0.199589
0.205855
0.205532
0.205413
0.205437
0.205546
0.205673
0.205757
0.205765
0.205692
0.205529
0.211657
0.211529
0.211464
0.211457
0.211495
0.211546
0.211574
0.211565
0.211523
0.211459
0.217538
0.217533
0.217494
0.21746
0.217441
0.217425
0.217403
0.217372
0.217345
0.217356
0.223506
0.223575
0.223542
0.223471
0.223388
0.223302
0.22322
0.223154
0.223128
0.223196
0.229578
0.229696
0.229644
0.229512
0.229345
0.229167
0.229005
0.228884
0.22884
0.228947
0.2358
0.235938
0.235833
0.235605
0.235316
0.235011
0.234737
0.23453
0.234441
0.234564
0.242244
0.242355
0.242148
0.24177
0.241307
0.240825
0.24039
0.240057
0.239887
0.239988
0.249017
0.249013
0.248626
0.248025
0.247318
0.246596
0.245944
0.24543
0.245126
0.245141
0.256265
0.255977
0.255296
0.254377
0.253345
0.252312
0.251378
0.250621
0.250113
0.249935
0.264187
0.263293
0.262155
0.260809
0.259369
0.257961
0.256684
0.255619
0.254815
0.254278
0.27304
0.270948
0.269128
0.267245
0.265338
0.263527
0.261878
0.26045
0.25924
0.258102
0.282999
0.27876
0.275957
0.27348
0.271133
0.268981
0.267004
0.265196
0.26346
0.261398
0.293763
0.285971
0.282002
0.279076
0.276505
0.274252
0.272135
0.270025
0.267659
0.264259
0.304999
0.291634
0.286297
0.283297
0.280996
0.279167
0.277347
0.275191
0.272168
0.266944
0.32079
0.294135
0.286376
0.284312
0.283523
0.283244
0.282631
0.281027
0.277509
0.269961
0.174914
0.170386
0.171505
0.173837
0.175868
0.177356
0.178198
0.178404
0.177969
0.176645
0.183864
0.179508
0.179391
0.180504
0.181711
0.182705
0.183298
0.183438
0.183099
0.1821
0.189135
0.186677
0.186408
0.186933
0.187643
0.188287
0.188686
0.188775
0.188524
0.187812
0.194577
0.193262
0.192997
0.193217
0.193616
0.194014
0.19427
0.194321
0.194145
0.193667
0.200158
0.199481
0.199288
0.199371
0.199587
0.199822
0.199976
0.200003
0.199886
0.199589
0.205855
0.205532
0.205413
0.205437
0.205546
0.205673
0.205757
0.205765
0.205692
0.205529
0.211657
0.211529
0.211464
0.211457
0.211495
0.211546
0.211574
0.211565
0.211523
0.211459
0.217538
0.217533
0.217494
0.21746
0.217441
0.217425
0.217403
0.217372
0.217345
0.217356
0.223506
0.223575
0.223542
0.223471
0.223388
0.223302
0.22322
0.223154
0.223128
0.223196
0.229578
0.229696
0.229644
0.229512
0.229345
0.229167
0.229005
0.228884
0.22884
0.228947
0.2358
0.235938
0.235833
0.235605
0.235316
0.235011
0.234737
0.23453
0.234441
0.234564
0.242244
0.242355
0.242148
0.24177
0.241307
0.240825
0.24039
0.240057
0.239887
0.239988
0.249017
0.249013
0.248626
0.248025
0.247318
0.246596
0.245944
0.24543
0.245126
0.245141
0.256265
0.255977
0.255296
0.254377
0.253345
0.252312
0.251378
0.250621
0.250113
0.249935
0.264187
0.263293
0.262155
0.260809
0.259369
0.257961
0.256684
0.255619
0.254815
0.254278
0.27304
0.270948
0.269128
0.267245
0.265338
0.263527
0.261878
0.26045
0.25924
0.258102
0.282999
0.27876
0.275957
0.27348
0.271133
0.268981
0.267004
0.265196
0.26346
0.261398
0.293763
0.285971
0.282002
0.279076
0.276505
0.274252
0.272135
0.270025
0.267659
0.264259
0.304999
0.291634
0.286297
0.283297
0.280996
0.279167
0.277347
0.275191
0.272168
0.266944
0.32079
0.294135
0.286376
0.284312
0.283523
0.283244
0.282631
0.281027
0.277509
0.269961
0.174227
0.170261
0.171407
0.173781
0.175847
0.177347
0.178194
0.178401
0.177952
0.176664
0.183765
0.17956
0.179354
0.180469
0.181695
0.182695
0.183293
0.183434
0.183085
0.182113
0.189132
0.186732
0.186402
0.186919
0.187634
0.188279
0.188681
0.188771
0.188513
0.187821
0.194561
0.193284
0.192994
0.193209
0.19361
0.194008
0.194265
0.194318
0.194137
0.193672
0.200148
0.199491
0.199288
0.199367
0.199584
0.199818
0.199973
0.2
0.199881
0.199591
0.205851
0.205536
0.205414
0.205436
0.205544
0.205671
0.205754
0.205763
0.205689
0.20553
0.211656
0.21153
0.211464
0.211457
0.211494
0.211544
0.211573
0.211564
0.211522
0.211459
0.217538
0.217532
0.217494
0.21746
0.21744
0.217424
0.217402
0.217371
0.217345
0.217356
0.223507
0.223573
0.223542
0.223472
0.223388
0.223301
0.22322
0.223154
0.22313
0.223195
0.22958
0.229692
0.229644
0.229513
0.229345
0.229167
0.229005
0.228884
0.228843
0.228944
0.235803
0.235934
0.235833
0.235605
0.235316
0.235012
0.234736
0.23453
0.234444
0.234561
0.242248
0.242351
0.242149
0.241771
0.241307
0.240825
0.24039
0.240056
0.23989
0.239984
0.249021
0.24901
0.248628
0.248026
0.247319
0.246596
0.245943
0.245429
0.245128
0.245137
0.256268
0.255978
0.255299
0.254379
0.253347
0.252312
0.251377
0.250619
0.250112
0.249931
0.264186
0.263304
0.262161
0.260813
0.259371
0.257961
0.256682
0.255615
0.254809
0.254276
0.27303
0.270976
0.269135
0.267248
0.265341
0.263526
0.261876
0.260444
0.259224
0.258103
0.282944
0.278812
0.275961
0.27348
0.271136
0.26898
0.267
0.265187
0.263429
0.261407
0.293643
0.286107
0.282022
0.279077
0.276511
0.274251
0.27213
0.270011
0.267605
0.26428
0.304843
0.291949
0.286309
0.283263
0.280985
0.279156
0.277338
0.27517
0.272082
0.266985
0.319496
0.294079
0.2861
0.284133
0.283459
0.283214
0.282616
0.280999
0.277381
0.270029
0.258791
0.267601
0.273789
0.278516
0.282422
0.285776
0.287917
0.287943
0.284286
0.274293
0.231155
0.247827
0.25982
0.269698
0.278697
0.286949
0.293447
0.29667
0.293963
0.281214
0.215169
0.231472
0.245415
0.258915
0.272847
0.28693
0.299537
0.308084
0.308085
0.2931
0.202432
0.217057
0.231532
0.247549
0.266001
0.28652
0.30701
0.323603
0.329149
0.313777
0.192577
0.205594
0.22002
0.237806
0.260283
0.287524
0.317561
0.345499
0.360963
0.349712
0.186039
0.19817
0.212764
0.232188
0.258462
0.292618
0.333812
0.377061
0.409125
0.411257
0.182977
0.195298
0.210872
0.232462
0.262866
0.304419
0.35877
0.422105
0.480545
0.513239
0.182857
0.196283
0.213634
0.238074
0.2733
0.323447
0.392902
0.482139
0.581132
0.683511
0.184251
0.198741
0.21747
0.243937
0.28276
0.340249
0.425282
0.546562
0.714156
0.993503
0.185651
0.199742
0.217491
0.242228
0.27878
0.334838
0.424881
0.576889
0.861919
1.47832
0.259079
0.267113
0.273655
0.278497
0.282413
0.28578
0.28792
0.287975
0.28447
0.274189
0.231578
0.247764
0.259768
0.269669
0.278677
0.286943
0.293439
0.296706
0.294218
0.281068
0.21543
0.231503
0.245401
0.25889
0.272819
0.28691
0.299511
0.308121
0.308426
0.292909
0.202527
0.217056
0.2315
0.247501
0.265945
0.286465
0.306944
0.323627
0.329573
0.313539
0.19261
0.205575
0.219968
0.237728
0.260185
0.287413
0.317429
0.345485
0.361426
0.34945
0.186048
0.19814
0.212695
0.232078
0.258312
0.292424
0.333561
0.376947
0.409523
0.41119
0.182988
0.195277
0.210807
0.23234
0.262669
0.304109
0.358289
0.42175
0.480572
0.513705
0.182898
0.196315
0.213652
0.238067
0.273233
0.32322
0.392469
0.481707
0.579901
0.683179
0.184318
0.198846
0.217643
0.244212
0.283169
0.340778
0.42598
0.547117
0.710931
0.991172
0.185709
0.199794
0.217527
0.242251
0.278812
0.334928
0.425255
0.577352
0.858264
1.48757
0.259079
0.267113
0.273655
0.278497
0.282413
0.28578
0.28792
0.287975
0.28447
0.274189
0.231578
0.247764
0.259768
0.269669
0.278677
0.286943
0.293439
0.296706
0.294218
0.281068
0.215431
0.231503
0.245401
0.25889
0.272819
0.28691
0.299511
0.308121
0.308426
0.292909
0.202527
0.217056
0.2315
0.247501
0.265945
0.286465
0.306944
0.323627
0.329573
0.313539
0.19261
0.205575
0.219968
0.237728
0.260185
0.287413
0.317429
0.345485
0.361426
0.34945
0.186048
0.19814
0.212695
0.232078
0.258312
0.292424
0.333561
0.376947
0.409523
0.41119
0.182988
0.195277
0.210807
0.23234
0.262669
0.304109
0.358289
0.42175
0.480572
0.513705
0.182898
0.196315
0.213652
0.238067
0.273233
0.32322
0.392469
0.481707
0.579901
0.683179
0.184318
0.198846
0.217643
0.244212
0.283169
0.340778
0.42598
0.547117
0.710931
0.991172
0.185709
0.199794
0.217527
0.242251
0.278812
0.334929
0.425255
0.577352
0.858264
1.48757
0.258791
0.267601
0.273789
0.278516
0.282422
0.285776
0.287917
0.287943
0.284286
0.274293
0.231155
0.247827
0.25982
0.269698
0.278697
0.286949
0.293447
0.29667
0.293963
0.281214
0.215169
0.231472
0.245415
0.258915
0.272847
0.28693
0.299537
0.308084
0.308085
0.2931
0.202432
0.217057
0.231532
0.247549
0.266001
0.28652
0.30701
0.323603
0.329149
0.313777
0.192577
0.205594
0.22002
0.237806
0.260283
0.287524
0.317561
0.345499
0.360963
0.349712
0.186039
0.19817
0.212764
0.232188
0.258462
0.292618
0.333812
0.377061
0.409125
0.411257
0.182977
0.195298
0.210872
0.232462
0.262866
0.304419
0.35877
0.422105
0.480545
0.513239
0.182857
0.196283
0.213634
0.238074
0.2733
0.323447
0.392902
0.482139
0.581132
0.683511
0.184251
0.198741
0.21747
0.243937
0.28276
0.340249
0.425282
0.546562
0.714156
0.993503
0.185651
0.199742
0.217491
0.242228
0.27878
0.334838
0.424881
0.576889
0.861919
1.47832
-0.143816
-0.123397
-0.106024
-0.0898193
-0.0734784
-0.0568693
-0.0400264
-0.0230074
-0.00588149
0.0112796
0.0284038
0.0454208
0.0622678
0.078899
0.0953301
0.11172
0.128493
0.146579
0.169088
0.205921
-0.131872
-0.118204
-0.103718
-0.0884819
-0.0725936
-0.0562567
-0.0395966
-0.0227069
-0.00566872
0.0114467
0.0285771
0.0456696
0.0626878
0.0796324
0.0965706
0.113698
0.131396
0.150268
0.171822
0.199709
-0.129666
-0.117237
-0.103284
-0.0882726
-0.0725106
-0.0562322
-0.0395899
-0.0226938
-0.0056293
0.0115352
0.0287437
0.0459519
0.0631309
0.080278
0.097437
0.114732
0.132392
0.150742
0.170415
0.192481
-0.131315
-0.118487
-0.104257
-0.089039
-0.0731129
-0.0566911
-0.0399213
-0.0229085
-0.00572998
0.0115555
0.0289011
0.0462678
0.0636227
0.0809406
0.0982091
0.115439
0.132665
0.149935
0.167379
0.185173
-0.134698
-0.120995
-0.106125
-0.0904226
-0.0741311
-0.0574282
-0.0404372
-0.0232429
-0.00590484
0.0115334
0.029036
0.0465676
0.0640861
0.0815358
0.0988397
0.115895
0.132565
0.148684
0.16411
0.178791
-0.138137
-0.123538
-0.107985
-0.0917682
-0.0750931
-0.0581041
-0.0408961
-0.0235307
-0.00604877
0.0115202
0.0291485
0.0468012
0.0644241
0.0819311
0.0991903
0.116013
0.132153
0.147332
0.161324
0.174111
-0.13986
-0.124739
-0.108815
-0.0923337
-0.0754715
-0.0583484
-0.0410416
-0.0235992
-0.00605237
0.0115751
0.0292567
0.0469527
0.0645964
0.0820789
0.0992344
0.115832
0.131585
0.146197
0.159477
0.171525
-0.138787
-0.123801
-0.108049
-0.0917306
-0.0750063
-0.0579918
-0.0407662
-0.0233821
-0.00587606
0.0117216
0.0293768
0.0470402
0.0646339
0.0820363
0.0990702
0.115501
0.131055
0.145482
0.158675
0.170866
-0.134828
-0.120807
-0.105843
-0.090134
-0.0738641
-0.0571796
-0.0401893
-0.0229721
-0.00558537
0.0119239
0.0295087
0.0471086
0.0646381
0.0819726
0.0989387
0.115316
0.130862
0.145377
0.158818
0.171488
-0.127812
-0.115869
-0.102425
-0.0877984
-0.072281
-0.0561114
-0.0394704
-0.0224896
-0.00526331
0.0121374
0.0296515
0.0472133
0.0647374
0.0821043
0.0991506
0.115668
0.131421
0.146204
0.159941
0.172852
-0.144021
-0.123237
-0.106001
-0.0898357
-0.0734875
-0.056875
-0.0400307
-0.0230102
-0.00588311
0.0112789
0.0284039
0.045421
0.0622672
0.0788959
0.0953207
0.1117
0.128472
0.146536
0.168762
0.205251
-0.131822
-0.118071
-0.103662
-0.0884521
-0.0725709
-0.0562405
-0.0395853
-0.0226991
-0.00566347
0.0114501
0.0285796
0.0456724
0.062693
0.0796425
0.0965883
0.113728
0.131453
0.15034
0.171723
0.199435
-0.129715
-0.117215
-0.103262
-0.0882553
-0.0724969
-0.0562225
-0.0395832
-0.0226891
-0.00562603
0.0115374
0.0287451
0.0459528
0.0631314
0.0802781
0.0974355
0.114728
0.132387
0.150726
0.170323
0.192386
-0.131342
-0.118478
-0.104244
-0.0890276
-0.0731037
-0.0566844
-0.0399166