/*--------------------------------*- C++ -*----------------------------------*\
| =========                 |                                                 |
| \\      /  F ield         | OpenFOAM: The Open Source CFD Toolbox           |
|  \\    /   O peration     | Version:  2.4.0                                 |
|   \\  /    A nd           | Web:      www.OpenFOAM.org                      |
|    \\/     M anipulation  |                                                 |
\*---------------------------------------------------------------------------*/
FoamFile
{
    version     2.0;
    format      ascii;
    class       surfaceScalarField;
    location    "0.7";
    object      phi;
}
// * * * * * * * * * * * * * * * * * * * * * * * * * * * * * * * * * * * * * //

dimensions      [0 3 -1 0 0 0 0];

internalField   nonuniform List<scalar> 
12720
(
8.13706e-09
-8.18962e-09
4.91975e-11
-6.60902e-07
6.67541e-07
1.49719e-09
-1.95727e-06
1.29429e-06
2.07692e-09
-3.6645e-06
1.70458e-06
2.64536e-09
-5.602e-06
1.93456e-06
2.94705e-09
-7.62993e-06
2.02488e-06
3.04839e-09
-9.63475e-06
2.00179e-06
3.0277e-09
-1.15165e-05
1.87889e-06
2.88123e-09
-1.31858e-05
1.6667e-06
2.58811e-09
1.3851e-06
2.13229e-09
-1.4573e-05
-6.86732e-07
6.79857e-07
-1.31414e-09
-2.8409e-06
2.8215e-06
2.12625e-10
-6.17282e-06
4.62762e-06
-1.41537e-09
-1.03396e-05
5.87341e-06
-2.01438e-09
-1.50103e-05
6.6075e-06
-2.27602e-09
-1.98899e-05
6.90698e-06
-2.44581e-09
-2.47146e-05
6.8289e-06
-2.42984e-09
-2.92427e-05
6.40921e-06
-2.25548e-09
-3.32598e-05
5.68583e-06
-1.98624e-09
4.7312e-06
-1.7238e-09
-3.66042e-05
-1.37915e-06
2.06104e-06
-2.0332e-09
-4.81905e-06
6.25963e-06
1.77022e-09
-9.78513e-06
9.59366e-06
3.95771e-11
-1.58176e-05
1.1906e-05
-9.51183e-11
-2.24993e-05
1.32892e-05
9.35741e-11
-2.94486e-05
1.38561e-05
1.00097e-10
-3.63054e-05
1.36856e-05
1.12089e-10
-4.27246e-05
1.28283e-05
1.50429e-10
-4.83893e-05
1.13503e-05
1.87718e-10
9.39567e-06
9.78623e-11
-5.30538e-05
-1.88059e-06
3.94443e-06
-2.79249e-09
-6.31123e-06
1.06879e-05
2.3613e-09
-1.25189e-05
1.58013e-05
1.34674e-11
-1.99361e-05
1.93233e-05
-1.48922e-10
-2.80863e-05
2.14392e-05
1.54411e-10
-3.65359e-05
2.23056e-05
2.04233e-10
-4.48608e-05
2.20103e-05
2.42238e-10
-5.26303e-05
2.05974e-05
3.14466e-10
-5.94232e-05
1.81428e-05
4.40727e-10
1.48635e-05
3.65152e-10
-6.48914e-05
-2.1951e-06
6.14277e-06
-3.24491e-09
-7.28297e-06
1.57731e-05
2.65966e-09
-1.43251e-05
2.28437e-05
-2.66907e-10
-2.2676e-05
2.76748e-05
-5.72732e-10
-3.1823e-05
3.05864e-05
-2.72863e-10
-4.1305e-05
3.17878e-05
-2.27991e-10
-5.06539e-05
3.13593e-05
-1.6977e-10
-5.93606e-05
2.93041e-05
-2.73673e-11
-6.68808e-05
2.56626e-05
3.72471e-10
2.06931e-05
5.36628e-10
-7.27109e-05
-2.33826e-06
8.48444e-06
-3.41963e-09
-7.74474e-06
2.11767e-05
2.87097e-09
-1.5205e-05
3.03043e-05
-3.28755e-10
-2.40387e-05
3.65092e-05
-7.06253e-10
-3.3724e-05
4.02722e-05
-4.20239e-10
-4.37962e-05
4.18604e-05
-3.92305e-10
-5.37651e-05
4.13285e-05
-3.59424e-10
-6.30528e-05
3.85921e-05
-2.44884e-10
-7.09671e-05
3.35763e-05
5.65035e-10
2.64765e-05
1.31972e-09
-7.67518e-05
-2.32261e-06
1.08104e-05
-3.37786e-09
-7.71414e-06
2.65654e-05
2.88832e-09
-1.51681e-05
3.77586e-05
-3.45114e-10
-2.40127e-05
4.53545e-05
-7.67179e-10
-3.37431e-05
5.00032e-05
-5.32439e-10
-4.39155e-05
5.20334e-05
-5.43148e-10
-5.40482e-05
5.14618e-05
-5.97557e-10
-6.35244e-05
4.8069e-05
-7.3881e-10
-7.14984e-05
4.15497e-05
7.24804e-10
3.17955e-05
3.19696e-09
-7.68207e-05
-2.15938e-06
1.29729e-05
-3.11843e-09
-7.21529e-06
3.16185e-05
2.73303e-09
-1.42366e-05
4.47802e-05
-3.23509e-10
-2.25908e-05
5.37095e-05
-7.62714e-10
-3.18035e-05
5.92165e-05
-6.00427e-10
-4.14671e-05
6.16975e-05
-6.14723e-10
-5.11411e-05
6.11365e-05
-6.79408e-10
-6.02277e-05
5.71569e-05
-1.23586e-09
-6.77911e-05
4.91111e-05
1.96372e-09
3.61184e-05
1.13609e-08
-7.21253e-05
-1.86636e-06
1.48419e-05
-2.64542e-09
-6.29845e-06
3.60482e-05
2.4601e-09
-1.24845e-05
5.09665e-05
-2.38999e-10
-1.98392e-05
6.10649e-05
-6.7892e-10
-2.79048e-05
6.72828e-05
-6.61935e-10
-3.62889e-05
7.00825e-05
-8.09519e-10
-4.45904e-05
6.94391e-05
-1.17966e-09
-5.22792e-05
6.48496e-05
-3.7727e-09
-5.85093e-05
5.53419e-05
-8.37394e-10
3.85896e-05
2.54636e-08
-6.10059e-05
-1.47788e-06
-1.99042e-09
1.63218e-05
-5.06781e-06
2.14298e-09
3.9636e-05
-1.00955e-05
-4.05008e-11
5.59943e-05
-1.60072e-05
-4.05192e-10
6.69769e-05
-2.23108e-05
-5.14417e-10
7.35869e-05
-2.85353e-05
-9.37839e-10
7.63079e-05
-3.41834e-05
-2.15123e-09
7.50894e-05
-3.86147e-05
-1.04406e-08
6.92912e-05
-4.09037e-05
-2.32531e-08
5.76543e-05
5.41521e-09
-3.97677e-05
3.74481e-05
1.03038e-08
-1.02547e-08
1.9275e-14
-6.61014e-07
6.72815e-07
3.47264e-13
-1.95776e-06
1.29882e-06
5.85863e-14
-3.66455e-06
1.70944e-06
-6.72147e-14
-5.60187e-06
1.94026e-06
-1.15832e-13
-7.62979e-06
2.03097e-06
1.10033e-14
-9.63467e-06
2.0079e-06
-1.02387e-14
-1.15165e-05
1.88475e-06
1.20456e-13
-1.3186e-05
1.67203e-06
2.85621e-14
1.3895e-06
3.71329e-15
-1.45734e-05
-6.91668e-07
6.80099e-07
4.35982e-13
-2.84483e-06
2.82619e-06
6.12055e-13
-6.17619e-06
4.62877e-06
2.7051e-13
-1.03419e-05
5.87315e-06
4.50215e-13
-1.50113e-05
6.60732e-06
4.03071e-13
-1.98898e-05
6.90702e-06
4.7353e-13
-2.47135e-05
6.82922e-06
4.10253e-13
-2.92409e-05
6.40991e-06
3.28289e-13
-3.32578e-05
5.68692e-06
2.56491e-13
4.73214e-06
1.79688e-13
-3.66022e-05
-1.38373e-06
2.06179e-06
1.36696e-12
-4.81974e-06
6.26397e-06
1.25988e-12
-9.78568e-06
9.59475e-06
8.68194e-13
-1.58183e-05
1.19056e-05
7.50655e-13
-2.24996e-05
1.32888e-05
7.70625e-13
-2.94484e-05
1.38559e-05
6.19233e-13
-3.63048e-05
1.36858e-05
6.45869e-13
-4.27239e-05
1.28291e-05
5.04393e-13
-4.83887e-05
1.13519e-05
4.66028e-13
9.39707e-06
3.83161e-13
-5.30535e-05
-1.88578e-06
3.94478e-06
1.75772e-12
-6.31052e-06
1.06911e-05
1.33316e-12
-1.25181e-05
1.58023e-05
1.14952e-12
-1.99359e-05
1.93233e-05
1.01989e-12
-2.80861e-05
2.14391e-05
9.57755e-13
-3.65356e-05
2.23056e-05
8.08463e-13
-4.48604e-05
2.20108e-05
5.82171e-13
-5.26298e-05
2.05988e-05
6.68905e-13
-5.94232e-05
1.81458e-05
4.53611e-13
1.48664e-05
4.16456e-13
-6.48922e-05
-2.2013e-06
6.14284e-06
2.01279e-12
-7.28219e-06
1.57746e-05
1.54606e-12
-1.43241e-05
2.2844e-05
1.18439e-12
-2.26758e-05
2.76744e-05
1.09025e-12
-3.18229e-05
3.05859e-05
1.04876e-12
-4.13048e-05
3.17873e-05
9.88782e-13
-5.06534e-05
3.13592e-05
7.64834e-13
-5.93598e-05
2.93051e-05
6.52612e-13
-6.68807e-05
2.56672e-05
4.98723e-13
2.06988e-05
4.71328e-13
-7.27126e-05
-2.34495e-06
8.48437e-06
1.93809e-12
-7.74403e-06
2.11766e-05
1.5556e-12
-1.52041e-05
3.03038e-05
1.36462e-12
-2.40387e-05
3.65083e-05
1.21747e-12
-3.37243e-05
4.0271e-05
1.09724e-12
-4.37965e-05
4.18592e-05
1.02985e-12
-5.3765e-05
4.13273e-05
9.39051e-13
-6.30519e-05
3.85918e-05
6.85024e-13
-7.09668e-05
3.35827e-05
7.79065e-13
2.64884e-05
5.47891e-13
-7.67551e-05
-2.32928e-06
1.08103e-05
2.02965e-12
-7.71358e-06
2.65637e-05
1.55163e-12
-1.51675e-05
3.77574e-05
1.22546e-12
-2.40132e-05
4.53532e-05
1.38191e-12
-3.37441e-05
5.00014e-05
1.2436e-12
-4.39167e-05
5.20312e-05
9.53629e-13
-5.40491e-05
5.14591e-05
9.51807e-13
-6.35235e-05
4.80655e-05
9.9944e-13
-7.14972e-05
4.15571e-05
8.75994e-13
3.18218e-05
3.93258e-13
-7.68274e-05
-2.16559e-06
1.29727e-05
1.64121e-12
-7.21491e-06
3.16158e-05
1.42411e-12
-1.42364e-05
4.47786e-05
1.28742e-12
-2.2592e-05
5.3708e-05
1.12711e-12
-3.18056e-05
5.92144e-05
1.21859e-12
-4.14697e-05
6.16947e-05
1.1763e-12
-5.11434e-05
6.11321e-05
8.49795e-13
-6.02262e-05
5.7147e-05
8.47334e-13
-6.77805e-05
4.91133e-05
8.88354e-13
3.61858e-05
8.58221e-13
-7.21331e-05
-1.87167e-06
1.48418e-05
1.56433e-12
-6.29818e-06
3.60448e-05
1.39692e-12
-1.24847e-05
5.09648e-05
1.24739e-12
-1.98411e-05
6.10638e-05
1.27516e-12
-2.79088e-05
6.72814e-05
1.26021e-12
-3.62956e-05
7.00808e-05
9.76064e-13
-4.46012e-05
6.94365e-05
8.8618e-13
-5.22929e-05
6.4835e-05
6.73697e-13
-5.84881e-05
5.53077e-05
7.04806e-13
3.86872e-05
8.63948e-13
-6.09641e-05
-1.48189e-06
1.38824e-12
1.63217e-05
-5.06728e-06
1.42814e-12
3.96323e-05
-1.00953e-05
1.29163e-12
5.59928e-05
-1.60085e-05
1.18185e-12
6.69766e-05
-2.23151e-05
1.01415e-12
7.35874e-05
-2.85455e-05
9.6908e-13
7.63102e-05
-3.42074e-05
1.06156e-12
7.50963e-05
-3.86853e-05
5.57198e-13
6.93024e-05
-4.10142e-05
3.96564e-13
5.76133e-05
6.69376e-13
-3.95839e-05
3.72624e-05
1.0304e-08
-1.02542e-08
-4.97764e-11
-6.61015e-07
6.72815e-07
-1.49623e-09
-1.95776e-06
1.29882e-06
-2.07562e-09
-3.66455e-06
1.70944e-06
-2.64444e-09
-5.60186e-06
1.94026e-06
-2.94599e-09
-7.62979e-06
2.03097e-06
-3.04758e-09
-9.63466e-06
2.0079e-06
-3.02685e-09
-1.15165e-05
1.88475e-06
-2.88066e-09
-1.3186e-05
1.67203e-06
-2.58749e-09
1.3895e-06
-2.13176e-09
-1.45734e-05
-6.91667e-07
6.801e-07
1.31412e-09
-2.84483e-06
2.82619e-06
-2.11686e-10
-6.17619e-06
4.62876e-06
1.41662e-09
-1.03419e-05
5.87315e-06
2.01537e-09
-1.50112e-05
6.60732e-06
2.27704e-09
-1.98897e-05
6.90702e-06
2.44667e-09
-2.47135e-05
6.82922e-06
2.43062e-09
-2.92409e-05
6.40991e-06
2.25617e-09
-3.32578e-05
5.68692e-06
1.9868e-09
4.73214e-06
1.7243e-09
-3.66021e-05
-1.38373e-06
2.06179e-06
2.03386e-09
-4.81973e-06
6.26397e-06
-1.76907e-09
-9.78567e-06
9.59475e-06
-3.82444e-11
-1.58182e-05
1.19056e-05
9.6382e-11
-2.24996e-05
1.32887e-05
-9.24155e-11
-2.94483e-05
1.38559e-05
-9.89698e-11
-3.63048e-05
1.36858e-05
-1.11207e-10
-4.27238e-05
1.28291e-05
-1.49632e-10
-4.83886e-05
1.13519e-05
-1.87097e-10
9.39707e-06
-9.73298e-11
-5.30535e-05
-1.88578e-06
3.94478e-06
2.79392e-09
-6.31052e-06
1.06911e-05
-2.35962e-09
-1.25181e-05
1.58023e-05
-1.19579e-11
-1.99359e-05
1.93233e-05
1.50347e-10
-2.80861e-05
2.14391e-05
-1.53037e-10
-3.65356e-05
2.23056e-05
-2.02983e-10
-4.48603e-05
2.20108e-05
-2.41056e-10
-5.26297e-05
2.05988e-05
-3.13617e-10
-5.94232e-05
1.81458e-05
-4.39941e-10
1.48664e-05
-3.64527e-10
-6.48922e-05
-2.2013e-06
6.14284e-06
3.24635e-09
-7.28218e-06
1.57746e-05
-2.65796e-09
-1.43241e-05
2.2844e-05
2.68614e-10
-2.26758e-05
2.76744e-05
5.74292e-10
-3.18228e-05
3.05859e-05
2.7432e-10
-4.13048e-05
3.17873e-05
2.29313e-10
-5.06534e-05
3.13592e-05
1.70967e-10
-5.93597e-05
2.93051e-05
2.83866e-11
-6.68807e-05
2.56672e-05
-3.71617e-10
2.06988e-05
-5.36012e-10
-7.27126e-05
-2.34494e-06
8.48436e-06
3.42139e-09
-7.74402e-06
2.11765e-05
-2.86907e-09
-1.52041e-05
3.03038e-05
3.30519e-10
-2.40387e-05
3.65082e-05
7.07943e-10
-3.37242e-05
4.0271e-05
4.21798e-10
-4.37965e-05
4.18591e-05
3.93709e-10
-5.37649e-05
4.13273e-05
3.60631e-10
-6.30519e-05
3.85918e-05
2.45977e-10
-7.09668e-05
3.35827e-05
-5.643e-10
2.64884e-05
-1.31905e-09
-7.67551e-05
-2.32928e-06
1.08103e-05
3.37945e-09
-7.71358e-06
2.65637e-05
-2.88637e-09
-1.51675e-05
3.77573e-05
3.47101e-10
-2.40132e-05
4.53532e-05
7.688e-10
-3.37441e-05
5.00013e-05
5.34004e-10
-4.39167e-05
5.20312e-05
5.44661e-10
-5.4049e-05
5.14591e-05
5.98793e-10
-6.35235e-05
4.80655e-05
7.39701e-10
-7.14972e-05
4.15571e-05
-7.24043e-10
3.18218e-05
-3.19621e-09
-7.68274e-05
-2.16559e-06
1.29727e-05
3.12024e-09
-7.21491e-06
3.16158e-05
-2.73104e-09
-1.42364e-05
4.47785e-05
3.25419e-10
-2.2592e-05
5.3708e-05
7.64561e-10
-3.18056e-05
5.92144e-05
6.01979e-10
-4.14697e-05
6.16947e-05
6.16008e-10
-5.11434e-05
6.11321e-05
6.80685e-10
-6.02262e-05
5.7147e-05
1.2369e-09
-6.77805e-05
4.91133e-05
-1.96308e-09
3.61858e-05
-1.13605e-08
-7.21331e-05
-1.87167e-06
1.48418e-05
2.64708e-09
-6.29818e-06
3.60447e-05
-2.4582e-09
-1.24847e-05
5.09648e-05
2.40871e-10
-1.98411e-05
6.10637e-05
6.80568e-10
-2.79088e-05
6.72813e-05
6.63322e-10
-3.62956e-05
7.00808e-05
8.10822e-10
-4.46012e-05
6.94365e-05
1.18076e-09
-5.22929e-05
6.4835e-05
3.7738e-09
-5.84881e-05
5.53077e-05
8.38216e-10
3.86872e-05
-2.54632e-08
-6.09641e-05
-1.48189e-06
1.99204e-09
1.63217e-05
-5.06728e-06
-2.14128e-09
3.96323e-05
-1.00952e-05
4.21905e-11
5.59927e-05
-1.60085e-05
4.06679e-10
6.69766e-05
-2.23151e-05
5.15748e-10
7.35874e-05
-2.85455e-05
9.38965e-10
7.63102e-05
-3.42074e-05
2.15215e-09
7.50963e-05
-3.86853e-05
1.04417e-08
6.93024e-05
-4.10142e-05
2.32542e-08
5.76133e-05
-5.41444e-09
-3.95839e-05
3.72624e-05
8.13901e-09
-8.18871e-09
-6.60901e-07
6.6754e-07
-1.95726e-06
1.29429e-06
-3.66449e-06
1.70458e-06
-5.602e-06
1.93456e-06
-7.62992e-06
2.02488e-06
-9.63474e-06
2.00179e-06
-1.15165e-05
1.87889e-06
-1.31858e-05
1.6667e-06
1.3851e-06
-1.4573e-05
-6.86729e-07
6.79859e-07
-2.8409e-06
2.8215e-06
-6.17281e-06
4.62762e-06
-1.03396e-05
5.8734e-06
-1.50103e-05
6.60749e-06
-1.98899e-05
6.90697e-06
-2.47146e-05
6.82889e-06
-2.92427e-05
6.40921e-06
-3.32598e-05
5.68583e-06
4.7312e-06
-3.66042e-05
-1.37915e-06
2.06104e-06
-4.81904e-06
6.25963e-06
-9.78511e-06
9.59365e-06
-1.58176e-05
1.1906e-05
-2.24993e-05
1.32891e-05
-2.94485e-05
1.38561e-05
-3.63053e-05
1.36856e-05
-4.27246e-05
1.28283e-05
-4.83892e-05
1.13503e-05
9.39566e-06
-5.30538e-05
-1.88059e-06
3.94442e-06
-6.31122e-06
1.06879e-05
-1.25189e-05
1.58013e-05
-1.99361e-05
1.93233e-05
-2.80862e-05
2.14391e-05
-3.65359e-05
2.23055e-05
-4.48608e-05
2.20103e-05
-5.26302e-05
2.05974e-05
-5.94232e-05
1.81428e-05
1.48635e-05
-6.48914e-05
-2.19509e-06
6.14276e-06
-7.28296e-06
1.57731e-05
-1.43251e-05
2.28437e-05
-2.2676e-05
2.76747e-05
-3.1823e-05
3.05864e-05
-4.1305e-05
3.17878e-05
-5.06539e-05
3.13593e-05
-5.93605e-05
2.93041e-05
-6.68807e-05
2.56626e-05
2.06931e-05
-7.27109e-05
-2.33825e-06
8.48443e-06
-7.74472e-06
2.11767e-05
-1.52049e-05
3.03043e-05
-2.40386e-05
3.65091e-05
-3.3724e-05
4.02722e-05
-4.37962e-05
4.18604e-05
-5.3765e-05
4.13285e-05
-6.30528e-05
3.85921e-05
-7.0967e-05
3.35763e-05
2.64765e-05
-7.67518e-05
-2.32261e-06
1.08104e-05
-7.71413e-06
2.65653e-05
-1.5168e-05
3.77585e-05
-2.40126e-05
4.53545e-05
-3.3743e-05
5.00031e-05
-4.39154e-05
5.20333e-05
-5.40481e-05
5.14618e-05
-6.35243e-05
4.8069e-05
-7.14984e-05
4.15496e-05
3.17955e-05
-7.68206e-05
-2.15938e-06
1.29729e-05
-7.21528e-06
3.16185e-05
-1.42366e-05
4.47802e-05
-2.25908e-05
5.37095e-05
-3.18035e-05
5.92165e-05
-4.14671e-05
6.16975e-05
-5.1141e-05
6.11365e-05
-6.02277e-05
5.71569e-05
-6.77911e-05
4.91111e-05
3.61184e-05
-7.21253e-05
-1.86635e-06
1.48419e-05
-6.29844e-06
3.60481e-05
-1.24845e-05
5.09665e-05
-1.98392e-05
6.10648e-05
-2.79047e-05
6.72827e-05
-3.62889e-05
7.00825e-05
-4.45903e-05
6.94391e-05
-5.22792e-05
6.48495e-05
-5.85093e-05
5.53419e-05
3.85896e-05
-6.10059e-05
-1.47787e-06
1.63218e-05
-5.06781e-06
3.96359e-05
-1.00955e-05
5.59942e-05
-1.60072e-05
6.69769e-05
-2.23108e-05
7.35868e-05
-2.85353e-05
7.63079e-05
-3.41834e-05
7.50893e-05
-3.86146e-05
6.92912e-05
-4.09037e-05
5.76543e-05
-3.97677e-05
3.74481e-05
-1.56468e-05
1.0722e-06
1.56872e-09
-1.64247e-05
7.76781e-07
1.0659e-09
-1.69567e-05
5.31348e-07
6.80261e-10
-1.73039e-05
3.4676e-07
4.08607e-10
-1.75232e-05
2.19125e-07
2.33279e-10
-1.76611e-05
1.37714e-07
1.2958e-10
-1.77518e-05
9.07124e-08
7.49612e-11
-1.78201e-05
6.81531e-08
5.26213e-11
-1.78828e-05
6.26813e-08
5.14951e-11
-1.79519e-05
6.90793e-08
6.4902e-11
-1.80352e-05
8.31939e-08
8.8739e-11
-1.81359e-05
1.00588e-07
1.19429e-10
-1.82511e-05
1.15035e-07
1.51735e-10
-1.83683e-05
1.16997e-07
1.76277e-10
-1.84609e-05
9.24694e-08
1.76811e-10
-1.84838e-05
2.2768e-08
1.29698e-10
-1.83691e-05
-1.14728e-07
1.65209e-11
-1.80311e-05
-3.378e-07
-2.28498e-10
-1.73754e-05
-6.55081e-07
-6.41794e-10
-1.051e-06
-1.2505e-09
-1.63231e-05
-3.92062e-05
3.67576e-06
-1.53182e-09
-4.11098e-05
2.6816e-06
-1.27392e-09
-4.24318e-05
1.85435e-06
-9.92985e-10
-4.33126e-05
1.22832e-06
-7.39567e-10
-4.38833e-05
7.90317e-07
-5.31044e-10
-4.42506e-05
5.05439e-07
-3.74547e-10
-4.44948e-05
3.35184e-07
-2.67896e-10
-4.4673e-05
2.46563e-07
-2.03033e-10
-4.48247e-05
2.14471e-07
-1.70034e-10
-4.49757e-05
2.20251e-07
-1.58813e-10
-4.51408e-05
2.48426e-07
-1.5864e-10
-4.53226e-05
2.8257e-07
-1.57078e-10
-4.55082e-05
3.00806e-07
-1.38166e-10
-4.56625e-05
2.71392e-07
-8.1253e-11
-4.57196e-05
1.49502e-07
3.85058e-11
-4.55742e-05
-1.22835e-07
2.46089e-10
-4.50788e-05
-6.1072e-07
5.44381e-10
-4.40483e-05
-1.36925e-06
9.48742e-10
-4.22877e-05
-2.41714e-06
1.42035e-09
-3.70103e-06
1.84678e-09
-3.96395e-05
-5.66175e-05
7.23969e-06
-2.20338e-10
-5.9171e-05
5.23543e-06
-3.48317e-10
-6.09106e-05
3.59426e-06
-3.60893e-10
-6.20514e-05
2.36952e-06
-3.29854e-10
-6.27819e-05
1.52105e-06
-2.72793e-10
-6.32477e-05
9.71453e-07
-2.10662e-10
-6.35537e-05
6.41346e-07
-1.56497e-10
-6.37721e-05
4.65063e-07
-1.14432e-10
-6.3951e-05
3.93481e-07
-8.3868e-11
-6.4121e-05
3.90306e-07
-6.20674e-11
-6.42981e-05
4.25535e-07
-4.49182e-11
-6.44832e-05
4.67696e-07
-2.76629e-11
-6.46579e-05
4.75535e-07
-4.95684e-12
-6.47764e-05
3.89843e-07
2.97934e-11
-6.4754e-05
1.27081e-07
8.24821e-11
-6.44556e-05
-4.2142e-07
1.5429e-10
-6.36866e-05
-1.37997e-06
2.40357e-10
-6.21975e-05
-2.85865e-06
3.37679e-10
-5.97131e-05
-4.90196e-06
4.24204e-10
-7.41574e-06
3.4427e-10
-5.59988e-05
-6.88942e-05
1.12427e-05
-2.9083e-10
-7.1615e-05
7.95668e-06
-4.59653e-10
-7.33711e-05
5.35087e-06
-4.35962e-10
-7.44659e-05
3.46464e-06
-3.78379e-10
-7.51357e-05
2.19122e-06
-2.95693e-10
-7.55465e-05
1.38238e-06
-2.15025e-10
-7.58072e-05
9.02198e-07
-1.50472e-10
-7.59875e-05
6.45538e-07
-1.02907e-10
-7.61313e-05
5.37361e-07
-6.93633e-11
-7.62652e-05
5.24173e-07
-4.61565e-11
-7.64026e-05
5.62988e-07
-2.93731e-11
-7.65444e-05
6.09476e-07
-1.53716e-11
-7.66744e-05
6.05543e-07
-4.5404e-13
-7.67512e-05
4.66641e-07
2.19875e-11
-7.66943e-05
7.01846e-08
5.92832e-11
-7.63672e-05
-7.48654e-07
1.12237e-10
-7.55569e-05
-2.19052e-06
1.87088e-10
-7.39649e-05
-4.45088e-06
2.93496e-10
-7.12252e-05
-7.64211e-06
4.59645e-10
-1.16603e-05
3.82713e-10
-6.6981e-05
-7.66318e-05
1.51644e-05
-7.96667e-10
-7.90154e-05
1.03412e-05
-8.59602e-10
-8.03755e-05
6.71164e-06
-6.56755e-10
-8.11211e-05
4.21074e-06
-5.02225e-10
-8.15223e-05
2.5927e-06
-3.46996e-10
-8.17396e-05
1.59994e-06
-2.2305e-10
-8.1863e-05
1.02576e-06
-1.39883e-10
-8.19416e-05
7.24193e-07
-8.71278e-11
-8.20022e-05
5.98053e-07
-5.51742e-11
-8.20601e-05
5.82055e-07
-3.69134e-11
-8.21234e-05
6.2629e-07
-2.72574e-11
-8.21944e-05
6.80523e-07
-2.26455e-11
-8.2267e-05
6.78176e-07
-1.93617e-11
-8.23194e-05
5.19002e-07
-9.60528e-12
-8.22991e-05
4.98581e-08
1.95057e-11
-8.21005e-05
-9.47329e-07
7.5756e-11
-8.15264e-05
-2.76475e-06
1.69136e-10
-8.02501e-05
-5.72754e-06
3.3669e-10
-7.77935e-05
-1.00994e-05
7.81791e-10
-1.58654e-05
9.85067e-10
-7.35894e-05
-8.00005e-05
1.84149e-05
-1.80862e-09
-8.14855e-05
1.18275e-05
-1.43605e-09
-8.20351e-05
7.26206e-06
-8.27435e-10
-8.21649e-05
4.34108e-06
-5.45374e-10
-8.21385e-05
2.56669e-06
-3.16963e-10
-8.20715e-05
1.53303e-06
-1.63482e-10
-8.20051e-05
9.59514e-07
-8.00833e-11
-8.19496e-05
6.68744e-07
-3.69542e-11
-8.19044e-05
5.52808e-07
-1.588e-11
-8.18671e-05
5.4483e-07
-7.26513e-12
-8.18381e-05
5.97254e-07
-6.1323e-12
-8.18214e-05
6.63865e-07
-1.02488e-11
-8.18253e-05
6.82093e-07
-1.83651e-11
-8.18587e-05
5.52401e-07
-2.8314e-11
-8.19207e-05
1.11847e-07
-2.4067e-11
-8.19731e-05
-8.9497e-07
2.43156e-11
-8.18884e-05
-2.84955e-06
9.85703e-11
-8.13627e-05
-6.25349e-06
2.74593e-10
-7.98074e-05
-1.16559e-05
1.28295e-09
-1.9367e-05
2.38581e-09
-7.63082e-05
-7.86251e-05
2.02243e-05
-4.92599e-09
-7.85702e-05
1.17757e-05
-3.0254e-09
-7.7941e-05
6.63417e-06
-1.28685e-09
-7.72886e-05
3.68933e-06
-6.70251e-10
-7.6778e-05
2.05644e-06
-2.84867e-10
-7.64186e-05
1.17362e-06
-8.59777e-11
-7.61717e-05
7.12686e-07
-1.05283e-11
-7.59949e-05
4.91916e-07
1.41618e-11
-7.58546e-05
4.12505e-07
1.86667e-11
-7.57291e-05
4.19266e-07
1.43789e-11
-7.56085e-05
4.76707e-07
5.07283e-12
-7.54968e-05
5.52135e-07
-8.68549e-12
-7.54145e-05
5.99815e-07
-2.76147e-11
-7.5403e-05
5.41018e-07
-5.31893e-11
-7.55251e-05
2.33953e-07
-6.19884e-11
-7.58477e-05
-5.724e-07
2.52929e-11
-7.63881e-05
-2.30932e-06
1.8446e-10
-7.69812e-05
-5.66091e-06
5.15886e-10
-7.70196e-05
-1.16204e-05
2.90621e-09
-2.13058e-05
6.48618e-09
-7.50873e-05
-7.13229e-05
1.94303e-05
-8.49773e-09
-6.90757e-05
9.53172e-06
-3.16604e-09
-6.71079e-05
4.66688e-06
-5.38266e-10
-6.57364e-05
2.31808e-06
-2.42354e-10
-6.48615e-05
1.18155e-06
9.21619e-12
-6.432e-05
6.32002e-07
1.05084e-10
-6.39778e-05
3.70366e-07
9.7179e-11
-6.37423e-05
2.56357e-07
7.68769e-11
-6.3554e-05
2.24085e-07
6.18491e-11
-6.33763e-05
2.41582e-07
5.15469e-11
-6.31908e-05
2.91174e-07
4.32809e-11
-6.29968e-05
3.58063e-07
3.26846e-11
-6.28174e-05
4.2039e-07
1.21849e-11
-6.2712e-05
4.35613e-07
-3.55608e-11
-6.27937e-05
3.15812e-07
-9.60934e-11
-6.32434e-05
-1.22733e-07
-2.39333e-11
-6.42921e-05
-1.26065e-06
6.96605e-11
-6.6111e-05
-3.84179e-06
-2.6382e-10
-6.83996e-05
-9.33443e-06
2.69573e-09
-2.04289e-05
1.06068e-08
-6.92872e-05
-5.54734e-05
1.39086e-05
-1.0884e-08
-5.0814e-05
4.8678e-06
4.53152e-09
-4.79914e-05
1.83941e-06
4.86778e-09
-4.6414e-05
7.38762e-07
1.9161e-09
-4.55493e-05
3.15993e-07
9.37027e-10
-4.50675e-05
1.49652e-07
5.38824e-10
-4.47817e-05
8.42606e-08
3.00463e-10
-4.45877e-05
6.21046e-08
1.94562e-10
-4.44256e-05
6.18735e-08
1.65812e-10
-4.42599e-05
7.56782e-08
1.76277e-10
-4.40695e-05
1.00584e-07
2.08083e-10
-4.38467e-05
1.34971e-07
2.47454e-10
-4.36024e-05
1.75812e-07
2.69594e-10
-4.33814e-05
2.14409e-07
2.10013e-10
-4.32929e-05
2.27316e-07
-6.65844e-12
-4.35609e-05
1.45657e-07
-3.29722e-10
-4.45886e-05
-2.31576e-07
-1.39884e-09
-4.70552e-05
-1.36946e-06
-5.73499e-09
-5.17053e-05
-4.67732e-06
-7.03028e-09
-1.44976e-05
1.25205e-08
-5.7649e-05
-2.58025e-05
-5.65649e-08
-2.09265e-05
-8.1876e-09
-1.90869e-05
-2.37885e-10
-1.83467e-05
-1.37025e-09
-1.80299e-05
-8.60479e-10
-1.78799e-05
-3.62677e-10
-1.77954e-05
-1.83436e-10
-1.77332e-05
-1.1341e-10
-1.76712e-05
-8.48602e-11
-1.75955e-05
-8.18732e-11
-1.74948e-05
-9.46421e-11
-1.73597e-05
-1.14018e-10
-1.71838e-05
-1.2661e-10
-1.69693e-05
-1.09666e-10
-1.6742e-05
1.48774e-11
-1.65968e-05
4.68514e-10
-1.68292e-05
8.52955e-10
-1.81971e-05
-1.55116e-09
-2.28791e-05
4.69867e-09
6.64906e-08
-3.74432e-05
-1.56471e-05
1.07531e-06
1.90338e-14
-1.64249e-05
7.78832e-07
1.39389e-13
-1.69568e-05
5.32643e-07
1.86117e-13
-1.73039e-05
3.47528e-07
1.75116e-13
-1.75233e-05
2.19557e-07
1.35383e-13
-1.76611e-05
1.37954e-07
5.11202e-14
-1.77519e-05
9.08562e-08
-8.00752e-14
-1.78201e-05
6.82646e-08
-1.11943e-13
-1.78828e-05
6.2801e-08
-8.40105e-14
-1.7952e-05
6.92323e-08
-8.15977e-14
-1.80353e-05
8.3396e-08
-9.29728e-14
-1.8136e-05
1.00846e-07
-7.69761e-14
-1.82512e-05
1.15345e-07
-3.8717e-14
-1.83684e-05
1.17333e-07
1.92123e-14
-1.8461e-05
9.27637e-08
-3.69001e-14
-1.84837e-05
2.28743e-08
-1.02028e-13
-1.83689e-05
-1.14775e-07
2.0719e-14
-1.80308e-05
-3.38338e-07
3.56249e-13
-1.73751e-05
-6.56335e-07
7.52949e-13
-1.05341e-06
1.09826e-12
-1.6323e-05
-3.9204e-05
3.67566e-06
1.62223e-13
-4.11076e-05
2.68111e-06
2.43225e-13
-4.24298e-05
1.8539e-06
3.12863e-13
-4.3311e-05
1.22797e-06
2.86709e-13
-4.38821e-05
7.90089e-07
1.12021e-13
-4.42498e-05
5.05306e-07
2.66474e-14
-4.44943e-05
3.35111e-07
3.94552e-14
-4.46728e-05
2.46519e-07
-3.94115e-14
-4.48246e-05
2.14433e-07
-1.07215e-13
-4.49757e-05
2.20198e-07
-5.99331e-14
-4.51408e-05
2.48339e-07
-7.2983e-14
-4.53226e-05
2.82435e-07
-4.7957e-14
-4.5508e-05
3.00614e-07
3.61052e-14
-4.56619e-05
2.71155e-07
2.64754e-14
-4.57183e-05
1.49262e-07
-1.08289e-13
-4.55722e-05
-1.22982e-07
-1.38822e-13
-4.50759e-05
-6.10565e-07
2.96002e-14
-4.40447e-05
-1.36859e-06
1.75529e-13
-4.22838e-05
-2.41582e-06
2.85379e-13
-3.69957e-06
4.98202e-13
-3.96358e-05
-5.66167e-05
7.23863e-06
2.52798e-13
-5.91697e-05
5.23378e-06
3.26938e-13
-6.09091e-05
3.59296e-06
3.12567e-13
-6.20501e-05
2.36863e-06
2.44165e-13
-6.27808e-05
1.52051e-06
2.14968e-13
-6.32469e-05
9.71171e-07
1.98713e-13
-6.35531e-05
6.41213e-07
1.11879e-13
-6.37717e-05
4.65e-07
-5.0488e-15
-6.39508e-05
3.93431e-07
-1.06168e-13
-6.41209e-05
3.90228e-07
-1.76534e-13
-6.4298e-05
4.25395e-07
-2.07235e-13
-6.44831e-05
4.67464e-07
-8.92693e-14
-6.46577e-05
4.75193e-07
-1.72574e-14
-6.47759e-05
3.89407e-07
-9.1815e-14
-6.47532e-05
1.2664e-07
-1.04014e-13
-6.44543e-05
-4.21748e-07
7.35386e-15
-6.36847e-05
-1.37987e-06
5.77519e-14
-6.21953e-05
-2.85765e-06
7.74813e-14
-5.97111e-05
-4.8996e-06
1.90468e-13
-7.41309e-06
4.28817e-13
-5.59973e-05
-6.88938e-05
1.12399e-05
3.12371e-13
-7.16136e-05
7.95318e-06
2.91721e-13
-7.33696e-05
5.34846e-06
2.83219e-13
-7.44644e-05
3.46311e-06
3.27238e-13
-7.51346e-05
2.19037e-06
3.39342e-13
-7.55456e-05
1.38197e-06
2.7492e-13
-7.58066e-05
9.02027e-07
1.07965e-13
-7.59871e-05
6.45476e-07
-1.63743e-14
-7.61311e-05
5.37324e-07
-1.02668e-13
-7.6265e-05
5.24105e-07
-7.58794e-14
-7.64025e-05
5.62843e-07
-4.10502e-14
-7.65443e-05
6.09214e-07
-1.04653e-13
-7.66742e-05
6.05129e-07
-2.63397e-13
-7.67508e-05
4.66075e-07
-3.0299e-13
-7.66938e-05
6.96449e-08
-1.68067e-13
-7.63662e-05
-7.49184e-07
-6.49921e-14
-7.55554e-05
-2.19054e-06
-3.1922e-14
-7.39631e-05
-4.44961e-06
3.96892e-14
-7.12239e-05
-7.63836e-06
1.84476e-13
-1.16559e-05
2.81984e-13
-6.69807e-05
-7.6631e-05
1.51575e-05
3.87988e-13
-7.90132e-05
1.03345e-05
2.16861e-13
-8.03732e-05
6.70788e-06
3.587e-13
-8.11193e-05
4.20866e-06
4.76854e-13
-8.15209e-05
2.59167e-06
4.36342e-13
-8.17387e-05
1.59952e-06
3.1965e-13
-8.18625e-05
1.02563e-06
9.04783e-14
-8.19412e-05
7.24173e-07
-9.7327e-14
-8.2002e-05
5.98048e-07
-1.30521e-13
-8.206e-05
5.82006e-07
-1.18172e-13
-8.21233e-05
6.2615e-07
-1.70244e-13
-8.21943e-05
6.80244e-07
-2.90711e-13
-8.22669e-05
6.77704e-07
-3.75801e-13
-8.23192e-05
5.18291e-07
-3.01508e-13
-8.22987e-05
4.92141e-08
-1.94965e-13
-8.20996e-05
-9.48181e-07
-1.18249e-13
-8.15249e-05
-2.76513e-06
-4.83274e-14
-8.02479e-05
-5.72625e-06
-1.04423e-14
-7.7792e-05
-1.00935e-05
-6.17051e-14
-1.58569e-05
-2.93241e-15
-7.359e-05
-7.99983e-05
1.83989e-05
5.22735e-13
-8.14813e-05
1.18161e-05
2.42069e-13
-8.20317e-05
7.25741e-06
3.2027e-13
-8.21626e-05
4.33904e-06
3.49349e-13
-8.21372e-05
2.56592e-06
3.91032e-13
-8.20707e-05
1.53287e-06
2.38308e-13
-8.20047e-05
9.5956e-07
7.26832e-14
-8.19494e-05
6.68829e-07
-7.69894e-15
-8.19042e-05
5.52866e-07
-5.53017e-14
-8.1867e-05
5.44826e-07
-1.1387e-13
-8.1838e-05
5.97151e-07
-2.11438e-13
-8.18214e-05
6.63615e-07
-2.59336e-13
-8.18254e-05
6.81626e-07
-2.26712e-13
-8.18587e-05
5.51636e-07
-2.34169e-13
-8.19205e-05
1.10955e-07
-2.65897e-13
-8.19724e-05
-8.9623e-07
-2.61115e-13
-8.18867e-05
-2.85071e-06
-2.00858e-13
-8.13597e-05
-6.25299e-06
-2.33262e-13
-7.98051e-05
-1.16468e-05
-2.7308e-13
-1.93492e-05
-1.13072e-13
-7.63105e-05
-7.86195e-05
2.01861e-05
4.0701e-13
-7.85628e-05
1.17563e-05
2.1158e-13
-7.79363e-05
6.62967e-06
3.90828e-13
-7.72862e-05
3.68827e-06
4.78635e-13
-7.6777e-05
2.05641e-06
4.66028e-13
-7.64182e-05
1.17392e-06
1.83764e-13
-7.61716e-05
7.12959e-07
3.16748e-14
-7.59948e-05
4.92099e-07
-4.9967e-15
-7.58545e-05
4.12604e-07
-2.30675e-14
-7.5729e-05
4.19285e-07
-7.48671e-14
-7.56085e-05
4.76632e-07
-7.22323e-14
-7.54968e-05
5.51922e-07
-1.16192e-13
-7.54146e-05
5.99381e-07
-3.13272e-13
-7.54032e-05
5.40232e-07
-4.82232e-13
-7.55251e-05
2.32781e-07
-5.47139e-13
-7.58472e-05
-5.74121e-07
-5.94339e-13
-7.63862e-05
-2.31148e-06
-6.30412e-13
-7.69769e-05
-5.66178e-06
-6.25307e-13
-7.70155e-05
-1.16053e-05
-5.84249e-13
-2.12639e-05
-4.02559e-13
-7.50943e-05
-7.13125e-05
1.9357e-05
3.70888e-13
-6.90687e-05
9.50934e-06
4.44122e-14
-6.71058e-05
4.66626e-06
1.58656e-13
-6.57365e-05
2.31871e-06
3.49245e-13
-6.48621e-05
1.18204e-06
3.43592e-13
-6.43205e-05
6.32422e-07
2.55412e-13
-6.39781e-05
3.70625e-07
1.31589e-13
-6.37424e-05
2.56495e-07
-1.28676e-14
-6.35539e-05
2.24153e-07
-8.57855e-14
-6.33762e-05
2.41606e-07
-3.74363e-14
-6.31907e-05
2.91158e-07
-3.32821e-14
-6.29967e-05
3.57985e-07
-2.08374e-13
-6.28175e-05
4.20195e-07
-3.9058e-13
-6.27125e-05
4.35168e-07
-3.97945e-13
-6.27947e-05
3.14924e-07
-4.40967e-13
-6.32447e-05
-1.24097e-07
-6.04468e-13
-6.42938e-05
-1.26238e-06
-7.12412e-13
-6.61109e-05
-3.84488e-06
-6.77858e-13
-6.83957e-05
-9.31784e-06
-5.01479e-13
-2.03507e-05
-4.48166e-13
-6.92984e-05
-5.54615e-05
1.38435e-05
2.65525e-13
-5.08212e-05
4.87357e-06
1.10759e-13
-4.79984e-05
1.84836e-06
1.41084e-13
-4.6419e-05
7.4117e-07
2.98073e-13
-4.55523e-05
3.16282e-07
2.70882e-13
-4.5069e-05
1.49656e-07
1.83395e-13
-4.47823e-05
8.42643e-08
5.61935e-14
-4.45878e-05
6.21508e-08
-9.33993e-14
-4.44254e-05
6.19811e-08
-1.69527e-13
-4.42595e-05
7.58644e-08
-1.62959e-13
-4.4069e-05
1.00878e-07
-2.10899e-13
-4.38462e-05
1.35415e-07
-2.72203e-13
-4.36022e-05
1.76465e-07
-1.91485e-13
-4.33821e-05
2.15331e-07
-1.77682e-13
-4.32954e-05
2.282e-07
-2.48946e-13
-4.35659e-05
1.46038e-07
-4.36107e-13
-4.45987e-05
-2.30992e-07
-6.46473e-13
-4.70724e-05
-1.37692e-06
-6.58404e-13
-5.17115e-05
-4.68576e-06
-7.17437e-13
-1.44415e-05
-9.32923e-13
-5.76081e-05
-2.5797e-05
1.14514e-13
-2.09316e-05
2.07249e-14
-1.90835e-05
-8.25762e-15
-1.83437e-05
-7.1451e-14
-1.80283e-05
-8.7716e-14
-1.7879e-05
-7.60123e-14
-1.77949e-05
-1.35283e-13
-1.77329e-05
-2.36781e-13
-1.7671e-05
-2.66673e-13
-1.75952e-05
-2.15897e-13
-1.74944e-05
-1.6006e-13
-1.73591e-05
-9.59151e-14
-1.71828e-05
-9.29247e-14
-1.69675e-05
-1.13637e-13
-1.67393e-05
-1.67689e-13
-1.65928e-05
-3.35885e-13
-1.68229e-05
-4.14304e-13
-1.82014e-05
-4.76489e-13
-2.28825e-05
-1.12831e-12
-1.54617e-12
-3.72575e-05
-1.56471e-05
1.07531e-06
-1.56819e-09
-1.64249e-05
7.78832e-07
-1.06547e-09
-1.69568e-05
5.32643e-07
-6.79808e-10
-1.73039e-05
3.47528e-07
-4.08255e-10
-1.75233e-05
2.19557e-07
-2.33076e-10
-1.76611e-05
1.37954e-07
-1.29493e-10
-1.77519e-05
9.08565e-08
-7.49298e-11
-1.78201e-05
6.82647e-08
-5.26386e-11
-1.78828e-05
6.28009e-08
-5.1568e-11
-1.7952e-05
6.92321e-08
-6.49031e-11
-1.80353e-05
8.33957e-08
-8.85393e-11
-1.8136e-05
1.00846e-07
-1.19135e-10
-1.82512e-05
1.15345e-07
-1.51597e-10
-1.83684e-05
1.17333e-07
-1.76386e-10
-1.8461e-05
9.27633e-08
-1.76941e-10
-1.84837e-05
2.28742e-08
-1.29752e-10
-1.83689e-05
-1.14774e-07
-1.64201e-11
-1.80308e-05
-3.38338e-07
2.28742e-10
-1.73751e-05
-6.56335e-07
6.42256e-10
-1.05341e-06
1.25134e-09
-1.6323e-05
-3.9204e-05
3.67566e-06
1.53236e-09
-4.11076e-05
2.68111e-06
1.2744e-09
-4.24298e-05
1.8539e-06
9.93328e-10
-4.3311e-05
1.22797e-06
7.39756e-10
-4.38821e-05
7.90089e-07
5.31196e-10
-4.42498e-05
5.05307e-07
3.74584e-10
-4.44943e-05
3.35111e-07
2.67782e-10
-4.46728e-05