/*--------------------------------*- C++ -*----------------------------------*\
| =========                 |                                                 |
| \\      /  F ield         | OpenFOAM: The Open Source CFD Toolbox           |
|  \\    /   O peration     | Version:  2.4.0                                 |
|   \\  /    A nd           | Web:      www.OpenFOAM.org                      |
|    \\/     M anipulation  |                                                 |
\*---------------------------------------------------------------------------*/
FoamFile
{
    version     2.0;
    format      ascii;
    class       volVectorField;
    location    "0.7";
    object      U;
}
// * * * * * * * * * * * * * * * * * * * * * * * * * * * * * * * * * * * * * //

dimensions      [0 1 -1 0 0 0 0];

internalField   nonuniform List<vector> 
4800
(
(0.000176405 -0.00017917 3.20675e-08)
(-0.000246866 0.00022348 0.000169371)
(-0.00192194 0.000616296 0.000304513)
(-0.00439044 0.000861137 0.000369024)
(-0.00735722 0.00099003 0.000330049)
(-0.0105736 0.00103804 0.000173654)
(-0.0138383 0.00102604 -0.000103041)
(-0.0169817 0.000963028 -0.000497539)
(-0.019851 0.000853446 -0.00100256)
(-0.0223139 0.000706093 -0.00160499)
(-0.000240421 0.000249244 -0.000169484)
(-0.00227107 0.00222161 1.82146e-06)
(-0.00681328 0.00397399 9.58582e-05)
(-0.0129602 0.00516083 0.000110077)
(-0.0201467 0.00584436 3.2042e-05)
(-0.0278928 0.00611992 -0.000150069)
(-0.0357539 0.0060548 -0.000440011)
(-0.0433251 0.00568756 -0.000837204)
(-0.0502354 0.0050519 -0.00133724)
(-0.05617 0.00420955 -0.001931)
(-0.000677236 0.00199628 -0.000305684)
(-0.00420319 0.00682334 -8.86563e-05)
(-0.0111489 0.010797 5.0706e-06)
(-0.0201521 0.0135603 4.03546e-06)
(-0.0304768 0.015206 -8.62404e-05)
(-0.0415257 0.0158824 -0.000273463)
(-0.0527103 0.0157008 -0.000560181)
(-0.0634639 0.0147351 -0.000946796)
(-0.0732454 0.0130703 -0.00143162)
(-0.0815786 0.0108727 -0.00200933)
(-0.000981806 0.0046704 -0.000360269)
(-0.00563999 0.0132539 -8.60019e-05)
(-0.0144384 0.0199217 2.27283e-05)
(-0.0255863 0.0245402 2.21247e-05)
(-0.0382157 0.0273118 -6.85195e-05)
(-0.0516637 0.0284479 -0.000253454)
(-0.0652548 0.0280869 -0.000534367)
(-0.0783033 0.0263147 -0.000913274)
(-0.0901128 0.0232554 -0.00139221)
(-0.100022 0.0191983 -0.00197103)
(-0.00116391 0.00799192 -0.000285167)
(-0.00655711 0.0209874 3.73973e-05)
(-0.0165985 0.0306764 0.000160957)
(-0.0291903 0.0373244 0.000166611)
(-0.0433762 0.0413228 8.25858e-05)
(-0.0584621 0.0429615 -9.36275e-05)
(-0.0737235 0.0423821 -0.000364492)
(-0.0883833 0.0396386 -0.000735483)
(-0.101586 0.0348464 -0.00121478)
(-0.112417 0.0284006 -0.00181196)
(-0.00124172 0.011679 -5.38263e-05)
(-0.00698093 0.0295022 0.00030496)
(-0.0176358 0.0424371 0.000439755)
(-0.0309608 0.0512471 0.000455448)
(-0.0459662 0.0565672 0.000384709)
(-0.0619604 0.0587777 0.000225001)
(-0.0782077 0.0579944 -2.90211e-05)
(-0.0938728 0.0541732 -0.000388938)
(-0.107947 0.0473263 -0.000872951)
(-0.119149 0.037863 -0.00151093)
(-0.00122754 0.0154652 0.000343023)
(-0.00693989 0.0382581 0.000725757)
(-0.0175761 0.0545315 0.000866835)
(-0.030901 0.0655773 0.000895566)
(-0.045945 0.0723012 0.000845445)
(-0.0620508 0.0751794 0.000712694)
(-0.0785142 0.0742731 0.000487121)
(-0.094499 0.0693581 0.000148163)
(-0.108904 0.0601861 -0.000336943)
(-0.119961 0.046934 -0.00104129)
(-0.00113003 0.0191037 0.000901516)
(-0.00646439 0.0467267 0.00129688)
(-0.016464 0.0662727 0.00143923)
(-0.0290355 0.0795339 0.00148407)
(-0.043263 0.0876864 0.00146322)
(-0.0585362 0.0913093 0.00137159)
(-0.0742122 0.0903977 0.00119324)
(-0.0895301 0.0844757 0.000896779)
(-0.103479 0.0728276 0.000433172)
(-0.113758 0.0548606 -0.000357418)
(-0.000960193 0.0223681 0.00160562)
(-0.00560672 0.0544109 0.00200429)
(-0.0144056 0.0769836 0.00214354)
(-0.0254926 0.0922942 0.00220744)
(-0.0380008 0.101762 0.00222491)
(-0.0513308 0.106082 0.0021909)
(-0.0648661 0.105222 0.00208447)
(-0.0779378 0.0984751 0.00186218)
(-0.0899364 0.0845705 0.00146416)
(-0.098361 0.0613821 0.000568134)
(-0.000738316 0.0250711 0.00242795)
(-0.00446767 0.0608882 0.00282394)
(-0.0116301 0.0860541 0.0029565)
(-0.0206279 0.103051 0.00304133)
(-0.0305949 0.113468 0.00310497)
(-0.0408296 0.118096 0.00314719)
(-0.0505522 0.116919 0.0031504)
(-0.0588788 0.109109 0.00306975)
(-0.0656057 0.0930707 0.00288197)
(-0.0696336 0.0655371 0.00208814)
(0.000180615 -0.000183142 3.21607e-08)
(-0.000241151 0.000218143 1.16653e-06)
(-0.00191922 0.0006046 1.61786e-06)
(-0.00438849 0.000845266 2.06054e-06)
(-0.00735623 0.000972104 2.29551e-06)
(-0.0105734 0.00101923 2.37455e-06)
(-0.0138386 0.00100738 2.35841e-06)
(-0.0169827 0.000945485 2.24444e-06)
(-0.0198529 0.000837813 2.01603e-06)
(-0.0223166 0.000692835 1.66094e-06)
(-0.000234433 0.000243373 -1.02342e-06)
(-0.00226873 0.00221955 1.65794e-07)
(-0.00681917 0.00396498 -1.10057e-06)
(-0.0129634 0.00514808 -1.56644e-06)
(-0.0201481 0.0058305 -1.76992e-06)
(-0.0278932 0.00610567 -1.90194e-06)
(-0.0357532 0.00604082 -1.88956e-06)
(-0.0433237 0.00567455 -1.75401e-06)
(-0.0502341 0.00504047 -1.54465e-06)
(-0.0561693 0.00419974 -1.34058e-06)
(-0.000664679 0.0019926 -1.58286e-06)
(-0.00419435 0.00682854 1.37768e-06)
(-0.0111541 0.0108004 3.14064e-08)
(-0.0201536 0.0135639 -7.34496e-08)
(-0.0304766 0.015211 7.33115e-08)
(-0.0415255 0.0158881 7.83373e-08)
(-0.0527097 0.0157068 8.76262e-08)
(-0.0634632 0.0147412 1.1737e-07)
(-0.0732455 0.0130764 1.46326e-07)
(-0.0815804 0.0108777 7.63826e-08)
(-0.000964598 0.00466745 -2.17399e-06)
(-0.00562746 0.0132566 1.83754e-06)
(-0.0144447 0.0199216 1.12992e-08)
(-0.0255874 0.0245392 -1.15105e-07)
(-0.0382147 0.0273112 1.20783e-07)
(-0.051663 0.0284476 1.59448e-07)
(-0.0652538 0.028087 1.88875e-07)
(-0.0783021 0.0263155 2.45051e-07)
(-0.090113 0.0232576 3.4313e-07)
(-0.100026 0.0192005 2.84306e-07)
(-0.00114413 0.00799033 -2.52625e-06)
(-0.00654337 0.0209887 2.06969e-06)
(-0.0166069 0.0306752 -2.06712e-07)
(-0.0291921 0.0373221 -4.44674e-07)
(-0.0433752 0.0413202 -2.11482e-07)
(-0.0584612 0.0429587 -1.76632e-07)
(-0.0737219 0.0423795 -1.31472e-07)
(-0.0883805 0.0396368 -2.08151e-08)
(-0.101585 0.0348479 2.90075e-07)
(-0.112423 0.0284034 4.17711e-07)
(-0.00122074 0.0116787 -2.66239e-06)
(-0.00696679 0.0295028 2.23406e-06)
(-0.0176455 0.0424365 -2.54746e-07)
(-0.0309632 0.0512456 -5.48449e-07)
(-0.0459655 0.0565653 -3.26061e-07)
(-0.0619596 0.0587753 -3.04397e-07)
(-0.0782057 0.0579916 -2.78903e-07)
(-0.0938676 0.0541708 -1.89962e-07)
(-0.107942 0.0473299 4.39993e-07)
(-0.119162 0.037872 1.02682e-06)
(-0.00120669 0.0154661 -2.62981e-06)
(-0.00692612 0.0382579 2.24755e-06)
(-0.0175864 0.0545312 -2.67492e-07)
(-0.0309041 0.0655766 -5.95744e-07)
(-0.0459449 0.0722998 -4.13263e-07)
(-0.0620507 0.0751773 -4.21736e-07)
(-0.0785126 0.0742698 -4.641e-07)
(-0.0944897 0.0693541 -5.73965e-07)
(-0.108892 0.0601941 5.64311e-07)
(-0.119986 0.0469634 2.48685e-06)
(-0.00111058 0.0191057 -2.42795e-06)
(-0.00645175 0.0467259 2.12671e-06)
(-0.0164742 0.066273 -2.50691e-07)
(-0.0290391 0.0795342 -5.92384e-07)
(-0.0432637 0.0876857 -4.66147e-07)
(-0.0585372 0.0913071 -4.77317e-07)
(-0.0742118 0.0903919 -5.27806e-07)
(-0.0895129 0.0844613 -9.60641e-07)
(-0.103439 0.072822 1.52792e-06)
(-0.113797 0.0549062 8.83677e-06)
(-0.000943189 0.0223712 -2.05957e-06)
(-0.00559581 0.05441 1.9144e-06)
(-0.0144149 0.0769849 -1.84981e-07)
(-0.0254967 0.0922964 -5.2716e-07)
(-0.0380031 0.101764 -5.13987e-07)
(-0.0513354 0.106083 -6.28945e-07)
(-0.0648758 0.105216 -9.16887e-07)
(-0.0779255 0.0984446 -2.93381e-06)
(-0.0898555 0.084506 -6.5082e-07)
(-0.0984021 0.0613502 1.98056e-05)
(-0.000724438 0.025075 -1.54946e-06)
(-0.00445863 0.0608874 1.66774e-06)
(-0.0116374 0.0860568 -3.0596e-08)
(-0.0206311 0.103056 -3.14328e-07)
(-0.0305973 0.113477 -3.99395e-07)
(-0.0408372 0.118112 -7.28769e-07)
(-0.0505807 0.11695 -1.67248e-06)
(-0.0589138 0.109158 -8.12004e-06)
(-0.0655416 0.0931191 -1.80854e-05)
(-0.0697 0.0656244 4.21228e-06)
(0.000180615 -0.000183142 -3.28998e-08)
(-0.000241151 0.000218143 -1.16518e-06)
(-0.00191922 0.0006046 -1.61675e-06)
(-0.00438848 0.000845266 -2.05993e-06)
(-0.00735622 0.000972104 -2.29486e-06)
(-0.0105734 0.00101923 -2.37389e-06)
(-0.0138386 0.00100738 -2.35777e-06)
(-0.0169827 0.000945485 -2.24377e-06)
(-0.0198529 0.000837813 -2.01549e-06)
(-0.0223166 0.000692835 -1.66053e-06)
(-0.000234432 0.000243375 1.02385e-06)
(-0.00226872 0.00221955 -1.64226e-07)
(-0.00681917 0.00396498 1.10209e-06)
(-0.0129634 0.00514807 1.56781e-06)
(-0.0201481 0.0058305 1.77135e-06)
(-0.0278932 0.00610567 1.90333e-06)
(-0.0357532 0.00604081 1.89079e-06)
(-0.0433236 0.00567455 1.75505e-06)
(-0.0502341 0.00504047 1.54549e-06)
(-0.0561692 0.00419973 1.34128e-06)
(-0.000664678 0.0019926 1.58516e-06)
(-0.00419434 0.00682853 -1.3751e-06)
(-0.0111541 0.0108004 -2.91214e-08)
(-0.0201535 0.0135639 7.54951e-08)
(-0.0304766 0.015211 -7.13471e-08)
(-0.0415255 0.0158881 -7.64923e-08)
(-0.0527097 0.0157068 -8.60488e-08)
(-0.0634631 0.0147412 -1.16011e-07)
(-0.0732455 0.0130764 -1.45197e-07)
(-0.0815804 0.0108777 -7.54335e-08)
(-0.000964597 0.00466745 2.17753e-06)
(-0.00562745 0.0132566 -1.83429e-06)
(-0.0144447 0.0199216 -8.47601e-09)
(-0.0255874 0.0245391 1.17659e-07)
(-0.0382146 0.0273112 -1.18343e-07)
(-0.051663 0.0284476 -1.57276e-07)
(-0.0652538 0.0280869 -1.87021e-07)
(-0.0783021 0.0263155 -2.43458e-07)
(-0.090113 0.0232576 -3.41834e-07)
(-0.100026 0.0192005 -2.83223e-07)
(-0.00114413 0.00799033 2.5301e-06)
(-0.00654337 0.0209887 -2.06623e-06)
(-0.0166069 0.0306752 2.09804e-07)
(-0.029192 0.0373221 4.47455e-07)
(-0.0433752 0.0413202 2.14105e-07)
(-0.0584612 0.0429587 1.79049e-07)
(-0.0737219 0.0423795 1.33546e-07)
(-0.0883805 0.0396368 2.25491e-08)
(-0.101585 0.0348479 -2.8866e-07)
(-0.112423 0.0284034 -4.16565e-07)
(-0.00122074 0.0116787 2.66641e-06)
(-0.00696679 0.0295028 -2.23042e-06)
(-0.0176455 0.0424365 2.58023e-07)
(-0.0309632 0.0512456 5.51481e-07)
(-0.0459655 0.0565653 3.28856e-07)
(-0.0619596 0.0587753 3.06947e-07)
(-0.0782057 0.0579916 2.8114e-07)
(-0.0938675 0.0541708 1.91819e-07)
(-0.107942 0.0473299 -4.38379e-07)
(-0.119161 0.037872 -1.02555e-06)
(-0.00120669 0.0154661 2.63378e-06)
(-0.00692612 0.0382579 -2.24387e-06)
(-0.0175863 0.0545312 2.70897e-07)
(-0.030904 0.0655766 5.98907e-07)
(-0.0459449 0.0722997 4.16193e-07)
(-0.0620507 0.0751772 4.24338e-07)
(-0.0785125 0.0742698 4.66395e-07)
(-0.0944897 0.069354 5.75988e-07)
(-0.108892 0.0601941 -5.6257e-07)
(-0.119986 0.0469634 -2.48561e-06)
(-0.00111058 0.0191057 2.43165e-06)
(-0.00645175 0.0467258 -2.12312e-06)
(-0.0164741 0.0662729 2.54031e-07)
(-0.0290391 0.0795342 5.95496e-07)
(-0.0432637 0.0876856 4.69058e-07)
(-0.0585372 0.0913071 4.79918e-07)
(-0.0742118 0.0903919 5.30044e-07)
(-0.0895128 0.0844612 9.62618e-07)
(-0.103439 0.072822 -1.52625e-06)
(-0.113797 0.0549062 -8.83538e-06)
(-0.000943188 0.0223712 2.06301e-06)
(-0.00559581 0.05441 -1.91095e-06)
(-0.0144149 0.0769848 1.88251e-07)
(-0.0254967 0.0922963 5.3022e-07)
(-0.0380031 0.101764 5.16767e-07)
(-0.0513354 0.106083 6.3132e-07)
(-0.0648758 0.105216 9.18993e-07)
(-0.0779255 0.0984446 2.93569e-06)
(-0.0898554 0.084506 6.52432e-07)
(-0.0984021 0.0613502 -1.98042e-05)
(-0.000724437 0.025075 1.55266e-06)
(-0.00445863 0.0608874 -1.66445e-06)
(-0.0116374 0.0860567 3.37195e-08)
(-0.0206311 0.103056 3.17128e-07)
(-0.0305973 0.113477 4.01844e-07)
(-0.0408372 0.118112 7.30967e-07)
(-0.0505807 0.11695 1.67459e-06)
(-0.0589138 0.109158 8.12181e-06)
(-0.0655416 0.0931191 1.8087e-05)
(-0.0697 0.0656244 -4.21077e-06)
(0.000176406 -0.00017917 -3.12905e-08)
(-0.000246864 0.00022348 -0.000169373)
(-0.00192194 0.000616296 -0.000304514)
(-0.00439044 0.000861136 -0.000369025)
(-0.00735721 0.000990029 -0.00033005)
(-0.0105736 0.00103804 -0.000173655)
(-0.0138382 0.00102603 0.000103041)
(-0.0169817 0.000963027 0.000497538)
(-0.019851 0.000853445 0.00100256)
(-0.0223138 0.000706092 0.00160499)
(-0.000240419 0.000249245 0.000169483)
(-0.00227106 0.00222161 -1.82312e-06)
(-0.00681327 0.00397398 -9.58599e-05)
(-0.0129602 0.00516082 -0.000110079)
(-0.0201467 0.00584435 -3.20435e-05)
(-0.0278928 0.00611991 0.000150068)
(-0.0357538 0.00605479 0.00044001)
(-0.043325 0.00568755 0.000837203)
(-0.0502354 0.00505189 0.00133724)
(-0.0561699 0.00420955 0.001931)
(-0.000677233 0.00199628 0.000305681)
(-0.00420318 0.00682334 8.86535e-05)
(-0.0111489 0.010797 -5.07302e-06)
(-0.0201521 0.0135603 -4.03762e-06)
(-0.0304768 0.015206 8.62383e-05)
(-0.0415257 0.0158823 0.000273461)
(-0.0527102 0.0157008 0.000560179)
(-0.0634638 0.0147351 0.000946794)
(-0.0732453 0.0130703 0.00143162)
(-0.0815785 0.0108727 0.00200933)
(-0.000981803 0.00467039 0.000360265)
(-0.00563998 0.0132539 8.59984e-05)
(-0.0144384 0.0199216 -2.27312e-05)
(-0.0255863 0.0245401 -2.21274e-05)
(-0.0382156 0.0273118 6.85169e-05)
(-0.0516636 0.0284479 0.000253452)
(-0.0652547 0.0280869 0.000534365)
(-0.0783032 0.0263147 0.000913272)
(-0.0901127 0.0232553 0.00139221)
(-0.100022 0.0191983 0.00197102)
(-0.00116391 0.00799191 0.000285163)
(-0.0065571 0.0209874 -3.7401e-05)
(-0.0165985 0.0306763 -0.000160961)
(-0.0291903 0.0373244 -0.000166613)
(-0.0433761 0.0413228 -8.25886e-05)
(-0.058462 0.0429614 9.3625e-05)
(-0.0737234 0.0423821 0.000364489)
(-0.0883832 0.0396385 0.000735481)
(-0.101586 0.0348464 0.00121478)
(-0.112417 0.0284006 0.00181196)
(-0.00124171 0.011679 5.38221e-05)
(-0.00698092 0.0295022 -0.000304964)
(-0.0176358 0.042437 -0.000439758)
(-0.0309607 0.051247 -0.000455451)
(-0.0459661 0.0565672 -0.000384712)
(-0.0619603 0.0587777 -0.000225004)
(-0.0782076 0.0579943 2.90187e-05)
(-0.0938727 0.0541731 0.000388936)
(-0.107947 0.0473263 0.000872949)
(-0.119149 0.037863 0.00151093)
(-0.00122753 0.0154652 -0.000343027)
(-0.00693988 0.0382581 -0.000725761)
(-0.0175761 0.0545314 -0.000866839)
(-0.030901 0.0655772 -0.00089557)
(-0.0459449 0.0723011 -0.000845448)
(-0.0620508 0.0751794 -0.000712696)
(-0.0785141 0.074273 -0.000487123)
(-0.0944989 0.069358 -0.000148166)
(-0.108904 0.0601861 0.000336941)
(-0.119961 0.046934 0.00104129)
(-0.00113002 0.0191036 -0.00090152)
(-0.00646437 0.0467266 -0.00129688)
(-0.016464 0.0662726 -0.00143923)
(-0.0290355 0.0795338 -0.00148407)
(-0.0432629 0.0876863 -0.00146322)
(-0.0585362 0.0913092 -0.00137159)
(-0.0742121 0.0903977 -0.00119324)
(-0.08953 0.0844756 -0.000896781)
(-0.103479 0.0728275 -0.000433174)
(-0.113758 0.0548606 0.000357417)
(-0.00096019 0.022368 -0.00160562)
(-0.00560671 0.0544109 -0.00200429)
(-0.0144056 0.0769835 -0.00214354)
(-0.0254926 0.0922942 -0.00220745)
(-0.0380008 0.101762 -0.00222491)
(-0.0513307 0.106082 -0.00219091)
(-0.0648661 0.105222 -0.00208447)
(-0.0779378 0.098475 -0.00186219)
(-0.0899363 0.0845705 -0.00146416)
(-0.098361 0.0613821 -0.000568136)
(-0.000738313 0.0250711 -0.00242796)
(-0.00446766 0.0608881 -0.00282394)
(-0.0116301 0.086054 -0.0029565)
(-0.0206278 0.103051 -0.00304134)
(-0.0305949 0.113468 -0.00310497)
(-0.0408295 0.118096 -0.0031472)
(-0.0505522 0.116918 -0.00315041)
(-0.0588788 0.109109 -0.00306975)
(-0.0656057 0.0930707 -0.00288198)
(-0.0696336 0.0655371 -0.00208814)
(-0.0242847 0.000540855 -0.0022854)
(-0.0257537 0.000384982 -0.00302079)
(-0.0267818 0.000256713 -0.0037907)
(-0.0274643 0.000161906 -0.00457994)
(-0.0278993 9.80755e-05 -0.0053786)
(-0.0281709 5.89877e-05 -0.00618107)
(-0.0283434 3.79923e-05 -0.00698472)
(-0.0284633 2.96941e-05 -0.00778887)
(-0.028563 3.0344e-05 -0.00859406)
(-0.0286653 3.75316e-05 -0.00940171)
(-0.0287856 4.95461e-05 -0.0102141)
(-0.0289331 6.4564e-05 -0.0110342)
(-0.0291089 7.97197e-05 -0.0118661)
(-0.029302 9.01224e-05 -0.0127143)
(-0.0294827 8.80047e-05 -0.0135837)
(-0.0295948 6.24622e-05 -0.0144784)
(-0.0295476 3.72162e-07 -0.0154003)
(-0.029216 -0.000111754 -0.0163455)
(-0.0284499 -0.000280231 -0.0173026)
(-0.0271013 -0.000498001 -0.0182498)
(-0.06093 0.00327385 -0.00260364)
(-0.0644996 0.00238789 -0.00333586)
(-0.0670275 0.00164761 -0.00411029)
(-0.0687364 0.00108641 -0.00491311)
(-0.069852 0.00069443 -0.00573406)
(-0.0705672 0.000441153 -0.00656626)
(-0.071031 0.000292105 -0.00740548)
(-0.0713512 0.000217618 -0.00824951)
(-0.0716032 0.000195278 -0.00909763)
(-0.071838 0.00020873 -0.00995023)
(-0.0720878 0.000244657 -0.0108087)
(-0.0723674 0.000288874 -0.011675)
(-0.0726704 0.000321979 -0.0125522)
(-0.0729612 0.000315049 -0.0134433)
(-0.0731623 0.000226403 -0.0143514)
(-0.0731395 1.47435e-06 -0.0152785)
(-0.0726901 -0.000421501 -0.016224)
(-0.0715424 -0.0010966 -0.0171836)
(-0.0693783 -0.00204292 -0.0181458)
(-0.0658924 -0.00321296 -0.0190912)
(-0.0881587 0.00844323 -0.00266763)
(-0.092988 0.00615991 -0.00338619)
(-0.0963363 0.00426366 -0.00414827)
(-0.09856 0.00282973 -0.00494078)
(-0.0999923 0.00182573 -0.00575368)
(-0.100902 0.0011708 -0.0065799)
(-0.101486 0.000776696 -0.00741486)
(-0.101883 0.000567976 -0.00825586)
(-0.102187 0.000487075 -0.00910165)
(-0.102458 0.000490926 -0.00995207)
(-0.102732 0.000543603 -0.0108079)
(-0.103025 0.00060712 -0.0116705)
(-0.103325 0.000631465 -0.012542)
(-0.103584 0.000544912 -0.0134247)
(-0.103703 0.000246972 -0.014321)
(-0.10351 -0.000391534 -0.0152325)
(-0.102742 -0.0015151 -0.0161592)
(-0.10104 -0.00324643 -0.0170978)
(-0.0979645 -0.00562667 -0.0180396)
(-0.093071 -0.00853658 -0.0189688)
(-0.107581 0.0147195 -0.00263901)
(-0.112847 0.0105847 -0.00336722)
(-0.116298 0.00722873 -0.00413681)
(-0.118472 0.00474473 -0.0049347)
(-0.119807 0.00303544 -0.00575098)
(-0.12062 0.00193331 -0.00657903)
(-0.121124 0.00127218 -0.00741463)
(-0.121456 0.000917264 -0.00825533)
(-0.121703 0.000768982 -0.00909986)
(-0.121918 0.000754361 -0.0099479)
(-0.122132 0.000813459 -0.0107998)
(-0.122358 0.000883765 -0.0116565)
(-0.122587 0.000883655 -0.0125194)
(-0.122775 0.000695989 -0.0133905)
(-0.122832 0.000154904 -0.014272)
(-0.122593 -0.000957418 -0.0151661)
(-0.121782 -0.002893 -0.0160746)
(-0.119993 -0.00588107 -0.0169975)
(-0.116677 -0.0100244 -0.017931)
(-0.111198 -0.0151474 -0.0188651)
(-0.120169 0.02126 -0.00251929)
(-0.125011 0.0148632 -0.00328326)
(-0.127816 0.00987655 -0.00408072)
(-0.12937 0.0063258 -0.00489911)
(-0.130208 0.00396342 -0.00572931)
(-0.130658 0.00248074 -0.00656612)
(-0.130906 0.00160805 -0.00740671)
(-0.131054 0.00114348 -0.00824957)
(-0.131158 0.000946523 -0.00909401)
(-0.131249 0.00091909 -0.00993979)
(-0.131344 0.000983721 -0.0107871)
(-0.131452 0.00106125 -0.0116363)
(-0.131572 0.00104767 -0.0124884)
(-0.131686 0.000790068 -0.0133447)
(-0.131741 6.36418e-05 -0.0142074)
(-0.131624 -0.00144306 -0.0150796)
(-0.131106 -0.00411596 -0.0159659)
(-0.129785 -0.0083515 -0.0168715)
(-0.127016 -0.0144083 -0.0178004)
(-0.121882 -0.0221419 -0.0187539)
(-0.126261 0.0272451 -0.00230689)
(-0.129691 0.0181845 -0.00314197)
(-0.131049 0.0115577 -0.00398991)
(-0.131453 0.00711399 -0.0048433)
(-0.131472 0.00430836 -0.00569612)
(-0.131372 0.00262231 -0.00654666)
(-0.131258 0.00166336 -0.00739499)
(-0.131159 0.00116646 -0.00824147)
(-0.13108 0.000961614 -0.00908642)
(-0.131014 0.000938387 -0.00993002)
(-0.13096 0.00101483 -0.0107723)
(-0.130922 0.0011096 -0.0116131)
(-0.130908 0.00111392 -0.0124527)
(-0.130936 0.000860364 -0.0132915)
(-0.131019 8.70665e-05 -0.0141312)
(-0.13114 -0.00159855 -0.0149759)
(-0.131193 -0.00473607 -0.015833)
(-0.130877 -0.0099705 -0.0167142)
(-0.129527 -0.0178877 -0.017635)
(-0.125841 -0.0286049 -0.0186214)
(-0.125393 0.0316186 -0.00201527)
(-0.126168 0.0195808 -0.00296947)
(-0.125276 0.011615 -0.00388958)
(-0.124141 0.00673108 -0.00478752)
(-0.123192 0.00387538 -0.00566595)
(-0.122506 0.0022655 -0.00653046)
(-0.122038 0.00139642 -0.00738594)
(-0.121714 0.000966824 -0.00823539)
(-0.121471 0.000802485 -0.00908041)
(-0.121264 0.000800518 -0.00992156)
(-0.121068 0.000891056 -0.0107586)
(-0.120878 0.00100774 -0.0115908)
(-0.120711 0.00105924 -0.0124172)
(-0.120616 0.000894778 -0.0132369)
(-0.12068 0.000256959 -0.0140503)
(-0.121018 -0.0012832 -0.0148609)
(-0.121727 -0.00440023 -0.0156787)
(-0.122771 -0.0100513 -0.0165219)
(-0.123696 -0.0193979 -0.0174218)
(-0.122831 -0.0333359 -0.018453)
(-0.115876 0.0327235 -0.00168023)
(-0.112431 0.0178071 -0.00281181)
(-0.108722 0.00945623 -0.00381682)
(-0.106061 0.00499655 -0.00475824)
(-0.104327 0.00266817 -0.00565587)
(-0.10325 0.00147313 -0.00652786)
(-0.102584 0.000876185 -0.00738575)
(-0.102149 0.000602749 -0.00823522)
(-0.101827 0.000513642 -0.00907879)
(-0.101544 0.000536381 -0.00991705)
(-0.101257 0.000627696 -0.0107492)
(-0.100949 0.000749444 -0.0115736)
(-0.100636 0.000846737 -0.0123875)
(-0.100376 0.000818987 -0.0131884)
(-0.100304 0.000471996 -0.013974)
(-0.100654 -0.000567806 -0.0147455)
(-0.101765 -0.00299534 -0.0155138)
(-0.104053 -0.00801732 -0.0163023)
(-0.107778 -0.017603 -0.0171557)
(-0.111421 -0.0344793 -0.018232)
(-0.093729 0.0285223 -0.00151952)
(-0.0845187 0.0120612 -0.0028364)
(-0.0784586 0.00518726 -0.00386155)
(-0.0751813 0.00230413 -0.00480031)
(-0.0733872 0.00106871 -0.00568725)
(-0.0723953 0.000533517 -0.00654866)
(-0.0718299 0.000303199 -0.00739903)
(-0.0714741 0.000214289 -0.0082436)
(-0.0712056 0.00019942 -0.00908381)
(-0.0709532 0.000230385 -0.0099192)
(-0.0706731 0.000294364 -0.0107479)
(-0.0703417 0.000382215 -0.0115669)
(-0.0699577 0.000479112 -0.0123716)
(-0.0695582 0.000550483 -0.0131564)
(-0.0692546 0.000512709 -0.0139145)
(-0.0692917 0.00016469 -0.0146414)
(-0.0701222 -0.00098 -0.015343)
(-0.0726191 -0.00406882 -0.0160319)
(-0.0784867 -0.0117422 -0.0167363)
(-0.0883315 -0.0299746 -0.0177487)
(-0.0491298 0.0178717 -0.00201232)
(-0.0364166 0.00503941 -0.00326317)
(-0.0314028 0.00148029 -0.00398375)
(-0.0296947 0.000441197 -0.00471999)
(-0.0290044 0.000129494 -0.00547603)
(-0.0286859 3.98601e-05 -0.00624647)
(-0.0285222 1.82172e-05 -0.00702819)
(-0.0284168 1.79453e-05 -0.00781621)
(-0.0283242 2.6212e-05 -0.00860639)
(-0.0282183 4.05214e-05 -0.00939531)
(-0.0280802 6.1563e-05 -0.0101794)
(-0.0278932 9.10345e-05 -0.0109539)
(-0.0276431 0.000130515 -0.0117124)
(-0.0273227 0.000179077 -0.0124451)
(-0.0269462 0.000225772 -0.0131373)
(-0.0265883 0.000225083 -0.0137674)
(-0.0264712 5.29353e-06 -0.0143095)
(-0.0272896 -0.00103581 -0.0147331)
(-0.0317564 -0.00494591 -0.0149679)
(-0.0456553 -0.0193176 -0.0155219)
(-0.0242876 0.000530066 1.22196e-06)
(-0.0257561 0.000376717 8.30397e-07)
(-0.0267835 0.000250727 5.30049e-07)
(-0.0274653 0.000157754 3.1843e-07)
(-0.0278999 9.52869e-05 1.81813e-07)
(-0.0281711 5.71377e-05 1.0097e-07)
(-0.0283435 3.67357e-05 5.83347e-08)
(-0.0284633 2.87692e-05 4.09164e-08)
(-0.0285629 2.95623e-05 4.00562e-08)
(-0.0286651 3.67644e-05 5.04974e-08)
(-0.0287853 4.87183e-05 6.90487e-08)
(-0.0289328 6.36573e-05 9.29673e-08)
(-0.0291086 7.879e-05 1.18163e-07)
(-0.0293017 8.93274e-05 1.37326e-07)
(-0.0294825 8.76368e-05 1.37694e-07)
(-0.0295948 6.2972e-05 1.00964e-07)
(-0.0295482 2.33373e-06 1.28855e-08)
(-0.0292174 -0.000107559 -1.77741e-07)
(-0.0284525 -0.000273057 -4.99414e-07)
(-0.0271049 -0.000487442 -9.73334e-07)
(-0.0609294 0.00326516 -1.19128e-06)
(-0.0644983 0.00238087 -9.90633e-07)
(-0.0670259 0.00164237 -7.72101e-07)
(-0.0687347 0.00108269 -5.75025e-07)
(-0.0698505 0.000691899 -4.12953e-07)
(-0.070566 0.000439466 -2.91291e-07)
(-0.0710302 0.000290973 -2.08336e-07)
(-0.0713507 0.000216816 -1.57947e-07)
(-0.0716029 0.000194643 -1.32325e-07)
(-0.0718378 0.000208145 -1.23569e-07)
(-0.0720876 0.000244048 -1.23445e-07)
(-0.072367 0.000288208 -1.2221e-07)
(-0.0726697 0.000321277 -1.07443e-07)
(-0.0729601 0.000314408 -6.31756e-08)
(-0.0731607 0.000226024 2.98771e-08)
(-0.0731372 1.68182e-06 1.91315e-07)
(-0.0726873 -0.000420245 4.23431e-07)
(-0.0715393 -0.00109363 7.38061e-07)
(-0.0693758 -0.00203763 1.10497e-06)
(-0.0658911 -0.00320543 1.4368e-06)
(-0.0881607 0.00844523 -1.71172e-07)
(-0.0929885 0.00616061 -2.70687e-07)
(-0.0963357 0.004264 -2.80482e-07)
(-0.098559 0.00282993 -2.5639e-07)
(-0.0999912 0.00182589 -2.12031e-07)
(-0.100901 0.00117098 -1.63721e-07)
(-0.101485 0.000776892 -1.21655e-07)
(-0.101883 0.0005682 -8.90124e-08)
(-0.102186 0.000487338 -6.53135e-08)
(-0.102457 0.000491231 -4.83969e-08)
(-0.102732 0.000543937 -3.50771e-08)
(-0.103025 0.000607449 -2.15807e-08)
(-0.103324 0.000631724 -3.86913e-09)
(-0.103583 0.000545008 2.31072e-08)
(-0.103702 0.000246787 6.40834e-08)
(-0.103508 -0.000392145 1.20006e-07)
(-0.102741 -0.0015162 1.86991e-07)
(-0.101038 -0.00324798 2.62701e-07)
(-0.0979641 -0.00562864 3.30106e-07)
(-0.0930729 -0.00854012 2.68076e-07)
(-0.107586 0.0147171 -2.25973e-07)
(-0.112847 0.010582 -3.57306e-07)
(-0.116297 0.0072271 -3.38889e-07)
(-0.118471 0.00474391 -2.94081e-07)
(-0.119806 0.00303518 -2.29764e-07)
(-0.120619 0.00193337 -1.67065e-07)
(-0.121123 0.00127238 -1.16966e-07)
(-0.121456 0.000917514 -8.00571e-08)
(-0.121703 0.000769228 -5.40288e-08)
(-0.121917 0.000754579 -3.59602e-08)
(-0.122132 0.000813625 -2.28786e-08)
(-0.122358 0.000883845 -1.20343e-08)
(-0.122586 0.000883601 -5.22485e-10)
(-0.122774 0.000695761 1.69092e-08)
(-0.122831 0.000154504 4.60015e-08)
(-0.122591 -0.000957926 8.72603e-08)
(-0.121781 -0.00289338 1.45495e-07)
(-0.119991 -0.00588076 2.28307e-07)
(-0.116676 -0.0100225 3.57624e-07)
(-0.111203 -0.0151452 2.97848e-07)
(-0.120176 0.0212527 -6.19364e-07)
(-0.125011 0.0148572 -6.68417e-07)
(-0.127813 0.00987382 -5.10574e-07)
(-0.129368 0.00632481 -3.90315e-07)
(-0.130206 0.00396335 -2.69606e-07)
(-0.130657 0.0024811 -1.7328e-07)
(-0.130905 0.00160852 -1.08743e-07)
(-0.131054 0.00114392 -6.78439e-08)
(-0.131158 0.00094688 -4.30177e-08)
(-0.131249 0.000919354 -2.8802e-08)
(-0.131344 0.000983882 -2.13171e-08)
(-0.131452 0.00106128 -1.78041e-08)
(-0.131572 0.00104754 -1.52991e-08)
(-0.131685 0.000789721 -7.66174e-09)
(-0.13174 6.31119e-05 1.50548e-08)
(-0.131622 -0.00144354 5.88517e-08)
(-0.131104 -0.00411601 1.31525e-07)
(-0.129781 -0.00834994 2.61856e-07)
(-0.127014 -0.0144022 6.08003e-07)
(-0.12189 -0.0221331 7.66158e-07)
(-0.126274 0.0272299 -1.40637e-06)
(-0.129687 0.0181745 -1.11675e-06)
(-0.131043 0.0115547 -6.43346e-07)
(-0.131449 0.0071136 -4.23938e-07)
(-0.131469 0.004309 -2.46263e-07)
(-0.13137 0.00262322 -1.26974e-07)
(-0.131257 0.00166418 -6.22164e-08)
(-0.131159 0.0011671 -2.87483e-08)
(-0.131079 0.000962091 -1.23953e-08)
(-0.131014 0.000938734 -5.73532e-09)
(-0.13096 0.00101507 -4.91551e-09)
(-0.130921 0.00110971 -8.14394e-09)
(-0.130908 0.00111387 -1.44419e-08)
(-0.130936 0.000860061 -2.21721e-08)
(-0.131018 8.6529e-05 -1.88814e-08)
(-0.131138 -0.001599 1.8747e-08)
(-0.13119 -0.00473597 7.65091e-08)
(-0.130869 -0.00996802 2.13373e-07)
(-0.12952 -0.0178762 9.97618e-07)
(-0.125854 -0.0285857 1.85554e-06)
(-0.125418 0.031597 -3.83106e-06)
(-0.126156 0.0195736 -2.35294e-06)
(-0.125264 0.0116174 -1.00063e-06)
(-0.124135 0.00673402 -5.21e-07)
(-0.123189 0.00387773 -2.21266e-07)
(-0.122505 0.00226721 -6.67165e-08)
(-0.122038 0.00139755 -8.16332e-09)
(-0.121714 0.000967573 1.10112e-08)
(-0.121471 0.000803023 1.44934e-08)
(-0.121264 0.000800955 1.11237e-08)
(-0.121068 0.000891448 3.89072e-09)
(-0.120878 0.00100809 -6.84117e-09)
(-0.120711 0.00105948 -2.16751e-08)
(-0.120616 0.000894743 -4.16706e-08)
(-0.120679 0.000256466 -4.85619e-08)
(-0.121016 -0.00128417 1.92835e-08)
(-0.121722 -0.00440207 1.43046e-07)
(-0.122757 -0.0100536 4.00817e-07)
(-0.123678 -0.0193895 2.25999e-06)
(-0.122857 -0.0333099 5.04453e-06)
(-0.115924 0.0326877 -6.6091e-06)
(-0.112404 0.0178146 -2.46244e-06)
(-0.108707 0.00947287 -4.1852e-07)
(-0.106057 0.00500561 -1.88248e-07)
(-0.104326 0.00267261 7.40719e-09)
(-0.10325 0.00147541 8.18962e-08)
(-0.102584 0.000877363 7.56637e-08)
(-0.102149 0.000603431 5.97829e-08)
(-0.101827 0.000514176 4.80456e-08)
(-0.101544 0.000536944 4.00602e-08)
(-0.101257 0.000628379 3.36363e-08)
(-0.100949 0.000750274 2.52807e-08)
(-0.100636 0.00084764 9.22422e-09)
(-0.100377 0.00081968 -2.79375e-08)
(-0.100305 0.000471879 -7.50615e-08)
(-0.100654 -0.000569783 -1.90301e-08)
(-0.101764 -0.00300227 5.36984e-08)
(-0.104037 -0.00803412 -2.05665e-07)
(-0.107744 -0.0176112 2.09628e-06)
(-0.11147 -0.0344355 8.2494e-06)
(-0.0937854 0.028362 -8.46512e-06)
(-0.0844615 0.0120158 3.5246e-06)
(-0.0784497 0.00517971 3.78617e-06)
(-0.0751891 0.00229911 1.4905e-06)
(-0.0733914 0.00106508 7.28967e-07)
(-0.0723973 0.000531416 4.192e-07)
(-0.071831 0.000301938 2.33731e-07)
(-0.0714745 0.000213445 1.5127e-07)
(-0.0712057 0.000198777 1.28858e-07)
(-0.070953 0.000229814 1.36995e-07)
(-0.0706729 0.000293797 1.61704e-07)
(-0.0703416 0.000381649 1.9228e-07)
(-0.0699581 0.000478642 2.09508e-07)
(-0.0695594 0.000550376 1.63177e-07)
(-0.069257 0.000513462 -5.40568e-09)
(-0.0692976 0.000166944 -2.56777e-07)
(-0.070135 -0.000976263 -1.08843e-06)
(-0.0726139 -0.0040623 -4.461e-06)
(-0.0784184 -0.0116927 -5.46851e-06)
(-0.0883776 -0.0297815 9.73755e-06)
(-0.049156 0.0177541 -4.4061e-05)
(-0.0362851 0.00498711 -6.3777e-06)
(-0.0313686 0.00145997 -1.85306e-07)
(-0.0296922 0.000429904 -1.06741e-06)
(-0.0290023 0.000123176 -6.70338e-07)
(-0.0286844 3.65497e-05 -2.82567e-07)
(-0.0285216 1.64118e-05 -1.42972e-07)
(-0.0284166 1.68104e-05 -8.84928e-08)
(-0.0283241 2.53225e-05 -6.6274e-08)
(-0.0282183 3.96484e-05 -6.39145e-08)
(-0.0280802 6.05844e-05 -7.38313e-08)
(-0.0278932 8.99221e-05 -8.89029e-08)
(-0.0276431 0.00012939 -9.86969e-08)
(-0.0273224 0.000178356 -8.55192e-08)
(-0.0269451 0.000226347 1.14333e-08)
(-0.0265874 0.000228426 3.64681e-07)
(-0.0264725 1.37403e-05 6.64077e-07)
(-0.0272568 -0.00101717 -1.20868e-06)
(-0.0315947 -0.00489043 3.65923e-06)
(-0.0456518 -0.0191731 5.17916e-05)
(-0.0242876 0.000530066 -1.22153e-06)
(-0.0257561 0.000376717 -8.29824e-07)
(-0.0267835 0.000250727 -5.29373e-07)
(-0.0274653 0.000157754 -3.17863e-07)
(-0.0278999 9.52868e-05 -1.81453e-07)
(-0.0281711 5.71377e-05 -1.00835e-07)
(-0.0283435 3.67359e-05 -5.84225e-08)
(-0.0284632 2.87693e-05 -4.10755e-08)
(-0.0285629 2.95623e-05 -4.02245e-08)
(-0.0286651 3.67644e-05 -5.06139e-08)
(-0.0287853 4.87181e-05 -6.90419e-08)
(-0.0289328 6.36571e-05 -9.28618e-08)
(-0.0291086 7.87898e-05 -1.18117e-07)
(-0.0293017 8.93271e-05 -1.3738e-07)
(-0.0294825 8.76365e-05 -1.3786e-07)
(-0.0295948 6.29719e-05 -1.01134e-07)
(-0.0295482 2.3338e-06 -1.27738e-08)