/*--------------------------------*- C++ -*----------------------------------*\
| =========                 |                                                 |
| \\      /  F ield         | OpenFOAM: The Open Source CFD Toolbox           |
|  \\    /   O peration     | Version:  2.4.0                                 |
|   \\  /    A nd           | Web:      www.OpenFOAM.org                      |
|    \\/     M anipulation  |                                                 |
\*---------------------------------------------------------------------------*/
FoamFile
{
    version     2.0;
    format      ascii;
    class       surfaceScalarField;
    location    "2";
    object      phi;
}
// * * * * * * * * * * * * * * * * * * * * * * * * * * * * * * * * * * * * * //

dimensions      [0 3 -1 0 0 0 0];

internalField   nonuniform List<scalar> 
12720
(
1.37413e-07
-1.377e-07
4.81075e-12
-5.58401e-07
6.94119e-07
1.69663e-09
-2.06371e-06
1.50276e-06
2.54331e-09
-4.13442e-06
2.06745e-06
3.25772e-09
-6.54004e-06
2.40194e-06
3.67884e-09
-9.09145e-06
2.54756e-06
3.84914e-09
-1.1633e-05
2.53769e-06
3.85435e-09
-1.40298e-05
2.39307e-06
3.69629e-09
-1.61639e-05
2.13082e-06
3.35018e-09
1.77907e-06
2.79417e-09
-1.79458e-05
-7.24307e-07
5.88034e-07
-1.42504e-09
-3.25247e-06
3.2219e-06
3.84414e-10
-7.36393e-06
5.61572e-06
-1.49377e-09
-1.26427e-05
7.34856e-06
-2.34693e-09
-1.86524e-05
8.41442e-06
-2.77055e-09
-2.49867e-05
8.88491e-06
-3.03722e-09
-3.12777e-05
8.8317e-06
-3.04367e-09
-3.71933e-05
8.31153e-06
-2.82877e-09
-4.24473e-05
7.38727e-06
-2.48105e-09
6.16417e-06
-2.14005e-09
-4.68302e-05
-1.66037e-06
2.25085e-06
-2.45353e-09
-5.99051e-06
7.54983e-06
2.21484e-09
-1.24012e-05
1.20263e-05
1.04623e-10
-2.03116e-05
1.5259e-05
-8.72913e-11
-2.91532e-05
1.72559e-05
1.21404e-10
-3.83862e-05
1.81177e-05
1.14067e-10
-4.75003e-05
1.79457e-05
1.24753e-10
-5.60179e-05
1.6829e-05
1.8024e-10
-6.35174e-05
1.48865e-05
2.43904e-10
1.23345e-05
1.47448e-10
-6.96879e-05
-2.41995e-06
4.67435e-06
-3.54399e-09
-8.2615e-06
1.33883e-05
3.10152e-09
-1.65638e-05
2.03287e-05
-5.5533e-12
-2.65673e-05
2.52628e-05
-2.61583e-10
-3.75958e-05
2.82843e-05
9.96284e-11
-4.90179e-05
2.95397e-05
1.42494e-10
-6.02223e-05
2.91499e-05
1.82578e-10
-7.06136e-05
2.72199e-05
2.84099e-10
-7.96409e-05
2.39134e-05
4.7447e-10
1.95713e-05
4.1464e-10
-8.68781e-05
-2.95084e-06
7.6295e-06
-4.30997e-09
-9.88637e-06
2.03202e-05
3.62939e-09
-1.95599e-05
3.00026e-05
-4.05844e-10
-3.10636e-05
3.67674e-05
-8.79832e-10
-4.3639e-05
4.08603e-05
-5.20839e-10
-5.65921e-05
4.24932e-05
-4.93199e-10
-6.92379e-05
4.17963e-05
-4.35773e-10
-8.08772e-05
3.88594e-05
-2.45683e-10
-9.08153e-05
3.38512e-05
3.12532e-10
2.72125e-05
5.84963e-10
-9.84571e-05
-3.23409e-06
1.08683e-05
-4.68019e-09
-1.07746e-05
2.78567e-05
4.00495e-09
-2.12146e-05
4.04431e-05
-5.2904e-10
-3.35566e-05
4.91105e-05
-1.1161e-09
-4.69948e-05
5.42992e-05
-7.6338e-10
-6.0803e-05
5.63021e-05
-7.5541e-10
-7.42518e-05
5.52458e-05
-7.35372e-10
-8.65542e-05
5.11624e-05
-5.85252e-10
-9.68491e-05
4.41455e-05
5.28104e-10
3.46275e-05
1.6022e-09
-0.000104266
-3.26388e-06
1.41368e-05
-4.68172e-09
-1.08862e-05
3.54749e-05
4.09842e-09
-2.14326e-05
5.09901e-05
-5.64576e-10
-3.38836e-05
6.15628e-05
-1.21949e-09
-4.74248e-05
6.78413e-05
-9.21451e-10
-6.13313e-05
7.02097e-05
-9.55671e-10
-7.48687e-05
6.87842e-05
-1.05892e-09
-8.72009e-05
6.34958e-05
-1.27322e-09
-9.73019e-05
5.42458e-05
6.90379e-10
4.11879e-05
4.04452e-09
-0.000103866
-3.04817e-06
1.71893e-05
-4.31173e-09
-1.02316e-05
4.26544e-05
3.92667e-09
-2.02073e-05
6.09662e-05
-5.15128e-10
-3.19906e-05
7.33473e-05
-1.18675e-09
-4.47858e-05
8.06375e-05
-9.66889e-10
-5.78938e-05
8.33186e-05
-9.85311e-10
-7.06162e-05
8.15077e-05
-1.1152e-09
-8.21388e-05
7.50205e-05
-1.98386e-09
-9.13545e-05
6.34595e-05
2.00988e-09
4.61659e-05
1.41122e-08
-9.63467e-05
-2.6169e-06
1.98098e-05
-3.5967e-09
-8.89349e-06
4.89274e-05
3.55414e-09
-1.7665e-05
6.97382e-05
-3.56889e-10
-2.80129e-05
8.36962e-05
-9.98231e-10
-3.91571e-05
9.17826e-05
-9.21829e-10
-5.04065e-05
9.45691e-05
-1.01366e-09
-6.10989e-05
9.22014e-05
-1.37707e-09
-7.04942e-05
8.44206e-05
-4.76916e-09
-7.76188e-05
7.05854e-05
-1.37422e-09
4.84935e-05
3.16809e-08
-7.9978e-05
-2.03103e-06
-2.61615e-09
2.18434e-05
-7.0518e-06
3.06947e-09
5.39451e-05
-1.41228e-05
-5.88109e-11
7.68092e-05
-2.23925e-05
-5.69916e-10
9.19664e-05
-3.10511e-05
-6.18939e-10
0.000100442
-3.93142e-05
-9.37424e-10
0.000102833
-4.63988e-05
-2.01627e-09
9.92881e-05
-5.14169e-05
-1.20253e-08
8.94508e-05
-5.32752e-05
-2.79548e-08
7.24716e-05
9.21889e-09
-5.07766e-05
4.59857e-05
1.38961e-07
-1.38925e-07
-3.11399e-11
-5.58983e-07
6.99655e-07
-1.44259e-11
-2.06443e-06
1.508e-06
-5.07937e-12
-4.13454e-06
2.07336e-06
-1.33381e-12
-6.5399e-06
2.40904e-06
2.23992e-13
-9.09129e-06
2.55524e-06
1.02158e-12
-1.16329e-05
2.5455e-06
1.02453e-12
-1.40299e-05
2.40063e-06
8.57699e-13
-1.61643e-05
2.13776e-06
8.49953e-13
1.78487e-06
8.39425e-13
-1.79464e-05
-7.29096e-07
5.8876e-07
-1.33318e-11
-3.25794e-06
3.22889e-06
-7.56288e-12
-7.36875e-06
5.61732e-06
-2.21203e-12
-1.2646e-05
7.34827e-06
-2.07193e-14
-1.8654e-05
8.41422e-06
9.61856e-13
-2.49868e-05
8.88501e-06
1.62645e-12
-3.12765e-05
8.8322e-06
1.62696e-12
-3.71913e-05
8.31258e-06
1.4171e-12
-4.24449e-05
7.3889e-06
1.31514e-12
6.16567e-06
1.22388e-12
-4.68279e-05
-1.66569e-06
2.252e-06
-3.91686e-12
-5.99125e-06
7.55666e-06
-2.16329e-12
-1.2402e-05
1.20282e-05
1.72691e-13
-2.03126e-05
1.52588e-05
1.04215e-12
-2.91537e-05
1.72555e-05
1.56028e-12
-3.83861e-05
1.81176e-05
2.06596e-12
-4.74998e-05
1.7946e-05
2.02808e-12
-5.60172e-05
1.68302e-05
1.76487e-12
-6.3517e-05
1.48889e-05
1.60632e-12
1.23366e-05
1.48948e-12
-6.96877e-05
-2.4266e-06
4.67506e-06
6.7303e-13
-8.2604e-06
1.33936e-05
1.02023e-12
-1.65626e-05
2.03304e-05
1.94843e-12
-2.6567e-05
2.52629e-05
2.12375e-12
-3.75957e-05
2.82842e-05
2.3312e-12
-4.90178e-05
2.95398e-05
2.61546e-12
-6.02221e-05
2.91505e-05
2.46813e-12
-7.06132e-05
2.72216e-05
2.15237e-12
-7.96412e-05
2.39173e-05
1.91152e-12
1.95751e-05
1.69291e-12
-8.68793e-05
-2.9591e-06
7.62985e-06
2.74742e-12
-9.88501e-06
2.03231e-05
2.63622e-12
-1.95583e-05
3.00033e-05
2.91443e-12
-3.10632e-05
3.67669e-05
2.71606e-12
-4.36389e-05
4.08594e-05
2.72982e-12
-5.65921e-05
4.24924e-05
2.88165e-12
-6.92377e-05
4.17957e-05
2.66799e-12
-8.08766e-05
3.88602e-05
2.27634e-12
-9.08155e-05
3.38565e-05
1.9586e-12
2.72195e-05
1.68848e-12
-9.84593e-05
-3.24319e-06
1.08684e-05
3.47608e-12
-1.07732e-05
2.78571e-05
3.2194e-12
-2.1213e-05
4.04426e-05
3.19837e-12
-3.35565e-05
4.91093e-05
2.87949e-12
-4.69953e-05
5.42975e-05
2.83372e-12
-6.08037e-05
5.63001e-05
2.88665e-12
-7.42523e-05
5.52435e-05
2.5976e-12
-8.65536e-05
5.1161e-05
2.15481e-12
-9.68491e-05
4.41525e-05
1.83152e-12
3.46418e-05
1.55716e-12
-0.00010427
-3.27305e-06
1.41367e-05
3.85464e-12
-1.08848e-05
3.54729e-05
3.5836e-12
-2.14312e-05
5.09884e-05
3.40094e-12
-3.38841e-05
6.15609e-05
3.09196e-12
-4.74262e-05
6.78386e-05
3.0069e-12
-6.13334e-05
7.02064e-05
2.92052e-12
-7.48707e-05
6.87798e-05
2.51437e-12
-8.72007e-05
6.34897e-05
2.00817e-12
-9.73007e-05
5.42532e-05
1.70654e-12
4.12195e-05
1.47822e-12
-0.000103874
-3.05667e-06
1.71891e-05
3.91358e-12
-1.02303e-05
4.26505e-05
3.70135e-12
-2.02063e-05
6.09639e-05
3.46949e-12
-3.19917e-05
7.33451e-05
3.21775e-12
-4.47885e-05
8.06344e-05
3.11207e-12
-5.78976e-05
8.33145e-05
2.86568e-12
-7.06203e-05
8.15014e-05
2.32069e-12
-8.21387e-05
7.50061e-05
1.74023e-12
-9.13421e-05
6.34586e-05
1.51368e-12
4.62469e-05
1.41228e-12
-9.63554e-05
-2.62405e-06
1.98095e-05
3.63997e-12
-8.8923e-06
4.89223e-05
3.52198e-12
-1.76644e-05
6.97356e-05
3.31096e-12
-2.80147e-05
8.36945e-05
3.14924e-12
-3.91617e-05
9.17805e-05
3.02219e-12
-5.04147e-05
9.45666e-05
2.6482e-12
-6.11128e-05
9.21981e-05
2.00789e-12
-7.05132e-05
8.44017e-05
1.37658e-12
-7.75951e-05
7.05391e-05
1.28017e-12
4.86088e-05
1.18311e-12
-7.99253e-05
-2.03625e-06
3.21248e-12
2.18431e-05
-7.05033e-06
3.21251e-12
5.39394e-05
-1.41216e-05
3.0428e-12
7.68068e-05
-2.23934e-05
2.9746e-12
9.19657e-05
-3.10558e-05
2.83319e-12
0.000100442
-3.93259e-05
2.44277e-12
0.000102836
-4.6427e-05
1.86615e-12
9.92972e-05
-5.15033e-05
1.3654e-12
8.94659e-05
-5.34126e-05
1.40233e-12
7.24205e-05
1.21776e-12
-5.05532e-05
4.57586e-05
1.38978e-07
-1.38906e-07
-1.03007e-10
-5.58972e-07
6.99663e-07
-1.72705e-09
-2.06443e-06
1.508e-06
-2.55169e-09
-4.13453e-06
2.07336e-06
-3.25927e-09
-6.53989e-06
2.40904e-06
-3.67815e-09
-9.09128e-06
2.55524e-06
-3.84764e-09
-1.16329e-05
2.5455e-06
-3.85243e-09
-1.40299e-05
2.40063e-06
-3.69453e-09
-1.61643e-05
2.13776e-06
-3.34864e-09
1.78486e-06
-2.79274e-09
-1.79463e-05
-7.29087e-07
5.88771e-07
1.39579e-09
-3.25792e-06
3.22889e-06
-3.97902e-10
-7.36874e-06
5.61732e-06
1.48933e-09
-1.2646e-05
7.34826e-06
2.34681e-09
-1.86539e-05
8.41422e-06
2.77214e-09
-2.49867e-05
8.885e-06
3.0393e-09
-3.12765e-05
8.83219e-06
3.04598e-09
-3.71913e-05
8.31258e-06
2.83094e-09
-4.24449e-05
7.3889e-06
2.48296e-09
6.16567e-06
2.14179e-09
-4.68278e-05
-1.66569e-06
2.25201e-06
2.44702e-09
-5.99124e-06
7.55666e-06
-2.21803e-09
-1.2402e-05
1.20282e-05
-1.04817e-10
-2.03126e-05
1.52587e-05
8.91739e-11
-2.91537e-05
1.72554e-05
-1.18766e-10
-3.83861e-05
1.81175e-05
-1.11332e-10
-4.74998e-05
1.7946e-05
-1.21952e-10
-5.60172e-05
1.68302e-05
-1.77632e-10
-6.35169e-05
1.48889e-05
-2.41631e-10
1.23366e-05
-1.4546e-10
-6.96877e-05
-2.4266e-06
4.67506e-06
3.54434e-09
-8.26039e-06
1.33936e-05
-3.1001e-09
-1.65626e-05
2.03304e-05
7.74086e-12
-2.6567e-05
2.52628e-05
2.64697e-10
-3.75956e-05
2.82842e-05
-9.63948e-11
-4.90177e-05
2.95398e-05
-1.39362e-10
-6.0222e-05
2.91505e-05
-1.79461e-10
-7.06132e-05
2.72216e-05
-2.81246e-10
-7.96411e-05
2.39173e-05
-4.72004e-10
1.95751e-05
-4.12535e-10
-8.68792e-05
-2.95909e-06
7.62984e-06
4.31346e-09
-9.885e-06
2.03231e-05
-3.6257e-09
-1.95583e-05
3.00033e-05
4.09496e-10
-3.10632e-05
3.67668e-05
8.83914e-10
-4.36389e-05
4.08594e-05
5.24745e-10
-5.6592e-05
4.24924e-05
4.96843e-10
-6.92377e-05
4.17957e-05
4.39314e-10
-8.08765e-05
3.88602e-05
2.48883e-10
-9.08154e-05
3.38565e-05
-3.09857e-10
2.72195e-05
-5.82776e-10
-9.84592e-05
-3.24318e-06
1.08683e-05
4.68495e-09
-1.07732e-05
2.78571e-05
-4.00017e-09
-2.12129e-05
4.04425e-05
5.33523e-10
-3.35564e-05
4.91092e-05
1.12071e-09
-4.69952e-05
5.42974e-05
7.67705e-10
-6.08037e-05
5.63001e-05
7.59416e-10
-7.42522e-05
5.52435e-05
7.39158e-10
-8.65535e-05
5.11609e-05
5.88578e-10
-9.6849e-05
4.41525e-05
-5.25395e-10
3.46417e-05
-1.60005e-09
-0.00010427
-3.27304e-06
1.41367e-05
4.68679e-09
-1.08847e-05
3.54729e-05
-4.09338e-09
-2.14312e-05
5.09884e-05
5.69296e-10
-3.3884e-05
6.15609e-05
1.22422e-09
-4.74261e-05
6.78386e-05
9.25841e-10
-6.13334e-05
7.02064e-05
9.59712e-10
-7.48707e-05
6.87797e-05
1.06266e-09
-8.72007e-05
6.34897e-05
1.27647e-09
-9.73007e-05
5.42532e-05
-6.87805e-10
4.12195e-05
-4.04256e-09
-0.000103874
-3.05666e-06
1.71891e-05
4.31682e-09
-1.02303e-05
4.26504e-05
-3.92165e-09
-2.02063e-05
6.09638e-05
5.1988e-10
-3.19917e-05
7.33451e-05
1.19146e-09
-4.47884e-05
8.06344e-05
9.71224e-10
-5.78975e-05
8.33145e-05
9.89298e-10
-7.06203e-05
8.15014e-05
1.11885e-09
-8.21387e-05
7.50061e-05
1.98701e-09
-9.1342e-05
6.34586e-05
-2.00743e-09
4.62469e-05
-1.41104e-08
-9.63553e-05
-2.62404e-06
1.98095e-05
3.60153e-09
-8.89229e-06
4.89222e-05
-3.54936e-09
-1.76644e-05
6.97355e-05
3.61499e-10
-2.80147e-05
8.36944e-05
1.00273e-09
-3.91617e-05
9.17804e-05
9.25967e-10
-5.04147e-05
9.45665e-05
1.01745e-09
-6.11128e-05
9.21981e-05
1.38053e-09
-7.05132e-05
8.44017e-05
4.77221e-09
-7.75951e-05
7.05391e-05
1.37666e-09
4.86088e-05
-3.1679e-08
-7.99253e-05
-2.03625e-06
2.62046e-09
2.18431e-05
-7.05033e-06
-3.06516e-09
5.39394e-05
-1.41216e-05
6.30599e-11
7.68067e-05
-2.23934e-05
5.74001e-10
9.19657e-05
-3.10558e-05
6.22698e-10
0.000100442
-3.93258e-05
9.4086e-10
0.000102836
-4.6427e-05
2.01942e-09
9.92972e-05
-5.15033e-05
1.20282e-08
8.94659e-05
-5.34126e-05
2.79573e-08
7.24205e-05
-9.21699e-09
-5.05532e-05
4.57586e-05
1.37505e-07
-1.37607e-07
-5.5837e-07
6.94146e-07
-2.06369e-06
1.50277e-06
-4.1344e-06
2.06745e-06
-6.54002e-06
2.40194e-06
-9.09142e-06
2.54755e-06
-1.1633e-05
2.53769e-06
-1.40297e-05
2.39307e-06
-1.61639e-05
2.13082e-06
1.77906e-06
-1.79458e-05
-7.24275e-07
5.88066e-07
-3.25244e-06
3.22191e-06
-7.3639e-06
5.61572e-06
-1.26427e-05
7.34855e-06
-1.86524e-05
8.41441e-06
-2.49867e-05
8.8849e-06
-3.12776e-05
8.83169e-06
-3.71932e-05
8.31152e-06
-4.24472e-05
7.38726e-06
6.16416e-06
-4.68301e-05
-1.66035e-06
2.25086e-06
-5.99048e-06
7.54982e-06
-1.24012e-05
1.20263e-05
-2.03116e-05
1.5259e-05
-2.91531e-05
1.72559e-05
-3.83861e-05
1.81177e-05
-4.75002e-05
1.79457e-05
-5.60178e-05
1.6829e-05
-6.35173e-05
1.48865e-05
1.23344e-05
-6.96877e-05
-2.41994e-06
4.67435e-06
-8.26147e-06
1.33883e-05
-1.65638e-05
2.03287e-05
-2.65672e-05
2.52627e-05
-3.75957e-05
2.82843e-05
-4.90178e-05
2.95396e-05
-6.02222e-05
2.91499e-05
-7.06134e-05
2.72199e-05
-7.96407e-05
2.39134e-05
1.95713e-05
-8.6878e-05
-2.95083e-06
7.62949e-06
-9.88634e-06
2.03201e-05
-1.95598e-05
3.00025e-05
-3.10635e-05
3.67673e-05
-4.36389e-05
4.08602e-05
-5.65919e-05
4.24932e-05
-6.92378e-05
4.17962e-05
-8.0877e-05
3.88594e-05
-9.08151e-05
3.38511e-05
2.72125e-05
-9.84569e-05
-3.23407e-06
1.08682e-05
-1.07746e-05
2.78566e-05
-2.12145e-05
4.0443e-05
-3.35565e-05
4.91105e-05
-4.69947e-05
5.42992e-05
-6.08029e-05
5.63021e-05
-7.42517e-05
5.52457e-05
-8.6554e-05
5.11623e-05
-9.68489e-05
4.41455e-05
3.46275e-05
-0.000104266
-3.26386e-06
1.41368e-05
-1.08861e-05
3.54748e-05
-2.14325e-05
5.099e-05
-3.38835e-05
6.15627e-05
-4.74247e-05
6.78412e-05
-6.13312e-05
7.02096e-05
-7.48686e-05
6.87842e-05
-8.72007e-05
6.34958e-05
-9.73018e-05
5.42458e-05
4.11879e-05
-0.000103866
-3.04815e-06
1.71893e-05
-1.02316e-05
4.26543e-05
-2.02072e-05
6.09661e-05
-3.19905e-05
7.33472e-05
-4.47858e-05
8.06374e-05
-5.78937e-05
8.33185e-05
-7.06161e-05
8.15077e-05
-8.21387e-05
7.50204e-05
-9.13544e-05
6.34595e-05
4.61659e-05
-9.63466e-05
-2.61689e-06
1.98098e-05
-8.89346e-06
4.89273e-05
-1.7665e-05
6.9738e-05
-2.80128e-05
8.3696e-05
-3.9157e-05
9.17825e-05
-5.04065e-05
9.4569e-05
-6.10988e-05
9.22014e-05
-7.04942e-05
8.44206e-05
-7.76187e-05
7.05854e-05
4.84935e-05
-7.9978e-05
-2.03102e-06
2.18434e-05
-7.05178e-06
5.3945e-05
-1.41228e-05
7.68091e-05
-2.23925e-05
9.19663e-05
-3.10511e-05
0.000100442
-3.93142e-05
0.000102833
-4.63988e-05
9.9288e-05
-5.14169e-05
8.94507e-05
-5.32752e-05
7.24716e-05
-5.07766e-05
4.59857e-05
-1.93353e-05
1.38742e-06
2.09588e-09
-2.03538e-05
1.01705e-06
1.46134e-09
-2.10632e-05
7.08385e-07
9.63423e-10
-2.15391e-05
4.75294e-07
6.04861e-10
-2.18532e-05
3.13784e-07
3.68347e-10
-2.20652e-05
2.11737e-07
2.26301e-10
-2.22212e-05
1.55819e-07
1.52424e-10
-2.23561e-05
1.34862e-07
1.26841e-10
-2.24969e-05
1.40574e-07
1.36189e-10
-2.26638e-05
1.66738e-07
1.72242e-10
-2.28716e-05
2.07655e-07
2.29167e-10
-2.31282e-05
2.56208e-07
3.01045e-10
-2.34303e-05
3.01737e-07
3.78872e-10
-2.37587e-05
3.27964e-07
4.47352e-10
-2.40707e-05
3.11524e-07
4.81166e-10
-2.42933e-05
2.22176e-07
4.40127e-10
-2.432e-05
2.6476e-08
2.70779e-10
-2.40142e-05
-3.05801e-07
-6.36355e-11
-2.32298e-05
-7.83723e-07
-6.50856e-10
-1.38295e-06
-1.53225e-09
-2.18453e-05
-5.02565e-05
4.81562e-06
-1.89177e-09
-5.27854e-05
3.54745e-06
-1.57687e-09
-5.45675e-05
2.49179e-06
-1.2439e-09
-5.57832e-05
1.69188e-06
-9.46824e-10
-5.66015e-05
1.13283e-06
-7.04482e-10
-5.7163e-05
7.73701e-07
-5.26016e-10
-5.75763e-05
5.6956e-07
-4.10659e-10
-5.79231e-05
4.82043e-07
-3.5078e-10
-5.82637e-05
4.81515e-07
-3.36082e-10
-5.86412e-05
5.44567e-07
-3.54411e-10
-5.90823e-05
6.49193e-07
-3.91501e-10
-5.95946e-05
7.68872e-07
-4.28774e-10
-6.01587e-05
8.66263e-07
-4.40878e-10
-6.07177e-05
8.87423e-07
-3.94205e-10
-6.11642e-05
7.58237e-07
-2.47713e-10
-6.13282e-05
3.86177e-07
4.00661e-11
-6.09742e-05
-3.28096e-07
4.99614e-10
-5.98151e-05
-1.46596e-06
1.11918e-09
-5.75521e-05
-3.04858e-06
1.86209e-09
-4.98758e-06
2.55932e-09
-5.395e-05
-7.44146e-05
9.5426e-06
-2.37307e-10
-7.7826e-05
6.95928e-06
-4.08604e-10
-8.0181e-05
4.84714e-06
-4.45403e-10
-8.17599e-05
3.27124e-06
-4.21845e-10
-8.28085e-05
2.18185e-06
-3.59458e-10
-8.35197e-05
1.4851e-06
-2.86322e-10
-8.40358e-05
1.08589e-06
-2.20309e-10
-8.44594e-05
9.05889e-07
-1.68097e-10
-8.48634e-05
8.8561e-07
-1.30576e-10
-8.52972e-05
9.78411e-07
-1.05032e-10
-8.57889e-05
1.14099e-06
-8.68527e-11
-8.63422e-05
1.32232e-06
-7.038e-11
-8.69281e-05
1.45218e-06
-4.91069e-11
-8.74712e-05
1.43053e-06
-1.48251e-11
-8.78336e-05
1.12064e-06
4.34927e-11
-8.77988e-05
3.51213e-07
1.32606e-10
-8.70632e-05
-1.06392e-06
2.47073e-10
-8.52479e-05
-3.28173e-06
3.81591e-10
-8.19448e-05
-6.35216e-06
5.18742e-10
-1.01166e-05
4.40041e-10
-7.68162e-05
-9.2181e-05
1.48458e-05
-3.68785e-10
-9.5809e-05
1.0588e-05
-5.93734e-10
-9.81816e-05
7.22026e-06
-5.87405e-10
-9.96937e-05
4.7839e-06
-5.21334e-10
-0.000100654
3.14211e-06
-4.14636e-10
-0.000101279
2.11102e-06
-3.06738e-10
-0.000101718
1.52469e-06
-2.1746e-10
-0.000102067
1.25555e-06
-1.49886e-10
-0.000102393
1.21136e-06
-1.01895e-10
-0.000102737
1.32263e-06
-6.93864e-11
-0.000103123
1.52701e-06
-4.81056e-11
-0.000103553
1.75263e-06
-3.4167e-11
-0.000104002
1.90097e-06
-2.41233e-11
-0.000104402
1.83038e-06
-1.19975e-11
-0.000104624
1.34316e-06
1.91791e-11
-0.000104456
1.82547e-07
8.26343e-11
-0.000103576
-1.94393e-06
1.46796e-10
-0.000101547
-5.31104e-06
2.705e-10
-9.78457e-05
-1.00539e-05
5.08604e-10
-1.59885e-05
4.46497e-10
-9.19743e-05
-0.000103593
1.99823e-05
-1.004e-09
-0.000106734
1.37302e-05
-1.12106e-09
-0.00010855
9.03784e-06
-9.03302e-10
-0.00010957
5.80431e-06
-7.04981e-10
-0.00011014
3.71291e-06
-4.95729e-10
-0.00011047
2.44054e-06
-3.25439e-10
-0.000110677
1.73199e-06
-2.07805e-10
-0.000110829
1.4082e-06
-1.31787e-10
-0.000110966
1.34875e-06
-8.6007e-11
-0.000111112
1.4687e-06
-6.14832e-11
-0.000111281
1.69585e-06
-5.1861e-11
-0.000111477
1.94896e-06
-5.28911e-11
-0.000111692
2.11573e-06
-6.17837e-11
-0.000111892
2.02997e-06
-7.14862e-11
-0.000111998
1.44941e-06
-5.04503e-11
-0.000111852
3.65748e-08
3.73545e-11
-0.000111176
-2.6203e-06
8.86853e-11
-0.000109508
-6.9786e-06
2.70243e-10
-0.000106191
-1.33722e-05
8.85212e-10
-2.17315e-05
1.25102e-09
-0.000100449
-0.000108408
2.41266e-05
-2.15894e-09
-0.000110299
1.56227e-05
-1.82776e-09
-0.000110997
9.73789e-06
-1.13571e-09
-0.000111159
5.96635e-06
-7.59302e-10
-0.000111115
3.67001e-06
-4.46201e-10
-0.000111013
2.33816e-06
-2.34907e-10
-0.000110903
1.62227e-06
-1.1635e-10
-0.000110798
1.3033e-06
-5.35084e-11
-0.000110696
1.24709e-06
-2.27915e-11
-0.000110595
1.36694e-06
-1.09993e-11
-0.000110493
1.5946e-06
-1.16121e-11
-0.0001104
1.85564e-06
-2.22559e-11
-0.000110329
2.04511e-06
-4.29534e-11
-0.000110299
2.00001e-06
-7.24725e-11
-0.000110316
1.4664e-06
-8.79815e-11
-0.000110337
5.76246e-08
-4.58046e-11
-0.000110199
-2.75839e-06
-1.55814e-11
-0.0001095
-7.67825e-06
1.5777e-10
-0.000107454
-1.54195e-05
1.51038e-09
-2.63503e-05
3.15586e-09
-0.000102838
-0.000105995
2.62611e-05
-5.76258e-09
-0.000105807
1.54387e-05
-3.77331e-09
-0.000104914
8.8466e-06
-1.72843e-09
-0.000104002
5.05527e-06
-9.002e-10
-0.000103273
2.94065e-06
-3.81978e-10
-0.000102731
1.79639e-06
-1.17361e-10
-0.000102322
1.21354e-06
-1.38729e-11
-0.000101985
9.66768e-07
2.01603e-11
-0.000101671
9.33008e-07
2.46152e-11
-0.000101346
1.04117e-06
1.54341e-11
-0.000100992
1.24085e-06
-2.10444e-12
-0.000100616
1.47945e-06
-2.7539e-11
-0.000100251
1.6804e-06
-6.17331e-11
-9.99669e-05
1.7162e-06
-1.0829e-10
-9.98696e-05
1.36924e-06
-1.51059e-10
-0.000100082
2.69763e-07
-9.75528e-11
-0.000100657
-2.18291e-06
9.10609e-11
-0.000101414
-6.92181e-06
4.68747e-10
-0.000101576
-1.52608e-05
3.62643e-09
-2.86466e-05
8.66451e-09
-9.92888e-05
-9.50202e-05
2.49445e-05
-9.80501e-09
-9.19665e-05
1.23889e-05
-3.94233e-09
-8.93085e-05
6.1894e-06
-7.85e-10
-8.74277e-05
3.17474e-06
-3.0298e-10
-8.61876e-05
1.7005e-06
3.6973e-11
-8.53732e-05
9.81878e-07
1.57377e-10
-8.48052e-05
6.45358e-07
1.48451e-10
-8.43547e-05
5.16156e-07
1.21804e-10
-8.39338e-05
5.11996e-07
1.00894e-10
-8.34847e-05
5.9197e-07
8.62369e-11
-8.29751e-05
7.31188e-07
7.401e-11
-8.24011e-05
9.05456e-07
5.83084e-11
-8.17984e-05
1.0776e-06
3.0293e-11
-8.1261e-05
1.17892e-06
-3.54497e-11
-8.09682e-05
1.07656e-06
-1.35819e-10
-8.12058e-05
5.07406e-07
-6.32734e-11
-8.23307e-05
-1.05808e-06
9.85789e-11
-8.46406e-05
-4.61147e-06
-4.46657e-10
-8.78073e-05
-1.20973e-05
3.22045e-09
-2.70224e-05
1.38781e-08
-8.94454e-05
-7.2662e-05
1.76407e-05
-1.22761e-08
-6.65535e-05
6.27504e-06
5.4211e-09
-6.2804e-05
2.43382e-06
6.02756e-09
-6.06544e-05
1.02257e-06
2.54839e-09
-5.94254e-05
4.70206e-07
1.30822e-09
-5.86922e-05
2.4786e-07
7.87862e-10
-5.82078e-05
1.60496e-07
4.88745e-10
-5.78276e-05
1.35573e-07
3.65375e-10
-5.74622e-05
1.46269e-07
3.48791e-10
-5.70531e-05
1.82535e-07
3.92157e-10
-5.65626e-05
2.40191e-07
4.71338e-10
-5.59737e-05
3.16e-07
5.65742e-10
-5.53007e-05
4.0391e-07
6.3929e-10
-5.46115e-05
4.89187e-07
5.9831e-10
-5.40705e-05
5.35217e-07
3.20572e-10
-5.40191e-05
4.56121e-07
-1.38053e-10
-5.50174e-05
-5.8075e-08
-1.66961e-09
-5.80631e-05
-1.55837e-06
-7.45093e-09
-6.42073e-05
-5.94301e-06
-1.00054e-08
-1.87856e-05
1.51474e-08
-7.24593e-05
-3.30682e-05
-6.76989e-08
-2.67818e-05
-1.13108e-08
-2.43472e-05
-7.64309e-10
-2.33228e-05
-1.82065e-09
-2.28515e-05
-1.17787e-09
-2.26031e-05
-5.46005e-10
-2.24423e-05
-3.04973e-10
-2.23065e-05
-2.13351e-10
-2.216e-05
-1.86834e-10
-2.19773e-05
-2.04556e-10
-2.17368e-05
-2.53416e-10
-2.14205e-05
-3.20599e-10
-2.10162e-05
-3.87995e-10
-2.05266e-05
-4.23538e-10
-1.99911e-05
-3.12281e-10
-1.95352e-05
2.62189e-10
-1.95941e-05
8.27578e-10
-2.11501e-05
-2.43096e-09
-2.70981e-05
5.03839e-09
8.49134e-08
-4.59686e-05
-1.93358e-05
1.39159e-06
7.79165e-13
-2.03542e-05
1.01986e-06
6.73055e-13
-2.10635e-05
7.10192e-07
5.5058e-13
-2.15393e-05
4.76395e-07
4.4317e-13
-2.18533e-05
3.14437e-07
3.71759e-13
-2.20652e-05
2.12136e-07
3.04792e-13
-2.22212e-05
1.56102e-07
1.81049e-13
-2.23562e-05
1.35122e-07
4.87134e-14
-2.24969e-05
1.40876e-07
3.62517e-14
-2.26639e-05
1.67128e-07
-4.07389e-14
-2.28718e-05
2.08166e-07
-1.64078e-13
-2.31284e-05
2.56857e-07
-2.05841e-13
-2.34305e-05
3.02518e-07
-1.80651e-13
-2.37589e-05
3.28835e-07
-8.3311e-14
-2.40708e-05
3.12401e-07
7.80142e-14
-2.42933e-05
2.22912e-07
3.46205e-13
-2.43198e-05
2.6723e-08
6.73363e-13
-2.40138e-05
-3.0606e-07
1.0343e-12
-2.32294e-05
-7.85023e-07
1.44116e-12
-1.38589e-06
1.88007e-12
-2.1845e-05
-5.0254e-05
4.81583e-06
1.09783e-12
-5.27828e-05
3.54709e-06
9.44115e-13
-5.45652e-05
2.49134e-06
7.70093e-13
-5.57813e-05
1.69149e-06
6.00333e-13
-5.66001e-05
1.13255e-06
4.71951e-13
-5.7162e-05
7.73514e-07
3.91287e-13
-5.75757e-05
5.69445e-07
3.26873e-13
-5.79229e-05
4.81963e-07
1.93294e-13
-5.82638e-05
4.81435e-07
8.04015e-14
-5.86415e-05
5.44451e-07
-1.35836e-14
-5.90827e-05
6.49005e-07
-8.97165e-14
-5.95949e-05
7.68578e-07
-1.12401e-13
-6.01586e-05
8.6584e-07
-9.14028e-14
-6.07171e-05
8.86883e-07
-2.19739e-14
-6.11626e-05
7.5766e-07
9.2052e-14
-6.13254e-05
3.85724e-07
2.19091e-13
-6.097e-05
-3.28182e-07
4.11048e-13
-5.98097e-05
-1.4652e-06
7.00319e-13
-5.75462e-05
-3.04667e-06
1.06497e-12
-4.98517e-06
1.46482e-12
-5.39443e-05
-7.44138e-05
9.54167e-06
1.31441e-12
-7.78246e-05
6.95743e-06
1.10268e-12
-8.01792e-05
4.84554e-06
8.70375e-13
-8.17582e-05
3.27006e-06
6.3977e-13
-8.28071e-05
2.18109e-06
4.64838e-13
-8.35185e-05
1.48467e-06
3.44642e-13
-8.4035e-05
1.08567e-06
2.40611e-13
-8.4459e-05
9.05773e-07
8.54222e-14
-8.48632e-05
8.85514e-07
1.79806e-14
-8.52971e-05
9.78266e-07
-1.09131e-14
-8.57889e-05
1.14073e-06
-3.63006e-14
-8.63423e-05
1.32188e-06
-5.19624e-14
-8.6928e-05
1.4515e-06
-3.62332e-14
-8.74707e-05
1.42962e-06
2.77981e-14
-8.78326e-05
1.11961e-06
1.26373e-13
-8.77971e-05
3.50311e-07
2.68856e-13
-8.70607e-05
-1.06432e-06
4.93224e-13
-8.52447e-05
-3.28083e-06
8.10776e-13
-8.19417e-05
-6.34914e-06
1.17783e-12
-1.01127e-05
1.52439e-12
-7.68138e-05
-9.21806e-05
1.48426e-05
1.45388e-12
-9.58074e-05
1.05836e-05
1.22609e-12
-9.81795e-05
7.21705e-06
9.6326e-13
-9.96917e-05
4.78175e-06
7.03387e-13
-0.000100652
3.14084e-06
4.81779e-13
-0.000101278
2.11037e-06
3.18764e-13
-0.000101717
1.52439e-06
2.26495e-13
-0.000102067
1.25544e-06
9.93258e-14
-0.000102393
1.2113e-06
-3.41989e-15
-0.000102737
1.32253e-06
-5.20625e-14
-0.000103123
1.52678e-06
-6.33201e-14
-0.000103553
1.75219e-06
-7.23381e-14
-0.000104002
1.90022e-06
-9.27533e-14
-0.000104402
1.82929e-06
-1.18179e-13
-0.000104624
1.34183e-06
-1.3157e-13
-0.000104455
1.81434e-07
-6.58125e-14
-0.000103574
-1.94478e-06
6.9775e-14
-0.000101545
-5.31022e-06
3.20486e-13
-9.78438e-05
-1.00495e-05
6.37868e-13
-1.59825e-05
9.54343e-13
-9.19736e-05
-0.000103591
1.99738e-05
1.41411e-12
-0.000106731
1.37216e-05
1.17698e-12
-0.000108547
9.03263e-06
9.25206e-13
-0.000109567
5.80126e-06
7.12818e-13
-0.000110138
3.71131e-06
5.11034e-13
-0.000110468
2.43983e-06
3.74343e-13
-0.000110676
1.73173e-06
3.0718e-13
-0.000110828
1.40814e-06
1.85774e-13
-0.000110966
1.34875e-06
4.20362e-14
-0.000111112
1.46864e-06
-3.55447e-14
-0.000111281
1.69564e-06
-7.85985e-14
-0.000111477
1.9485e-06
-1.2877e-13
-0.000111692
2.11492e-06
-2.03688e-13
-0.000111892
2.0287e-06
-2.7907e-13
-0.000111998
1.44765e-06
-3.14566e-13
-0.000111852
3.55002e-08
-2.72367e-13
-0.000111174
-2.62198e-06
-1.60518e-13
-0.000109506
-6.97826e-06
-4.9912e-14
-0.000106189
-1.33655e-05
1.39523e-13
-2.17207e-05
4.38538e-13
-0.00010045
-0.000108405
2.41068e-05
1.23628e-12
-0.000110293
1.56078e-05
9.60716e-13
-0.000110993
9.73124e-06
7.72191e-13
-0.000111155
5.96325e-06
6.46617e-13
-0.000111113
3.66873e-06
4.47738e-13
-0.000111011
2.3378e-06
3.18071e-13
-0.000110902
1.62226e-06
3.0268e-13
-0.000110797
1.3034e-06
2.52771e-13
-0.000110696
1.24718e-06
1.4243e-13
-0.000110594
1.36696e-06
1.58138e-14
-0.000110493
1.59446e-06
-1.02595e-13
-0.0001104
1.85525e-06
-1.9645e-13
-0.000110329
2.04435e-06
-2.55532e-13
-0.000110299
1.9987e-06
-2.71369e-13
-0.000110316
1.4644e-06
-2.51091e-13
-0.000110337
5.61936e-08
-2.3491e-13
-0.000110198
-2.76124e-06
-3.20627e-13
-0.000109496
-7.67935e-06
-3.91549e-13
-0.000107451
-1.54094e-05
-2.75463e-13
-2.63278e-05
-8.9035e-14
-0.000102841
-0.000105988
2.62144e-05
1.1526e-12
-0.000105797
1.54136e-05
8.77268e-13
-0.000104908
8.83997e-06
7.30132e-13
-0.000103999
5.05347e-06
5.6395e-13
-0.000103271
2.94041e-06
3.18459e-13
-0.00010273
1.79666e-06
2.13975e-13
-0.000102322
1.21385e-06
2.11629e-13
-0.000101985
9.67001e-07
2.11226e-13
-0.000101671
9.33142e-07
1.31883e-13
-0.000101345
1.0412e-06
-3.57485e-15
-0.000100992
1.24072e-06
-1.41883e-13
-0.000100615
1.4791e-06
-2.4328e-13
-0.000100251
1.67969e-06
-2.88073e-13
-9.99671e-05
1.7149e-06
-3.01155e-13
-9.987e-05
1.36715e-06
-3.63979e-13
-0.000100081
2.674e-07
-5.83116e-13
-0.000100656
-2.18679e-06
-9.61884e-13
-0.00010141
-6.92468e-06
-1.32493e-12
-0.000101572
-1.52436e-05
-1.40223e-12
-2.85933e-05
-1.17213e-12
-9.9298e-05
-9.50062e-05
2.48554e-05
1.04386e-12
-9.19564e-05
1.23598e-05
8.50479e-13
-8.93052e-05
6.18795e-06
8.27836e-13
-8.74275e-05
3.17543e-06
7.00377e-13
-8.61881e-05
1.70111e-06
4.50673e-13
-8.53737e-05
9.82409e-07
2.34519e-13
-8.48054e-05
6.45695e-07
1.86499e-13
-8.43546e-05
5.16339e-07
1.82222e-13
-8.39335e-05
5.12084e-07
1.2396e-13
-8.34842e-05
5.91988e-07
1.01803e-14
-8.29745e-05
7.31131e-07
-1.20336e-13
-8.24006e-05
9.0529e-07
-2.11232e-13
-8.17982e-05
1.07725e-06
-2.45589e-13
-8.12615e-05
1.1782e-06
-3.14693e-13
-8.09697e-05
1.07517e-06
-5.53905e-13
-8.12077e-05
5.05319e-07
-1.02324e-12
-8.23341e-05
-1.06026e-06
-1.66956e-12
-8.46429e-05
-4.61627e-06
-2.23762e-12
-8.78048e-05
-1.20785e-05
-2.39422e-12
-2.69237e-05
-2.17703e-12
-8.94605e-05
-7.26443e-05
1.75621e-05
6.91793e-13
-6.65611e-05
6.28211e-06
7.31781e-13
-6.28126e-05
2.4454e-06
6.85962e-13
-6.06606e-05
1.02604e-06
5.15879e-13
-5.94291e-05
4.70846e-07
4.15745e-13
-5.86939e-05
2.48056e-07
3.56036e-13
-5.82084e-05
1.60658e-07
3.18248e-13
-5.78275e-05
1.35786e-07
2.81175e-13
-5.74616e-05
1.46583e-07
1.95544e-13
-5.70522e-05
1.82999e-07
5.08231e-14
-5.65615e-05
2.40864e-07
-7.98954e-14
-5.59726e-05
3.16958e-07
-1.44081e-13
-5.53e-05
4.05241e-07
-1.81174e-13
-5.46122e-05
4.9101e-07
-2.92568e-13
-5.40742e-05
5.37501e-07
-6.07667e-13
-5.40253e-05
4.56352e-07
-1.18585e-12
-5.50318e-05
-5.54551e-08
-1.8937e-12
-5.80884e-05
-1.56714e-06
-2.40176e-12
-6.42221e-05
-5.95484e-06
-2.63666e-12
-1.87224e-05
-2.97786e-12
-7.24082e-05
-3.30588e-05
5.19768e-13
-2.6788e-05
2.8908e-13
-2.43433e-05
3.69879e-13
-2.33191e-05
3.44481e-13
-2.28494e-05
2.0554e-13
-2.26019e-05
1.97723e-13
-2.24416e-05
2.38398e-13
-2.2306e-05
2.22999e-13
-2.21596e-05
1.29909e-13
-2.19768e-05
-3.6875e-16
-2.17362e-05
-1.09478e-13
-2.14196e-05
-1.29719e-13
-2.10147e-05
-1.7158e-13
-2.05241e-05
-3.23036e-13
-1.99869e-05
-7.30888e-13
-1.95303e-05
-1.2619e-12
-1.9585e-05
-1.72114e-12
-2.11545e-05
-2.12356e-12
-2.71043e-05
-3.23003e-12
-4.86809e-12
-4.57418e-05
-1.93358e-05
1.39159e-06
-2.09458e-09
-2.03542e-05
1.01986e-06
-1.46018e-09
-2.10635e-05
7.10192e-07
-9.62432e-10
-2.15393e-05
4.76395e-07
-6.0409e-10
-2.18533e-05
3.14437e-07
-3.67796e-10
-2.20652e-05
2.12136e-07
-2.25938e-10
-2.22212e-05
1.56102e-07
-1.52193e-10
-2.23562e-05
1.35122e-07
-1.26698e-10
-2.24969e-05
1.40876e-07
-1.36202e-10
-2.26639e-05
1.67127e-07
-1.72319e-10
-2.28718e-05
2.08165e-07
-2.29269e-10
-2.31284e-05
2.56856e-07
-3.01183e-10
-2.34305e-05
3.02517e-07
-3.78944e-10
-2.37589e-05
3.28834e-07
-4.47273e-10
-2.40708e-05
3.124e-07
-4.80913e-10
-2.42933e-05
2.22912e-07
-4.39635e-10
-2.43197e-05
2.67232e-08
-2.69935e-10
-2.40137e-05
-3.06059e-07
6.49372e-11
-2.32294e-05
-7.85021e-07
6.52686e-10
-1.38588e-06
1.53466e-09
-2.1845e-05
-5.0254e-05
4.81583e-06
1.89334e-09
-5.27828e-05
3.54709e-06
1.57822e-09
-5.45652e-05
2.49134e-06
1.24499e-09
-5.57812e-05
1.69149e-06
9.47641e-10
-5.66e-05
1.13255e-06
7.0508e-10
-5.71619e-05
7.73513e-07
5.26428e-10
-5.75757e-05
5.69443e-07
4.10895e-10
-5.79229e-05
4.81962e-07
3.5095e-10
-5.82638e-05
4.81433e-07
3.36153e-10
-5.86414e-05