/*--------------------------------*- C++ -*----------------------------------*\
| =========                 |                                                 |
| \\      /  F ield         | OpenFOAM: The Open Source CFD Toolbox           |
|  \\    /   O peration     | Version:  2.4.0                                 |
|   \\  /    A nd           | Web:      www.OpenFOAM.org                      |
|    \\/     M anipulation  |                                                 |
\*---------------------------------------------------------------------------*/
FoamFile
{
    version     2.0;
    format      ascii;
    class       volVectorField;
    location    "2";
    object      U;
}
// * * * * * * * * * * * * * * * * * * * * * * * * * * * * * * * * * * * * * //

dimensions      [0 1 -1 0 0 0 0];

internalField   nonuniform List<vector> 
4800
(
(0.000291057 -0.000294498 -1.58766e-07)
(-1.62372e-05 0.000166922 0.00021201)
(-0.00186316 0.000662416 0.000429365)
(-0.00480501 0.000994826 0.000585922)
(-0.00845535 0.00118215 0.000638957)
(-0.0124819 0.00126176 0.000568789)
(-0.0166094 0.00126047 0.000369551)
(-0.0206064 0.00119175 4.2088e-05)
(-0.0242686 0.00106283 -0.000407269)
(-0.0274242 0.000885636 -0.000965402)
(-0.000191514 1.56315e-05 -0.000211924)
(-0.0024695 0.00238436 4.61177e-06)
(-0.00794809 0.00467274 0.000164944)
(-0.0156462 0.00631349 0.000255328)
(-0.0248371 0.00730848 0.000258252)
(-0.0348618 0.0077507 0.000158215)
(-0.0450991 0.00772475 -5.11269e-05)
(-0.0549862 0.00728903 -0.000371733)
(-0.06402 0.00649774 -0.000801814)
(-0.0717867 0.00543852 -0.0013344)
(-0.000770092 0.00198494 -0.00043419)
(-0.0051126 0.007975 -0.000149179)
(-0.0139708 0.0132684 1.18855e-05)
(-0.0256966 0.0171228 8.13139e-05)
(-0.0393151 0.0195114 6.73388e-05)
(-0.0539827 0.0205658 -3.88088e-05)
(-0.0688589 0.0204257 -0.000241208)
(-0.0831462 0.0192103 -0.000543231)
(-0.0961091 0.0170627 -0.000947366)
(-0.10713 0.0142266 -0.00145258)
(-0.00122788 0.00532447 -0.000580082)
(-0.00729345 0.0162633 -0.000212125)
(-0.0189816 0.0252575 -2.81285e-05)
(-0.0339683 0.0317243 4.31769e-05)
(-0.0510511 0.0357141 3.11305e-05)
(-0.0692603 0.0374155 -6.73193e-05)
(-0.0876073 0.0370091 -0.000254635)
(-0.105119 0.0346585 -0.000536671)
(-0.120857 0.0305972 -0.000921878)
(-0.133983 0.0252658 -0.00141751)
(-0.00153767 0.00970455 -0.000577911)
(-0.0088352 0.0266477 -0.000138269)
(-0.0225842 0.0398526 6.99756e-05)
(-0.0399259 0.0491692 0.000153003)
(-0.0594755 0.0548469 0.000155354)
(-0.0801757 0.0571649 7.72987e-05)
(-0.100938 0.0563289 -8.44575e-05)
(-0.120655 0.0525092 -0.000341008)
(-0.13819 0.045993 -0.000710441)
(-0.152417 0.0374167 -0.00121489)
(-0.00169655 0.0147436 -0.000380994)
(-0.00966461 0.0384108 0.000111935)
(-0.0245641 0.0561846 0.000340091)
(-0.0432251 0.0685118 0.000441664)
(-0.0641526 0.0759307 0.00047013)
(-0.0862441 0.0788412 0.000426481)
(-0.108361 0.0774544 0.00030349)
(-0.129304 0.071888 8.10944e-05)
(-0.147758 0.0623931 -0.000273825)
(-0.162183 0.0497162 -0.000812706)
(-0.00170666 0.0200343 3.26343e-05)
(-0.00975573 0.0507304 0.000557833)
(-0.0248187 0.0732311 0.000798567)
(-0.0436624 0.0886373 0.00092351)
(-0.0647638 0.0978214 0.000989373)
(-0.0870203 0.101323 0.000995913)
(-0.109297 0.0993395 0.000929105)
(-0.13038 0.0918586 0.000756178)
(-0.148855 0.0789363 0.000423275)
(-0.162631 0.0611616 -0.000180161)
(-0.00157573 0.0251702 0.000662609)
(-0.00912844 0.0627559 0.00119929)
(-0.0233604 0.0899037 0.00144416)
(-0.0412023 0.108327 0.00159591)
(-0.0611694 0.119229 0.00170996)
(-0.0821842 0.123304 0.00178431)
(-0.103158 0.12073 0.00179679)
(-0.122954 0.111302 0.00169993)
(-0.140286 0.0946714 0.00141833)
(-0.152474 0.0706654 0.000727772)
(-0.00132321 0.029773 0.0014872)
(-0.00786922 0.073676 0.00201731)
(-0.0203635 0.105127 0.00225779)
(-0.0360722 0.126317 0.0024377)
(-0.053572 0.138733 0.00260805)
(-0.0717821 0.14323 0.00276646)
(-0.0896247 0.140021 0.0028834)
(-0.106055 0.128744 0.00289598)
(-0.120296 0.108588 0.00271842)
(-0.129496 0.0777891 0.00192569)
(-0.000986487 0.0335351 0.00246562)
(-0.00615474 0.0828097 0.0029764)
(-0.0162222 0.117953 0.00320429)
(-0.0288883 0.141417 0.00340996)
(-0.0427629 0.154856 0.00363907)
(-0.0566479 0.159251 0.00389375)
(-0.0692617 0.154894 0.00414659)
(-0.0792725 0.141401 0.00433114)
(-0.0863939 0.117802 0.00441664)
(-0.0895922 0.0813326 0.00379313)
(0.000295972 -0.000298902 -3.59324e-08)
(-9.20699e-06 0.000161119 1.3095e-06)
(-0.00185949 0.000648644 1.97674e-06)
(-0.00480246 0.000975466 2.53644e-06)
(-0.00845391 0.00115975 2.86575e-06)
(-0.0124814 0.00123789 2.99898e-06)
(-0.0166096 0.00123659 3.00313e-06)
(-0.0206075 0.00116916 2.87993e-06)
(-0.0242708 0.00104263 2.61028e-06)
(-0.0274275 0.000868432 2.17714e-06)
(-0.000184311 8.49609e-06 -1.12145e-06)
(-0.00246657 0.00238238 2.92337e-07)
(-0.00795545 0.00466172 -1.1641e-06)
(-0.0156507 0.00629749 -1.82567e-06)
(-0.0248394 0.00729074 -2.15425e-06)
(-0.0348624 0.00773217 -2.36118e-06)
(-0.0450981 0.00770637 -2.36616e-06)
(-0.0549842 0.00727183 -2.19913e-06)
(-0.0640179 0.00648255 -1.92876e-06)
(-0.0717855 0.0054254 -1.66361e-06)
(-0.000754444 0.00197955 -1.91494e-06)
(-0.00510158 0.00798141 1.72035e-06)
(-0.0139775 0.0132716 8.103e-08)
(-0.0256987 0.0171261 -6.72859e-08)
(-0.0393151 0.0195165 9.55185e-08)
(-0.0539824 0.020572 9.01369e-08)
(-0.0688581 0.0204323 9.84365e-08)
(-0.083145 0.019217 1.41432e-07)
(-0.0961089 0.0170695 1.90836e-07)
(-0.107131 0.0142322 1.15724e-07)
(-0.00120553 0.00531982 -2.76066e-06)
(-0.00727749 0.0162672 2.41261e-06)
(-0.0189904 0.0252567 -3.23562e-09)
(-0.03397 0.0317219 -2.02051e-07)
(-0.05105 0.035712 7.90962e-08)
(-0.0692594 0.0374138 1.12601e-07)
(-0.0876059 0.0370079 1.43691e-07)
(-0.105117 0.0346583 2.22461e-07)
(-0.120856 0.0305991 3.70361e-07)
(-0.133987 0.0252679 3.23666e-07)
(-0.00151098 0.00970164 -3.35557e-06)
(-0.00881714 0.0266499 2.82453e-06)
(-0.0225963 0.0398506 -3.13754e-07)
(-0.0399288 0.0491652 -6.82428e-07)
(-0.0594745 0.0548425 -4.03186e-07)
(-0.0801745 0.0571604 -3.81624e-07)
(-0.100936 0.0563246 -3.3709e-07)
(-0.120651 0.0525062 -1.89483e-07)
(-0.138187 0.0459942 2.44459e-07)
(-0.152424 0.0374201 4.56145e-07)
(-0.0016675 0.0147428 -3.64324e-06)
(-0.00964558 0.038412 3.1172e-06)
(-0.0245784 0.0561835 -4.0926e-07)
(-0.043229 0.0685094 -8.65995e-07)
(-0.0641519 0.0759276 -5.91709e-07)
(-0.0862431 0.0788377 -5.8552e-07)
(-0.108358 0.0774503 -5.70114e-07)
(-0.129297 0.0718845 -4.5363e-07)
(-0.147751 0.0623975 4.12071e-07)
(-0.162198 0.0497278 1.24726e-06)
(-0.00167737 0.0200355 -3.64413e-06)
(-0.00973699 0.0507305 3.19018e-06)
(-0.024834 0.0732308 -4.36728e-07)
(-0.0436671 0.0886365 -9.46264e-07)
(-0.0647638 0.0978197 -7.14543e-07)
(-0.08702 0.101321 -7.41246e-07)
(-0.109295 0.0993358 -8.218e-07)
(-0.130367 0.0918538 -9.88795e-07)
(-0.148837 0.0789467 5.38215e-07)
(-0.16266 0.0611989 3.14678e-06)
(-0.00154827 0.0251733 -3.35588e-06)
(-0.0091112 0.0627552 3.05666e-06)
(-0.0233755 0.0899044 -3.98221e-07)
(-0.0412076 0.108328 -9.2074e-07)
(-0.0611701 0.119229 -7.4983e-07)
(-0.082185 0.123303 -7.64337e-07)
(-0.103157 0.120725 -8.65694e-07)
(-0.122931 0.111287 -1.54166e-06)
(-0.140235 0.094667 1.56438e-06)
(-0.15252 0.0707247 1.09772e-05)
(-0.00129933 0.0297778 -2.79909e-06)
(-0.00785444 0.0736748 2.76678e-06)
(-0.0203772 0.105129 -2.75249e-07)
(-0.0360777 0.12632 -7.74166e-07)
(-0.053574 0.138736 -7.14851e-07)
(-0.0717865 0.143233 -7.86523e-07)
(-0.0896355 0.140017 -1.06955e-06)
(-0.106039 0.128711 -3.70817e-06)
(-0.120193 0.108514 -1.06781e-06)
(-0.129543 0.0777583 2.46415e-05)
(-0.00096735 0.0335409 -2.03559e-06)
(-0.0061428 0.0828082 2.38961e-06)
(-0.0162331 0.117957 -4.35908e-08)
(-0.0288923 0.141424 -4.41163e-07)
(-0.0427644 0.154868 -4.79412e-07)
(-0.0566547 0.159273 -7.27374e-07)
(-0.0692945 0.154936 -1.56681e-06)
(-0.0793133 0.141464 -9.35191e-06)
(-0.0863073 0.117863 -2.17416e-05)
(-0.0896699 0.0814479 7.17112e-06)
(0.000295988 -0.000298886 -9.86917e-08)
(-9.18409e-06 0.000161127 -1.35738e-06)
(-0.00185947 0.000648647 -1.992e-06)
(-0.00480245 0.000975467 -2.53996e-06)
(-0.0084539 0.00115975 -2.86497e-06)
(-0.0124814 0.00123789 -2.9964e-06)
(-0.0166096 0.00123659 -3.00005e-06)
(-0.0206074 0.00116916 -2.87713e-06)
(-0.0242708 0.00104263 -2.60775e-06)
(-0.0274274 0.000868432 -2.17476e-06)
(-0.000184303 8.5204e-06 1.07583e-06)
(-0.00246655 0.00238239 -3.16131e-07)
(-0.00795543 0.00466172 1.15609e-06)
(-0.0156507 0.00629749 1.82502e-06)
(-0.0248393 0.00729074 2.15674e-06)
(-0.0348624 0.00773217 2.365e-06)
(-0.0450981 0.00770637 2.37023e-06)
(-0.0549841 0.00727183 2.20286e-06)
(-0.0640179 0.00648255 1.93213e-06)
(-0.0717854 0.0054254 1.66671e-06)
(-0.00075444 0.00197956 1.90233e-06)
(-0.00510156 0.00798142 -1.72743e-06)
(-0.0139775 0.0132716 -8.18679e-08)
(-0.0256987 0.0171261 6.99648e-08)
(-0.039315 0.0195165 -9.12799e-08)
(-0.0539824 0.0205719 -8.51735e-08)
(-0.068858 0.0204323 -9.34452e-08)
(-0.0831449 0.019217 -1.36912e-07)
(-0.0961088 0.0170695 -1.86802e-07)
(-0.107131 0.0142322 -1.12094e-07)
(-0.00120552 0.00531982 2.76078e-06)
(-0.00727747 0.0162672 -2.41088e-06)
(-0.0189904 0.0252567 7.10428e-09)
(-0.03397 0.0317218 2.07278e-07)
(-0.0510499 0.035712 -7.33663e-08)
(-0.0692593 0.0374138 -1.06619e-07)
(-0.0876058 0.0370079 -1.37895e-07)
(-0.105117 0.0346583 -2.17252e-07)
(-0.120856 0.030599 -3.65785e-07)
(-0.133987 0.0252679 -3.19693e-07)
(-0.00151097 0.00970164 3.36163e-06)
(-0.00881712 0.0266499 -2.81832e-06)
(-0.0225963 0.0398506 3.204e-07)
(-0.0399287 0.0491652 6.89375e-07)
(-0.0594744 0.0548424 4.10046e-07)
(-0.0801744 0.0571604 3.88409e-07)
(-0.100936 0.0563245 3.43534e-07)
(-0.120651 0.0525061 1.95179e-07)
(-0.138187 0.0459942 -2.39622e-07)
(-0.152424 0.0374201 -4.52097e-07)
(-0.0016675 0.0147428 3.65171e-06)
(-0.00964557 0.038412 -3.10901e-06)
(-0.0245783 0.0561835 4.17178e-07)
(-0.0432289 0.0685093 8.73744e-07)
(-0.0641518 0.0759276 5.99135e-07)
(-0.086243 0.0788376 5.92678e-07)
(-0.108358 0.0774503 5.76743e-07)
(-0.129296 0.0718845 4.59349e-07)
(-0.147751 0.0623975 -4.07317e-07)
(-0.162198 0.0497277 -1.24338e-06)
(-0.00167737 0.0200354 3.65345e-06)
(-0.00973698 0.0507304 -3.18123e-06)
(-0.024834 0.0732308 4.45172e-07)
(-0.043667 0.0886364 9.54395e-07)
(-0.0647638 0.0978196 7.22239e-07)
(-0.0870199 0.101321 7.48496e-07)
(-0.109295 0.0993357 8.28317e-07)
(-0.130367 0.0918538 9.94298e-07)
(-0.148837 0.0789466 -5.33706e-07)
(-0.162659 0.0611988 -3.14317e-06)
(-0.00154826 0.0251733 3.36531e-06)
(-0.00911119 0.0627551 -3.04759e-06)
(-0.0233755 0.0899044 4.06785e-07)
(-0.0412075 0.108328 9.28981e-07)
(-0.0611701 0.119229 7.57592e-07)
(-0.082185 0.123303 7.7147e-07)
(-0.103157 0.120725 8.71901e-07)
(-0.122931 0.111287 1.5468e-06)
(-0.140235 0.094667 -1.56019e-06)
(-0.15252 0.0707247 -1.09738e-05)
(-0.00129932 0.0297778 2.80795e-06)
(-0.00785443 0.0736748 -2.75816e-06)
(-0.0203772 0.105129 2.83497e-07)
(-0.0360776 0.12632 7.82134e-07)
(-0.0535739 0.138736 7.22324e-07)
(-0.0717865 0.143233 7.9323e-07)
(-0.0896355 0.140017 1.07525e-06)
(-0.106038 0.128711 3.71289e-06)
(-0.120193 0.108514 1.07176e-06)
(-0.129543 0.0777583 -2.46384e-05)
(-0.000967348 0.0335409 2.04345e-06)
(-0.00614279 0.0828082 -2.38177e-06)
(-0.016233 0.117957 5.11976e-08)
(-0.0288922 0.141424 4.48549e-07)
(-0.0427644 0.154868 4.86306e-07)
(-0.0566547 0.159273 7.33514e-07)
(-0.0692944 0.154936 1.57206e-06)
(-0.0793132 0.141464 9.35643e-06)
(-0.0863073 0.117863 2.17456e-05)
(-0.0896699 0.0814479 -7.16789e-06)
(0.000291131 -0.000294423 3.00294e-07)
(-1.61406e-05 0.000166949 -0.00021196)
(-0.00186312 0.000662422 -0.000429348)
(-0.00480499 0.000994826 -0.000585918)
(-0.00845532 0.00118215 -0.000638958)
(-0.0124819 0.00126176 -0.000568792)
(-0.0166094 0.00126047 -0.000369554)
(-0.0206063 0.00119175 -4.2091e-05)
(-0.0242686 0.00106283 0.000407266)
(-0.0274241 0.000885635 0.000965399)
(-0.000191484 1.57298e-05 0.000211972)
(-0.00246945 0.0023844 -4.58662e-06)
(-0.00794804 0.00467274 -0.000164936)
(-0.0156461 0.00631349 -0.000255327)
(-0.0248371 0.00730847 -0.000258255)
(-0.0348617 0.00775069 -0.000158219)
(-0.045099 0.00772474 5.11226e-05)
(-0.0549861 0.00728903 0.000371729)
(-0.0640198 0.00649773 0.00080181)
(-0.0717866 0.00543851 0.00133439)
(-0.000770078 0.00198498 0.000434203)
(-0.00511257 0.00797501 0.000149186)
(-0.0139707 0.0132684 -1.18846e-05)
(-0.0256965 0.0171228 -8.13167e-05)
(-0.039315 0.0195113 -6.73433e-05)
(-0.0539825 0.0205657 3.88035e-05)
(-0.0688588 0.0204257 0.000241202)
(-0.083146 0.0192103 0.000543226)
(-0.0961089 0.0170626 0.000947361)
(-0.107129 0.0142266 0.00145258)
(-0.00122787 0.00532447 0.000580082)
(-0.00729341 0.0162633 0.000212124)
(-0.0189816 0.0252575 2.81244e-05)
(-0.0339682 0.0317243 -4.31824e-05)
(-0.0510509 0.035714 -3.11366e-05)
(-0.0692601 0.0374154 6.7313e-05)
(-0.0876071 0.0370091 0.000254629)
(-0.105119 0.0346585 0.000536666)
(-0.120856 0.0305972 0.000921873)
(-0.133983 0.0252658 0.00141751)
(-0.00153765 0.00970454 0.000577904)
(-0.00883517 0.0266477 0.000138262)
(-0.0225841 0.0398525 -6.99826e-05)
(-0.0399258 0.0491691 -0.00015301)
(-0.0594753 0.0548468 -0.000155361)
(-0.0801755 0.0571648 -7.73058e-05)
(-0.100938 0.0563288 8.44507e-05)
(-0.120655 0.0525092 0.000341002)
(-0.138189 0.0459929 0.000710436)
(-0.152416 0.0374167 0.00121488)
(-0.00169654 0.0147436 0.000380985)
(-0.00966457 0.0384107 -0.000111944)
(-0.024564 0.0561845 -0.0003401)
(-0.043225 0.0685117 -0.000441672)
(-0.0641524 0.0759306 -0.000470138)
(-0.0862439 0.0788411 -0.000426489)
(-0.108361 0.0774543 -0.000303497)
(-0.129304 0.071888 -8.11005e-05)
(-0.147757 0.062393 0.00027382)
(-0.162183 0.0497162 0.000812702)
(-0.00170665 0.0200342 -3.26441e-05)
(-0.00975569 0.0507303 -0.000557842)
(-0.0248186 0.073231 -0.000798576)
(-0.0436622 0.0886372 -0.000923519)
(-0.0647637 0.0978212 -0.000989381)
(-0.0870201 0.101323 -0.00099592)
(-0.109297 0.0993394 -0.000929112)
(-0.13038 0.0918585 -0.000756183)
(-0.148854 0.0789363 -0.00042328)
(-0.16263 0.0611615 0.000180158)
(-0.00157572 0.0251701 -0.000662619)
(-0.0091284 0.0627558 -0.0011993)
(-0.0233603 0.0899036 -0.00144416)
(-0.0412022 0.108327 -0.00159592)
(-0.0611693 0.119229 -0.00170996)
(-0.0821841 0.123304 -0.00178431)
(-0.103158 0.12073 -0.00179679)
(-0.122953 0.111302 -0.00169993)
(-0.140286 0.0946713 -0.00141833)
(-0.152474 0.0706654 -0.000727776)
(-0.00132321 0.029773 -0.0014872)
(-0.00786919 0.0736759 -0.00201732)
(-0.0203634 0.105127 -0.0022578)
(-0.0360722 0.126316 -0.00243771)
(-0.0535719 0.138733 -0.00260806)
(-0.071782 0.14323 -0.00276647)
(-0.0896246 0.140021 -0.00288341)
(-0.106055 0.128744 -0.00289599)
(-0.120296 0.108588 -0.00271843)
(-0.129496 0.0777891 -0.00192569)
(-0.00098648 0.0335351 -0.00246562)
(-0.00615472 0.0828095 -0.0029764)
(-0.0162222 0.117953 -0.00320429)
(-0.0288882 0.141417 -0.00340997)
(-0.0427629 0.154856 -0.00363907)
(-0.0566478 0.159251 -0.00389376)
(-0.0692617 0.154894 -0.0041466)
(-0.0792725 0.141401 -0.00433115)
(-0.0863938 0.117802 -0.00441664)
(-0.0895922 0.0813326 -0.00379313)
(-0.0299637 0.000685169 -0.0016116)
(-0.0318744 0.000494908 -0.00232055)
(-0.0332316 0.000337241 -0.00306958)
(-0.0341532 0.000219729 -0.00384165)
(-0.0347618 0.000140016 -0.00462551)
(-0.0351638 9.13564e-05 -0.00541468)
(-0.0354437 6.65548e-05 -0.00620607)
(-0.0356656 5.9875e-05 -0.00699897)
(-0.035878 6.74091e-05 -0.00779442)
(-0.0361182 8.65997e-05 -0.00859497)
(-0.0364147 0.000115327 -0.00940472)
(-0.0367861 0.000150749 -0.0102294)
(-0.0372378 0.000187974 -0.0110766)
(-0.0377539 0.000218682 -0.0119553)
(-0.0382872 0.000229949 -0.012875)
(-0.0387466 0.00020394 -0.0138445)
(-0.038988 0.000119625 -0.0148687)
(-0.0388127 -4.24318e-05 -0.015945)
(-0.0379852 -0.000293099 -0.0170584)
(-0.0362771 -0.000621272 -0.0181779)
(-0.0780355 0.00425986 -0.0019555)
(-0.0827531 0.00314233 -0.00264525)
(-0.0861335 0.00220596 -0.00338524)
(-0.0884623 0.00149363 -0.00416029)
(-0.0900297 0.000995512 -0.0049588)
(-0.0910863 0.000676941 -0.00577269)
(-0.0918306 0.000498701 -0.00659694)
(-0.0924126 0.000427134 -0.00742895)
(-0.0929436 0.000436535 -0.00826817)
(-0.0935053 0.000507023 -0.00911581)
(-0.0941541 0.000620101 -0.00997467)
(-0.0949193 0.000753031 -0.0108491)
(-0.0957948 0.000872715 -0.0117446)
(-0.0967245 0.00092992 -0.0126678)
(-0.0975816 0.000855449 -0.0136253)
(-0.0981472 0.000561327 -0.0146225)
(-0.0980954 -4.84548e-05 -0.0156612)
(-0.096998 -0.00105395 -0.0167372)
(-0.0943641 -0.00248098 -0.0178367)
(-0.0897318 -0.00425162 -0.0189332)
(-0.115837 0.0111042 -0.00204921)
(-0.122259 0.00817648 -0.00271695)
(-0.126759 0.00574546 -0.00343835)
(-0.1298 0.00390589 -0.00419889)
(-0.131817 0.00262003 -0.00498683)
(-0.133161 0.00179191 -0.00579355)
(-0.134096 0.00131745 -0.0066133)
(-0.134816 0.00110788 -0.00744268)
(-0.135455 0.00109438 -0.0082803)
(-0.136111 0.00122221 -0.00912643)
(-0.136845 0.00143984 -0.00998285)
(-0.137686 0.00168581 -0.0108526)
(-0.138618 0.00187483 -0.0117399)
(-0.139562 0.00188521 -0.0126497)
(-0.140354 0.00155125 -0.0135873)
(-0.140718 0.000667494 -0.0145572)
(-0.140235 -0.000985339 -0.015562)
(-0.138351 -0.00358548 -0.0165997)
(-0.134407 -0.00717785 -0.0176612)
(-0.127753 -0.0115636 -0.0187263)
(-0.143977 0.0194408 -0.00201748)
(-0.150966 0.0140925 -0.00269191)
(-0.155595 0.00976033 -0.00342043)
(-0.158564 0.00655561 -0.00418756)
(-0.160441 0.00435566 -0.00498091)
(-0.161641 0.00295493 -0.00579173)
(-0.162447 0.00215241 -0.00661429)
(-0.163047 0.00178585 -0.00744516)
(-0.163568 0.00173355 -0.00828268)
(-0.164091 0.00190101 -0.00912662)
(-0.164671 0.00220128 -0.00997788)
(-0.165328 0.00253288 -0.0108384)
(-0.166049 0.00275693 -0.0117111)
(-0.166766 0.00267603 -0.0125998)
(-0.16733 0.00201981 -0.0135091)
(-0.167477 0.000447479 -0.0144443)
(-0.166788 -0.00241522 -0.0154105)
(-0.164654 -0.00689174 -0.0164114)
(-0.160279 -0.0130986 -0.0174458)
(-0.152769 -0.0207362 -0.018504)
(-0.162548 0.0280767 -0.00185429)
(-0.168899 0.0197754 -0.00256968)
(-0.172618 0.0133223 -0.00333374)
(-0.17472 0.00873036 -0.00412957)
(-0.17589 0.00568016 -0.00494431)
(-0.176551 0.00378595 -0.00577016)
(-0.176947 0.00271614 -0.00660261)
(-0.177216 0.00222422 -0.00743919)
(-0.177437 0.00213649 -0.00827866)
(-0.177656 0.00232513 -0.00912064)
(-0.177905 0.00267766 -0.00996537)
(-0.178198 0.0030657 -0.0108136)
(-0.178535 0.00331314 -0.0116669)
(-0.178887 0.00316475 -0.0125275)
(-0.179177 0.00225961 -0.0133994)
(-0.179231 0.000120386 -0.014289)
(-0.178717 -0.0038182 -0.0152046)
(-0.177066 -0.0101038 -0.0161585)
(-0.173376 -0.019055 -0.0171623)
(-0.166391 -0.0303988 -0.0182252)
(-0.171239 0.035835 -0.00155336)
(-0.175599 0.0240974 -0.0023579)
(-0.17733 0.0155345 -0.00319079)
(-0.177843 0.00979044 -0.00403766)
(-0.177858 0.00616218 -0.00488779)
(-0.17771 0.00399708 -0.00573703)
(-0.177531 0.00280848 -0.00658422)
(-0.177359 0.00227002 -0.00742915)
(-0.177195 0.00217057 -0.00827181)
(-0.177033 0.00236651 -0.00911206)
(-0.176869 0.00273958 -0.00994954)
(-0.176709 0.00315839 -0.0107838)
(-0.176572 0.00343994 -0.0116145)
(-0.176486 0.0033081 -0.012442)
(-0.176482 0.00234972 -0.0132688)
(-0.176551 -2.5515e-05 -0.0141012)
(-0.176564 -0.00459751 -0.0149518)
(-0.176126 -0.012248 -0.0158415)
(-0.174353 -0.0237346 -0.0167998)
(-0.169501 -0.0391327 -0.0178736)
(-0.169176 0.0412714 -0.00113432)
(-0.169938 0.0257705 -0.00209406)
(-0.16865 0.0155252 -0.00302888)
(-0.167075 0.00922941 -0.00394255)
(-0.165741 0.0055347 -0.0048339)
(-0.16474 0.00345614 -0.00570782)
(-0.164004 0.00236537 -0.0065694)
(-0.163429 0.00188968 -0.00742201)
(-0.162925 0.00181237 -0.00826733)
(-0.162422 0.00200052 -0.00910562)
(-0.16188 0.00235444 -0.0099359)
(-0.161289 0.00276743 -0.0107562)
(-0.160677 0.00308665 -0.0115639)
(-0.160125 0.00306669 -0.0123568)
(-0.159777 0.0023086 -0.0131342)
(-0.159833 0.000178422 -0.0139)
(-0.160477 -0.00428207 -0.0146697)
(-0.161719 -0.0123748 -0.0154715)
(-0.163008 -0.0256338 -0.0163567)
(-0.162167 -0.0451798 -0.0174417)
(-0.154418 0.0422753 -0.000652055)
(-0.149681 0.0232359 -0.0018475)
(-0.144718 0.0125629 -0.00290502)
(-0.141109 0.00683481 -0.00388542)
(-0.138697 0.00382 -0.00480962)
(-0.137128 0.00226546 -0.00569912)
(-0.136079 0.0015042 -0.00656816)
(-0.135303 0.0011953 -0.00742397)
(-0.134632 0.00116543 -0.00826964)
(-0.133952 0.00132169 -0.00910542)
(-0.133192 0.00160308 -0.00992939)
(-0.132319 0.00194813 -0.0107378)
(-0.131354 0.00226475 -0.0115254)
(-0.130391 0.00239088 -0.0122864)
(-0.129643 0.00203092 -0.0130153)
(-0.129481 0.000643584 -0.0137113)
(-0.130432 -0.00274242 -0.014389)
(-0.133151 -0.00975444 -0.01508)
(-0.138096 -0.0230059 -0.0158513)
(-0.143383 -0.0460435 -0.0169281)
(-0.122612 0.0363823 -0.000388549)
(-0.110671 0.0155945 -0.00184359)
(-0.102735 0.00686423 -0.00294453)
(-0.0983248 0.00316888 -0.0039306)
(-0.0958256 0.00156095 -0.00484667)
(-0.0943677 0.000852764 -0.00572632)
(-0.0934597 0.000549814 -0.00658833)
(-0.0928085 0.000447652 -0.00743996)
(-0.0922378 0.000461924 -0.00828314)
(-0.091635 0.000556699 -0.0091168)
(-0.0909247 0.000713971 -0.00993741)
(-0.0900611 0.000918032 -0.0107391)
(-0.0890361 0.00114258 -0.0115136)
(-0.0879039 0.00133159 -0.0122503)
(-0.0868349 0.00136 -0.0129365)
(-0.086203 0.000944613 -0.0135619)
(-0.0866642 -0.000570746 -0.0141341)
(-0.0894755 -0.00474925 -0.0146594)
(-0.0970246 -0.0150468 -0.0151796)
(-0.110341 -0.039237 -0.0160776)
(-0.0625599 0.0223489 -0.00102344)
(-0.0466352 0.00642392 -0.0024608)
(-0.0401442 0.00194769 -0.00320728)
(-0.0378128 0.000618591 -0.00395242)
(-0.0368119 0.000208243 -0.00471513)
(-0.0363083 8.3792e-05 -0.00549141)
(-0.0360136 5.10092e-05 -0.0062787)
(-0.035794 5.064e-05 -0.00707174)
(-0.0355793 6.62984e-05 -0.00786558)
(-0.0353238 9.48229e-05 -0.0086554)
(-0.0349911 0.000137068 -0.00943534)
(-0.034549 0.000195003 -0.0101973)
(-0.033971 0.000270163 -0.0109298)
(-0.0332441 0.000360441 -0.0116161)
(-0.0323893 0.000449966 -0.0122323)
(-0.0315122 0.000478153 -0.0127443)
(-0.0309403 0.000227583 -0.0131071)
(-0.031604 -0.00112721 -0.0132847)
(-0.037075 -0.00623181 -0.0131628)
(-0.0551762 -0.0249079 -0.0133589)
(-0.0299673 0.000671096 1.63317e-06)
(-0.0318774 0.000484021 1.13883e-06)
(-0.0332337 0.000329227 7.50889e-07)
(-0.0341546 0.000214034 4.71496e-07)
(-0.0347625 0.000136047 2.8719e-07)
(-0.0351641 8.85645e-05 1.76483e-07)
(-0.0354438 6.44767e-05 1.18843e-07)
(-0.0356655 5.81399e-05 9.88307e-08)
(-0.0358777 6.57295e-05 1.0611e-07)
(-0.0361179 8.47616e-05 1.3414e-07)
(-0.0364142 0.000113189 1.78396e-07)
(-0.0367855 0.000148256 2.34354e-07)
(-0.0372371 0.000185194 2.9499e-07)
(-0.0377533 0.00021585 3.48397e-07)
(-0.0382867 0.000227533 3.74869e-07)
(-0.0387465 0.000202684 3.43082e-07)
(-0.0389887 0.00012054 2.11393e-07)
(-0.0388146 -3.82033e-05 -4.88535e-08)
(-0.0379888 -0.000284353 -5.05989e-07)
(-0.0362823 -0.000607306 -1.19224e-06)
(-0.0780345 0.00424824 -1.47059e-06)
(-0.0827515 0.00313284 -1.22577e-06)
(-0.0861315 0.00219873 -9.66922e-07)
(-0.0884603 0.00148837 -7.35988e-07)
(-0.0900279 0.000991799 -5.47605e-07)
(-0.0910849 0.00067435 -4.08862e-07)
(-0.0918296 0.000496842 -3.19189e-07)
(-0.0924119 0.000425686 -2.72707e-07)
(-0.0929432 0.000435243 -2.61347e-07)
(-0.0935051 0.000505691 -2.75666e-07)
(-0.0941539 0.000618585 -3.04573e-07)
(-0.0949189 0.000751246 -3.33581e-07)
(-0.0957941 0.000870659 -3.42978e-07)
(-0.0967231 0.000927711 -3.06621e-07)
(-0.0975793 0.000853392 -1.92592e-07)
(-0.0981438 0.000559957 3.13585e-08)
(-0.0980909 -4.83734e-05 3.88935e-07)
(-0.096993 -0.00105145 8.71011e-07)
(-0.0943598 -0.00247505 1.44908e-06)
(-0.0897292 -0.00424221 1.99165e-06)
(-0.115839 0.0111062 -1.83654e-07)
(-0.12226 0.00817691 -3.17028e-07)
(-0.126758 0.00574546 -3.45802e-07)
(-0.129799 0.00390581 -3.27635e-07)
(-0.131815 0.00262004 -2.79246e-07)
(-0.133159 0.00179207 -2.22449e-07)
(-0.134095 0.00131775 -1.71181e-07)
(-0.134815 0.00110835 -1.30665e-07)
(-0.135454 0.00109502 -1.01545e-07)
(-0.13611 0.00122301 -8.16997e-08)
(-0.136845 0.00144078 -6.75808e-08)
(-0.137686 0.00168682 -5.47816e-08)
(-0.138617 0.00187577 -3.82232e-08)
(-0.13956 0.00188589 -1.15086e-08)
(-0.140353 0.00155147 3.39164e-08)
(-0.140715 0.000667003 1.03316e-07)
(-0.140233 -0.00098683 1.92492e-07)
(-0.138348 -0.00358792 2.97334e-07)
(-0.134406 -0.0071811 4.04261e-07)
(-0.127755 -0.0115691 3.4329e-07)
(-0.143982 0.0194374 -2.85832e-07)
(-0.150967 0.0140887 -4.60948e-07)
(-0.155594 0.00975788 -4.56199e-07)
(-0.158562 0.00655427 -4.04983e-07)
(-0.160439 0.00435515 -3.22156e-07)
(-0.161639 0.00295493 -2.38344e-07)
(-0.162445 0.00215268 -1.68973e-07)
(-0.163046 0.00178624 -1.16502e-07)
(-0.163567 0.00173399 -7.92542e-08)
(-0.164091 0.00190145 -5.39999e-08)
(-0.16467 0.00220169 -3.74553e-08)
(-0.165328 0.00253318 -2.66199e-08)
(-0.166048 0.00275704 -1.88185e-08)
(-0.166765 0.00267587 -9.40419e-09)
(-0.167328 0.00201938 1.48295e-08)
(-0.167476 0.000446866 6.42185e-08)
(-0.166786 -0.00241593 1.14246e-07)
(-0.164651 -0.00689167 2.10644e-07)
(-0.160278 -0.0130963 3.96039e-07)
(-0.152775 -0.0207334 3.47941e-07)
(-0.162556 0.028068 -7.7991e-07)
(-0.168899 0.019768 -8.71123e-07)
(-0.172615 0.0133188 -7.0193e-07)
(-0.174717 0.00872905 -5.47826e-07)
(-0.175887 0.00568011 -3.85221e-07)
(-0.176549 0.00378648 -2.52869e-07)
(-0.176945 0.00271684 -1.61432e-07)
(-0.177215 0.00222488 -1.02391e-07)
(-0.177436 0.00213704 -6.68692e-08)
(-0.177656 0.00232556 -4.78415e-08)
(-0.177904 0.00267797 -4.03795e-08)
(-0.178197 0.00306585 -4.12166e-08)
(-0.178534 0.00331307 -4.81857e-08)
(-0.178887 0.00316441 -5.57865e-08)
(-0.179176 0.00225902 -3.94534e-08)
(-0.179229 0.000119777 2.88624e-08)
(-0.178714 -0.0038183 6.8849e-08)
(-0.17706 -0.0101017 2.10149e-07)
(-0.173373 -0.0190467 6.88596e-07)
(-0.1664 -0.0303863 9.73308e-07)
(-0.171254 0.0358174 -1.6783e-06)
(-0.175594 0.0240855 -1.42091e-06)
(-0.177323 0.015531 -8.82778e-07)
(-0.177838 0.00979019 -5.90109e-07)
(-0.177854 0.00616326 -3.46726e-07)
(-0.177707 0.00399846 -1.82476e-07)
(-0.177529 0.00280972 -9.02919e-08)
(-0.177357 0.002271 -4.14577e-08)
(-0.177194 0.00217132 -1.76342e-08)
(-0.177032 0.00236708 -8.54236e-09)
(-0.176869 0.00274 -9.09639e-09)
(-0.176709 0.00315868 -1.7445e-08)
(-0.176571 0.00344004 -3.35896e-08)
(-0.176486 0.00330792 -5.65655e-08)
(-0.176481 0.00234921 -6.86197e-08)
(-0.176549 -2.60659e-05 -3.58158e-08)
(-0.176559 -0.00459713 -1.23707e-08)
(-0.176116 -0.0122443 1.22407e-07)
(-0.174342 -0.0237188 1.1745e-06)
(-0.169517 -0.0391061 2.45449e-06)
(-0.169207 0.0412469 -4.48119e-06)
(-0.169923 0.0257625 -2.93417e-06)
(-0.168635 0.0155287 -1.34381e-06)
(-0.167067 0.00923357 -6.99749e-07)
(-0.165737 0.00553809 -2.9684e-07)
(-0.164738 0.00345864 -9.11098e-08)
(-0.164003 0.00236709 -1.06307e-08)
(-0.163429 0.00189088 1.58195e-08)
(-0.162924 0.00181329 1.92298e-08)
(-0.162422 0.00200134 1.20016e-08)
(-0.16188 0.00235524 -1.73584e-09)
(-0.161289 0.00276823 -2.1593e-08)
(-0.160677 0.00308739 -4.82224e-08)
(-0.160125 0.00306714 -8.44446e-08)
(-0.159776 0.00230848 -1.17757e-07)
(-0.159831 0.000177694 -7.62938e-08)
(-0.160471 -0.00428372 7.01595e-08)
(-0.161699 -0.0123772 3.63693e-07)
(-0.162983 -0.0256226 2.81962e-06)
(-0.162199 -0.0451452 6.73827e-06)
(-0.154477 0.0422346 -7.62537e-06)
(-0.149649 0.0232459 -3.06567e-06)
(-0.1447 0.012584 -6.1e-07)
(-0.141104 0.00684671 -2.35182e-07)
(-0.138695 0.00382603 2.90766e-08)
(-0.137128 0.0022687 1.22608e-07)
(-0.136079 0.00150603 1.15611e-07)
(-0.135303 0.00119655 9.48599e-08)
(-0.134632 0.00116656 7.85566e-08)
(-0.133952 0.00132296 6.70797e-08)
(-0.133192 0.00160465 5.74719e-08)
(-0.132319 0.00195004 4.51875e-08)
(-0.131354 0.00226691 2.33676e-08)
(-0.130392 0.00239289 -2.78175e-08)
(-0.129643 0.00203194 -1.06045e-07)
(-0.129481 0.000642151 -4.99225e-08)
(-0.130431 -0.00275074 7.55591e-08)
(-0.13313 -0.00977621 -3.48872e-07)
(-0.138052 -0.0230185 2.50321e-06)
(-0.143441 -0.0459889 1.07926e-05)
(-0.122683 0.0361895 -9.54754e-06)
(-0.110604 0.0155366 4.21693e-06)
(-0.102724 0.00685361 4.68857e-06)
(-0.0983339 0.00316196 1.98244e-06)
(-0.0958308 0.00155583 1.01778e-06)
(-0.0943702 0.000849599 6.13016e-07)
(-0.093461 0.000547756 3.8034e-07)
(-0.0928088 0.00044613 2.84364e-07)
(-0.0922376 0.000460612 2.71415e-07)
(-0.0916345 0.000555381 3.05046e-07)
(-0.0909241 0.000712507 3.66524e-07)
(-0.0900607 0.000916375 4.39897e-07)
(-0.0890363 0.00114082 4.97081e-07)
(-0.0879054 0.00133009 4.65102e-07)
(-0.0868383 0.00135952 2.48849e-07)
(-0.0862114 0.000946165 -1.08199e-07)
(-0.0866824 -0.000567135 -1.29985e-06)
(-0.0894715 -0.00474196 -5.79679e-06)
(-0.096937 -0.0149841 -7.78383e-06)
(-0.110392 -0.0389884 1.17792e-05)
(-0.0626005 0.0222068 -5.27335e-05)
(-0.0464793 0.00635694 -8.81022e-06)
(-0.0401005 0.00192082 -5.95097e-07)
(-0.0378087 0.000603464 -1.41795e-06)
(-0.036809 0.000199483 -9.1733e-07)
(-0.0363062 7.89067e-05 -4.25151e-07)
(-0.0360127 4.80703e-05 -2.37378e-07)
(-0.0357937 4.85266e-05 -1.66012e-07)
(-0.0355792 6.4396e-05 -1.45422e-07)
(-0.0353239 9.27645e-05 -1.59339e-07)
(-0.0349913 0.00013463 -1.97479e-07)
(-0.0345493 0.000192096 -2.49833e-07)
(-0.0339713 0.000266914 -3.02365e-07)
(-0.033244 0.00035742 -3.30193e-07)
(-0.0323882 0.000448493 -2.43771e-07)
(-0.0315111 0.000480436 2.03372e-07)
(-0.0309426 0.000237063 6.43429e-07)
(-0.0315633 -0.00110413 -1.8952e-06)
(-0.0368657 -0.00615993 3.92225e-06)
(-0.0551642 -0.0247192 6.61396e-05)
(-0.0299673 0.000671096 -1.63098e-06)
(-0.0318774 0.000484021 -1.13688e-06)
(-0.0332337 0.000329227 -7.49251e-07)
(-0.0341546 0.000214034 -4.70213e-07)
(-0.0347625 0.000136047 -2.86227e-07)
(-0.0351641 8.85644e-05 -1.75788e-07)
(-0.0354437 6.44766e-05 -1.18437e-07)
(-0.0356654 5.81397e-05 -9.86625e-08)
(-0.0358777 6.57291e-05 -1.06068e-07)
(-0.0361178 8.4761e-05 -1.34255e-07)
(-0.0364142 0.000113188 -1.78702e-07)
(-0.0367855 0.000148256 -2.34751e-07)
(-0.0372371 0.000185193 -2.95309e-07)
(-0.0377533 0.000215849 -3.48469e-07)
(-0.0382867 0.000227532 -3.7454e-07)
(-0.0387465 0.000202683 -3.42206e-07)
(-0.0389886 0.00012054 -2.09796e-07)
(-0.0388146 -3.82028e-05 5.12978e-08)
(-0.0379888 -0.000284352 5.09401e-07)
(-0.0362823 -0.000607304 1.19672e-06)
(-0.0780345 0.00424824 1.47338e-06)
(-0.0827514 0.00313284 1.22819e-06)
(-0.0861314 0.00219873 9.68884e-07)