/*--------------------------------*- C++ -*----------------------------------*\
| =========                 |                                                 |
| \\      /  F ield         | OpenFOAM: The Open Source CFD Toolbox           |
|  \\    /   O peration     | Version:  2.4.0                                 |
|   \\  /    A nd           | Web:      www.OpenFOAM.org                      |
|    \\/     M anipulation  |                                                 |
\*---------------------------------------------------------------------------*/
FoamFile
{
    version     2.0;
    format      ascii;
    class       volScalarField;
    location    "3.2";
    object      p;
}
// * * * * * * * * * * * * * * * * * * * * * * * * * * * * * * * * * * * * * //

dimensions      [0 2 -2 0 0 0 0];

internalField   nonuniform List<scalar> 
4800
(
5.05528e-06
-0.00158962
-0.00326408
-0.00450178
-0.00497895
-0.0045447
-0.00315215
-0.000805387
0.00245073
0.00652028
0.00159955
-2.82541e-05
-0.00121748
-0.00192212
-0.00201895
-0.00139809
-1.19775e-05
0.00215468
0.0050929
0.00875563
0.00331364
0.00111185
-8.52116e-05
-0.000634749
-0.000605789
6.01222e-05
0.00139442
0.00342384
0.00617012
0.00962965
0.00447092
0.00161523
0.000244388
-0.000320376
-0.000306604
0.000300257
0.00152023
0.00339866
0.00600139
0.00938463
0.00452095
0.0011468
-0.000408377
-0.00106212
-0.00115721
-0.000705067
0.000320645
0.00200402
0.00448297
0.00792085
0.0030985
-0.000584498
-0.00229103
-0.00308419
-0.0033755
-0.00318278
-0.00245095
-0.00103012
0.00133137
0.00500855
2.71325e-05
-0.00372569
-0.00552847
-0.00649684
-0.00706804
-0.0072511
-0.00694181
-0.0058984
-0.00370933
0.000430725
-0.00469809
-0.00828007
-0.0101149
-0.0112832
-0.0122124
-0.012898
-0.0131769
-0.0127039
-0.0108918
-0.00609056
-0.0109105
-0.0141105
-0.0159123
-0.0172883
-0.0186321
-0.0199342
-0.0209787
-0.0213217
-0.0202796
-0.0146454
-0.018297
-0.0209578
-0.0226632
-0.0242252
-0.025995
-0.0279931
-0.0300187
-0.0316329
-0.0325953
-0.0281887
6.74822e-06
-0.00161021
-0.00329534
-0.00454205
-0.00502462
-0.00459266
-0.00320038
-0.000851609
0.00240881
0.00648526
0.00161755
-3.27012e-05
-0.00120008
-0.00189466
-0.00198649
-0.00136263
2.28401e-05
0.00218771
0.005122
0.00878077
0.00334415
0.00108588
-8.64159e-05
-0.000633708
-0.000607223
5.8715e-05
0.00139274
0.00342161
0.00616716
0.00962783
0.00451508
0.00157855
0.000244519
-0.000317166
-0.000307644
0.000298707
0.00151819
0.00339542
0.00599586
0.00937977
0.0045748
0.0011036
-0.000403525
-0.00105153
-0.00115082
-0.000698978
0.00032607
0.00200719
0.00447948
0.00791406
0.00315674
-0.000632442
-0.00228472
-0.00307074
-0.00336617
-0.0031735
-0.00244188
-0.00102282
0.00132539
0.0049897
8.3836e-05
-0.0037751
-0.00552176
-0.00648215
-0.00705681
-0.00723943
-0.00692886
-0.00588286
-0.00371717
0.000382889
-0.00464434
-0.00832728
-0.0101088
-0.0112689
-0.0122007
-0.0128861
-0.0131633
-0.0126798
-0.0109149
-0.00625708
-0.0108654
-0.0141532
-0.0159081
-0.0172763
-0.0186211
-0.0199222
-0.0209626
-0.0212653
-0.0202629
-0.0150192
-0.0182642
-0.0209946
-0.0226625
-0.0242184
-0.0259878
-0.0279824
-0.0299959
-0.0314923
-0.0322668
-0.0283011
7.21127e-06
-0.0016099
-0.00329513
-0.0045419
-0.00502451
-0.00459258
-0.00320033
-0.000851573
0.00240884
0.00648528
0.00161785
-3.2466e-05
-0.00119989
-0.00189451
-0.00198638
-0.00136256
2.28937e-05
0.00218775
0.00512203
0.00878079
0.00334437
0.00108607
-8.6258e-05
-0.000633586
-0.00060713
5.87842e-05
0.00139279
0.00342164
0.00616718
0.00962784
0.00451524
0.00157869
0.000244641
-0.000317069
-0.000307568
0.000298766
0.00151824
0.00339545
0.00599588
0.00937978
0.00457491
0.0011037
-0.000403436
-0.00105146
-0.00115076
-0.000698932
0.000326104
0.00200721
0.00447949
0.00791407
0.00315681
-0.000632372
-0.00228466
-0.00307069
-0.00336612
-0.00317347
-0.00244185
-0.0010228
0.0013254
0.00498971
8.38869e-05
-0.00377505
-0.00552172
-0.00648211
-0.00705678
-0.00723941
-0.00692884
-0.00588285
-0.00371716
0.000382893
-0.00464431
-0.00832724
-0.0101088
-0.0112688
-0.0122007
-0.0128861
-0.0131633
-0.0126798
-0.0109149
-0.00625707
-0.0108653
-0.0141531
-0.015908
-0.0172762
-0.0186211
-0.0199222
-0.0209625
-0.0212653
-0.0202629
-0.0150192
-0.0182642
-0.0209946
-0.0226625
-0.0242183
-0.0259878
-0.0279824
-0.0299959
-0.0314923
-0.0322668
-0.0283011
8.52253e-06
-0.00158841
-0.00326342
-0.00450134
-0.00497866
-0.0045445
-0.00315201
-0.000805291
0.0024508
0.00652033
0.00160073
-2.7496e-05
-0.00121693
-0.00192172
-0.00201867
-0.0013979
-1.18404e-05
0.00215478
0.00509296
0.00875568
0.00331429
0.00111239
-8.47784e-05
-0.000634422
-0.000605548
6.02974e-05
0.00139455
0.00342393
0.00617018
0.00962969
0.00447135
0.00161561
0.00024471
-0.000320121
-0.000306408
0.000300404
0.00152034
0.00339874
0.00600144
0.00938467
0.00452123
0.00114707
-0.000408146
-0.00106193
-0.00115706
-0.00070495
0.000320731
0.00200408
0.00448301
0.00792088
0.00309868
-0.000584318
-0.00229087
-0.00308405
-0.00337538
-0.00318269
-0.00245089
-0.00103007
0.0013314
0.00500857
2.72482e-05
-0.00372557
-0.00552835
-0.00649675
-0.00706796
-0.00725104
-0.00694176
-0.00589837
-0.0037093
0.00043074
-0.00469801
-0.00827999
-0.0101149
-0.0112831
-0.0122124
-0.012898
-0.0131768
-0.0127038
-0.0108918
-0.00609054
-0.0109104
-0.0141104
-0.0159123
-0.0172882
-0.0186321
-0.0199342
-0.0209786
-0.0213217
-0.0202796
-0.0146454
-0.018297
-0.0209578
-0.0226632
-0.0242252
-0.025995
-0.0279931
-0.0300187
-0.0316329
-0.0325953
-0.0281887
0.0112503
0.0164537
0.0219614
0.0276456
0.0334217
0.0392404
0.045078
0.0509289
0.0568011
0.0627148
0.0687021
0.0748086
0.0810935
0.0876273
0.094486
0.101738
0.109421
0.117519
0.125913
0.134365
0.013046
0.0178261
0.0229663
0.0283588
0.0339212
0.0395957
0.0453462
0.0511543
0.0570163
0.0629415
0.0689511
0.0750775
0.0813628
0.0878561
0.0946073
0.101657
0.109022
0.11667
0.124503
0.132327
0.013737
0.0183538
0.0233569
0.0286432
0.0341289
0.0397521
0.045471
0.0512613
0.0571131
0.0630287
0.0690216
0.0751147
0.0813395
0.0877334
0.0943357
0.101182
0.108291
0.115652
0.123198
0.130784
0.0135078
0.0181692
0.023223
0.0285578
0.0340844
0.0397393
0.0454808
0.0512837
0.0571363
0.0630368
0.0689922
0.0750172
0.0811335
0.0873695
0.0937597
0.100344
0.107162
0.114243
0.121582
0.129109
0.0123157
0.0172701
0.0225823
0.0281278
0.0338129
0.0395803
0.0453967
0.0512437
0.0571122
0.0629994
0.0689069
0.0748406
0.0808113
0.0868366
0.0929457
0.0991851
0.105622
0.112344
0.119445
0.126994
0.0101113
0.0157104
0.0215262
0.0274468
0.0333939
0.0393358
0.0452631
0.0511738
0.0570675
0.0629431
0.0687976
0.0746272
0.0804293
0.0862069
0.091977
0.0977868
0.103731
0.109964
0.116714
0.124324
0.00702554
0.0137567
0.0203246
0.0267389
0.0329927
0.0391194
0.0451554
0.0511249
0.0570401
0.0629026
0.0687045
0.0744309
0.0800623
0.085581
0.0909814
0.0962943
0.10163
0.1072
0.113397
0.121073
0.00347229
0.0119344
0.0194074
0.0263121
0.03281
0.0390544
0.0451478
0.0511432
0.0570629
0.0629082
0.0686645
0.0743036
0.0797864
0.0850682
0.0901086
0.0949023
0.0995536
0.104288
0.109625
0.117223
0.00149436
0.0119212
0.0197123
0.0266453
0.0330821
0.0392558
0.0452998
0.0512665
0.0571699
0.0630015
0.0687349
0.0743261
0.0797135
0.0848172
0.0895431
0.0938141
0.0976807
0.101161
0.104607
0.110928
0.00604109
0.017239
0.0228779
0.0284075
0.0340693
0.0398269
0.045661
0.0515347
0.0574114
0.0632542
0.0690175
0.074638
0.0800253
0.0850495
0.0895244
0.0931888
0.0956896
0.0967343
0.095522
0.0971067
0.011224
0.0164353
0.0219491
0.0276379
0.033417
0.0392374
0.0450759
0.0509272
0.0567993
0.0627124
0.068699
0.0748046
0.0810885
0.0876214
0.0944796
0.101732
0.109418
0.11752
0.125921
0.134384
0.0130683
0.0178447
0.022981
0.0283701
0.0339296
0.0396021
0.0453512
0.0511586
0.0570205
0.0629459
0.068956
0.0750829
0.0813684
0.0878612
0.0946107
0.101657
0.109017
0.116657
0.12448
0.132297
0.0137397
0.0183585
0.0233621
0.0286482
0.0341332
0.0397555
0.0454737
0.0512633
0.0571146
0.06303
0.0690226
0.0751156
0.0813402
0.0877336
0.0943353
0.10118
0.108288
0.115647
0.123192
0.130779
0.0135122
0.0181762
0.02323
0.0285641
0.0340894
0.039743
0.0454834
0.0512855
0.0571375
0.0630376
0.0689928
0.0750177
0.0811338
0.0873697
0.0937597
0.100343
0.107161
0.11424
0.121577
0.129104
0.0123276
0.0172834
0.0225931
0.0281362
0.0338189
0.0395843
0.0453992
0.0512453
0.0571132
0.0630001
0.0689076
0.0748413
0.0808121
0.0868376
0.0929465
0.0991851
0.105621
0.112341
0.119435
0.126979
0.0101366
0.0157321
0.0215397
0.0274558
0.0333993
0.0393386
0.0452645
0.0511744
0.0570678
0.0629432
0.0687977
0.0746275
0.0804299
0.0862077
0.0919782
0.0977874
0.103731
0.109962
0.116696
0.124286
0.007093
0.0138013
0.0203452
0.0267496
0.0329972
0.0391208
0.0451555
0.0511247
0.0570399
0.0629024
0.0687046
0.0744312
0.0800631
0.0855823
0.0909832
0.0962952
0.101629
0.107195
0.113355
0.120969
0.00358689
0.011981
0.0194169
0.0263157
0.0328095
0.0390525
0.045146
0.0511417
0.0570616
0.0629072
0.0686636
0.0743028
0.079786
0.0850686
0.0901101
0.0949028
0.0995522
0.104294
0.109588
0.117058
0.00163756
0.0118577
0.0196412
0.026615
0.0330664
0.0392463
0.0452938
0.0512619
0.0571655
0.0629966
0.068729
0.0743191
0.0797055
0.0848097
0.0895388
0.0938151
0.0976998
0.101249
0.104727
0.11075
0.00687973
0.0173817
0.0228883
0.0284304
0.0340842
0.0398339
0.0456649
0.0515375
0.0574139
0.063257
0.0690209
0.0746423
0.0800305
0.0850551
0.0895287
0.0931862
0.0956802
0.0967652
0.0954603
0.096046
0.011224
0.0164353
0.0219491
0.0276379
0.033417
0.0392374
0.0450759
0.0509272
0.0567993
0.0627124
0.068699
0.0748046
0.0810885
0.0876214
0.0944796
0.101732
0.109418
0.11752
0.125921
0.134384
0.0130683
0.0178447
0.022981
0.0283701
0.0339296
0.0396021
0.0453512
0.0511586
0.0570205
0.0629459
0.068956
0.0750829
0.0813684
0.0878612
0.0946107
0.101657
0.109017
0.116657
0.12448
0.132297
0.0137398
0.0183585
0.0233621
0.0286482
0.0341332
0.0397555
0.0454737
0.0512633
0.0571146
0.06303
0.0690226
0.0751156
0.0813402
0.0877336
0.0943353
0.10118
0.108288
0.115647
0.123192
0.130779
0.0135122
0.0181762
0.02323
0.0285641
0.0340894
0.039743
0.0454834
0.0512855
0.0571375
0.0630376
0.0689928
0.0750177
0.0811338
0.0873697
0.0937597
0.100343
0.107161
0.11424
0.121577
0.129104
0.0123276
0.0172834
0.0225931
0.0281362
0.0338189
0.0395843
0.0453992
0.0512453
0.0571132
0.0630001
0.0689076
0.0748413
0.0808121
0.0868376
0.0929465
0.0991851
0.105621
0.112341
0.119435
0.126979
0.0101367
0.0157321
0.0215397
0.0274558
0.0333993
0.0393386
0.0452645
0.0511744
0.0570678
0.0629432
0.0687977
0.0746275
0.0804299
0.0862078
0.0919782
0.0977874
0.103731
0.109962
0.116696
0.124286
0.007093
0.0138013
0.0203452
0.0267496
0.0329972
0.0391208
0.0451555
0.0511247
0.0570399
0.0629024
0.0687046
0.0744312
0.0800631
0.0855823
0.0909832
0.0962952
0.101629
0.107195
0.113355
0.120969
0.0035869
0.011981
0.0194169
0.0263157
0.0328095
0.0390525
0.045146
0.0511417
0.0570616
0.0629072
0.0686636
0.0743028
0.079786
0.0850686
0.0901101
0.0949028
0.0995522
0.104294
0.109588
0.117058
0.00163756
0.0118577
0.0196412
0.026615
0.0330664
0.0392463
0.0452938
0.0512619
0.0571655
0.0629966
0.068729
0.0743191
0.0797055
0.0848097
0.0895388
0.0938151
0.0976998
0.101249
0.104727
0.11075
0.00687973
0.0173817
0.0228883
0.0284304
0.0340842
0.0398339
0.0456649
0.0515375
0.0574139
0.063257
0.0690209
0.0746423
0.0800305
0.0850551
0.0895287
0.0931862
0.0956802
0.0967652
0.0954603
0.096046
0.0112504
0.0164538
0.0219614
0.0276456
0.0334217
0.0392404
0.045078
0.0509289
0.0568011
0.0627148
0.0687021
0.0748086
0.0810935
0.0876273
0.094486
0.101738
0.109421
0.117519
0.125913
0.134365
0.013046
0.0178262
0.0229663
0.0283588
0.0339212
0.0395957
0.0453462
0.0511543
0.0570163
0.0629415
0.0689511
0.0750775
0.0813628
0.0878561
0.0946073
0.101657
0.109022
0.11667
0.124503
0.132327
0.0137371
0.0183538
0.0233569
0.0286432
0.0341289
0.0397521
0.045471
0.0512613
0.0571131
0.0630287
0.0690216
0.0751147
0.0813395
0.0877334
0.0943357
0.101182
0.108291
0.115652
0.123198
0.130784
0.0135078
0.0181692
0.023223
0.0285579
0.0340845
0.0397393
0.0454808
0.0512837
0.0571363
0.0630368
0.0689922
0.0750172
0.0811335
0.0873695
0.0937597
0.100344
0.107162
0.114243
0.121582
0.129109
0.0123158
0.0172701
0.0225824
0.0281278
0.0338129
0.0395803
0.0453967
0.0512437
0.0571122
0.0629994
0.0689069
0.0748406
0.0808113
0.0868367
0.0929457
0.0991851
0.105622
0.112344
0.119445
0.126994
0.0101113
0.0157104
0.0215262
0.0274468
0.0333939
0.0393358
0.0452631
0.0511738
0.0570675
0.0629431
0.0687976
0.0746272
0.0804293
0.0862069
0.091977
0.0977868
0.103731
0.109964
0.116714
0.124324
0.00702555
0.0137567
0.0203246
0.0267389
0.0329927
0.0391194
0.0451554
0.0511249
0.0570401
0.0629026
0.0687045
0.0744309
0.0800623
0.085581
0.0909814
0.0962943
0.10163
0.1072
0.113397
0.121073
0.0034723
0.0119345
0.0194074
0.0263121
0.03281
0.0390544
0.0451478
0.0511432
0.0570629
0.0629082
0.0686645
0.0743036
0.0797864
0.0850682
0.0901086
0.0949023
0.0995536
0.104288
0.109625
0.117223
0.00149437
0.0119212
0.0197123
0.0266453
0.0330821
0.0392558
0.0452998
0.0512665
0.0571699
0.0630015
0.0687349
0.0743261
0.0797135
0.0848172
0.0895431
0.0938141
0.0976807
0.101161
0.104607
0.110928
0.00604111
0.017239
0.0228779
0.0284075
0.0340693
0.0398269
0.0456609
0.0515347
0.0574114
0.0632542
0.0690175
0.074638
0.0800253
0.0850495
0.0895244
0.0931888
0.0956896
0.0967343
0.095522
0.0971067
0.142508
0.149896
0.156111
0.160839
0.163915
0.165341
0.165294
0.164137
0.162423
0.160829
0.139849
0.146697
0.15253
0.157087
0.160232
0.161966
0.162436
0.161934
0.160794
0.159231
0.138144
0.144896
0.150695
0.155284
0.158525
0.16041
0.161065
0.160737
0.159604
0.157555
0.136582
0.143519
0.149526
0.154315
0.157731
0.159757
0.160501
0.160188
0.1589
0.156317
0.134811
0.142174
0.148595
0.153743
0.15744
0.159662
0.160516
0.160219
0.158805
0.155841
0.132812
0.14087
0.147908
0.153558
0.157632
0.160115
0.161125
0.160888
0.159429
0.156278
0.130786
0.139823
0.147626
0.153865
0.158363
0.161142
0.162348
0.162227
0.160821
0.157676
0.12917
0.139476
0.148094
0.154905
0.159783
0.162827
0.164231
0.164263
0.162996
0.160032
0.128206
0.140512
0.149899
0.157089
0.162143
0.165309
0.166841
0.16702
0.165948
0.163303
0.132607
0.146133
0.154689
0.161222
0.165818
0.168751
0.170233
0.170494
0.169629
0.167395
0.142541
0.149941
0.156165
0.160898
0.163974
0.165395
0.165338
0.164168
0.162441
0.160828
0.139812
0.146655
0.152483
0.157038
0.160184
0.161923
0.1624
0.161908
0.160789
0.15921
0.138144
0.1449
0.150701
0.155291
0.158531
0.160415
0.161065
0.160735
0.159621
0.157524
0.136588
0.143531
0.14954
0.15433
0.157745
0.159768
0.160504
0.160189
0.158927
0.156277
0.134819
0.142185
0.148607
0.153754
0.157449
0.159669
0.160515
0.160217
0.158837
0.155795
0.132823
0.140882
0.14792
0.15357
0.157641
0.160121
0.161124
0.160886
0.159465
0.15623
0.130809
0.139839
0.147639
0.153878
0.158372
0.161147
0.162346
0.162225
0.160857
0.157628
0.12931
0.139532
0.148118
0.154921
0.15979
0.16283
0.164228
0.164261
0.16303
0.159986
0.128534
0.140528
0.149876
0.157082
0.162137
0.165305
0.166835
0.167017
0.165977
0.163261
0.132495
0.145759
0.154522
0.161174
0.165799
0.168744
0.170229
0.170492
0.169654
0.16736
0.142541
0.149941
0.156165
0.160898
0.163974
0.165395
0.165338
0.164168
0.162441
0.160828
0.139812
0.146655
0.152483
0.157038
0.160184
0.161923
0.1624
0.161908
0.160789
0.15921
0.138144
0.1449
0.150701
0.155291
0.158531
0.160415
0.161065
0.160735
0.159621
0.157524
0.136588
0.143531
0.14954
0.15433
0.157745
0.159768
0.160504
0.160189
0.158927
0.156277
0.134819
0.142185
0.148607
0.153754
0.157449
0.159669
0.160515
0.160217
0.158837
0.155795
0.132823
0.140882
0.14792
0.15357
0.157641
0.160121
0.161124
0.160886
0.159465
0.15623
0.130809
0.139839
0.147639
0.153878
0.158372
0.161147
0.162346
0.162225
0.160857
0.157628
0.12931
0.139532
0.148118
0.154921
0.15979
0.16283
0.164228
0.164261
0.16303
0.159986
0.128534
0.140528
0.149876
0.157082
0.162137
0.165305
0.166835
0.167017
0.165977
0.163261
0.132495
0.145759
0.154522
0.161174
0.165799
0.168744
0.170229
0.170492
0.169654
0.16736
0.142508
0.149896
0.156111
0.160839
0.163915
0.165341
0.165294
0.164137
0.162423
0.160829
0.139849
0.146697
0.15253
0.157087
0.160232
0.161966
0.162436
0.161934
0.160794
0.159231
0.138144
0.144895
0.150695
0.155284
0.158525
0.16041
0.161065
0.160737
0.159604
0.157555
0.136582
0.143519
0.149526
0.154315
0.157731
0.159757
0.160501
0.160188
0.1589
0.156317
0.134811
0.142174
0.148595
0.153743
0.15744
0.159662
0.160516
0.160219
0.158805
0.155841
0.132812
0.14087
0.147908
0.153558
0.157632
0.160115
0.161125
0.160888
0.159429
0.156278
0.130786
0.139823
0.147626
0.153865
0.158363
0.161142
0.162348
0.162227
0.160821
0.157676
0.12917
0.139476
0.148094
0.154905
0.159783
0.162827
0.164231
0.164263
0.162996
0.160032
0.128206
0.140512
0.149899
0.157089
0.162143
0.165309
0.166841
0.16702
0.165948
0.163303
0.132607
0.146133
0.154689
0.161222
0.165818
0.168751
0.170233
0.170494
0.169629
0.167395
0.166789
0.162241
0.16423
0.167804
0.170917
0.17315
0.174369
0.17462
0.173944
0.172157
0.177926
0.172627
0.172664
0.174519
0.176511
0.17811
0.179045
0.17926
0.178756
0.177403
0.1835
0.180373
0.180106
0.181069
0.182322
0.183428
0.184116
0.18429
0.183935
0.182966
0.188958
0.187261
0.186982
0.187467
0.188237
0.18898
0.189466
0.189603
0.189368
0.188718
0.194543
0.193658
0.193459
0.193709
0.194181
0.194668
0.195004
0.195108
0.194967
0.194567
0.200231
0.19981
0.199701
0.199839
0.200125
0.200435
0.200656
0.200734
0.200662
0.200453
0.206023
0.20587
0.205828
0.205902
0.206062
0.206241
0.206372
0.206421
0.206397
0.206333
0.211906
0.211928
0.21192
0.211941
0.211998
0.212064
0.212108
0.212119
0.21212
0.21217
0.217908
0.218038
0.218035
0.21799
0.217939
0.217885
0.217831
0.217785
0.217788
0.21792
0.224067
0.224258
0.224225
0.224082
0.223893
0.22369
0.223507
0.223375
0.22335
0.223532
0.230448
0.23065
0.230536
0.230246
0.229868
0.229466
0.229107
0.228845
0.228752
0.228942
0.237145
0.23728
0.237017
0.236509
0.235871
0.2352
0.234601
0.234153
0.233939
0.234074
0.244274
0.244218
0.243708
0.242891
0.241902
0.24088
0.239965
0.239263
0.238858
0.238844
0.251979
0.251524
0.250632
0.249396
0.247956
0.246494
0.245183
0.244151
0.243466
0.243166
0.26044
0.259207
0.257764
0.255991
0.254007
0.252031
0.250259
0.248824
0.247756
0.246971
0.269768
0.267239
0.26499
0.262568
0.259987
0.257475
0.255219
0.253331
0.251758
0.250242
0.280024
0.275286
0.271966
0.268861
0.265735
0.262781
0.260115
0.257782
0.255595
0.253027
0.290883
0.282587
0.277988
0.27435
0.270935
0.267838
0.265014
0.262365
0.259493
0.255497
0.302326
0.288158
0.281886
0.278089
0.274976
0.272381
0.269956
0.267345
0.263828
0.257998
0.313353
0.288429
0.280464
0.27791
0.276599
0.275843
0.2749
0.273065
0.26917
0.261134
0.167627
0.162384
0.164344
0.167871
0.170942
0.173162
0.174373
0.174623
0.173967
0.17213
0.178068
0.172563
0.172711
0.174564
0.176533
0.178123
0.179052
0.179265
0.178775
0.177385
0.18351
0.180303
0.180116
0.18109
0.182335
0.183439
0.184123
0.184295
0.183949
0.182954
0.18898
0.187231
0.186986
0.187477
0.188246
0.188988
0.189472
0.189607
0.189378
0.18871
0.194557
0.193644
0.193458
0.193714
0.194186
0.194674
0.195008
0.195112
0.194974
0.194563
0.200237
0.199803
0.199699
0.19984
0.200127
0.200438
0.20066
0.200737
0.200666
0.200451
0.206024
0.205868
0.205827
0.205902
0.206064
0.206244
0.206374
0.206423
0.206398
0.206333
0.211905
0.211929
0.211919
0.21194
0.211999
0.212065
0.21211
0.21212
0.212119
0.212171
0.217906
0.218041
0.218035
0.217989
0.217939
0.217885
0.217832
0.217786
0.217785
0.217922
0.224063
0.224262
0.224224
0.224081
0.223893
0.22369
0.223508
0.223375
0.223346
0.223535
0.230443
0.230655
0.230536
0.230245
0.229868
0.229466
0.229107
0.228845
0.228748
0.228946
0.237139
0.237284
0.237016
0.236508
0.23587
0.2352
0.234601
0.234154
0.233935
0.234079
0.244268
0.24422
0.243706
0.242889
0.241901
0.240879
0.239965
0.239264
0.238856
0.238849
0.251974
0.251519
0.250628
0.249393
0.247954
0.246492
0.245183
0.244153
0.243469
0.24317
0.260439
0.259189
0.257758
0.255987
0.254004
0.252029
0.250259
0.248827
0.247765
0.246972
0.269781
0.267201
0.264983
0.262565
0.259983
0.257474
0.255219
0.253336
0.25178
0.250238
0.280075
0.275217
0.27196
0.26886
0.26573
0.26278
0.260115
0.25779
0.255634
0.253013
0.290949
0.282413
0.277965
0.274348
0.270927
0.267837
0.265016
0.262378
0.259557
0.255468
0.302442
0.287833
0.281892
0.278132
0.27499
0.272394
0.269965
0.267367
0.263927
0.257949
0.314684
0.288536
0.280758
0.278094
0.276667
0.275877
0.274915
0.273095
0.269312
0.261058
0.167627
0.162384
0.164344
0.167871
0.170942
0.173162
0.174373
0.174623
0.173967
0.17213
0.178068
0.172563
0.172711
0.174564
0.176533
0.178123
0.179052
0.179265
0.178775
0.177385
0.18351
0.180303
0.180116
0.18109
0.182335
0.183439
0.184123
0.184295
0.183949
0.182954
0.18898
0.187231
0.186986
0.187477
0.188246
0.188988
0.189472
0.189607
0.189378
0.18871
0.194557
0.193644
0.193458
0.193714
0.194186
0.194674
0.195008
0.195112
0.194974
0.194563
0.200237
0.199803
0.199699
0.19984
0.200127
0.200438
0.20066
0.200737
0.200666
0.200451
0.206024
0.205868
0.205827
0.205902
0.206064
0.206244
0.206374
0.206423
0.206398
0.206333
0.211905
0.211929
0.211919
0.21194
0.211999
0.212065
0.21211
0.21212
0.212119
0.212171
0.217906
0.218041
0.218035
0.217989
0.217939
0.217885
0.217832
0.217786
0.217785
0.217922
0.224063
0.224262
0.224224
0.224081
0.223893
0.22369
0.223508
0.223375
0.223346
0.223535
0.230443
0.230655
0.230536
0.230245
0.229868
0.229466
0.229107
0.228845
0.228748
0.228946
0.237139
0.237284
0.237016
0.236508
0.23587
0.2352
0.234601
0.234154
0.233935
0.234079
0.244268
0.24422
0.243706
0.242889
0.241901
0.240879
0.239965
0.239264
0.238856
0.238849
0.251974
0.251519
0.250628
0.249393
0.247954
0.246492
0.245183
0.244153
0.243469
0.24317
0.260439
0.259189
0.257758
0.255987
0.254004
0.252029
0.250259
0.248827
0.247765
0.246972
0.269781
0.267201
0.264983
0.262565
0.259983
0.257474
0.255219
0.253336
0.25178
0.250238
0.280075
0.275217
0.27196
0.26886
0.26573
0.26278
0.260115
0.25779
0.255634
0.253013
0.290949
0.282413
0.277965
0.274348
0.270927
0.267837
0.265016
0.262378
0.259557
0.255468
0.302442
0.287833
0.281892
0.278132
0.27499
0.272394
0.269965
0.267367
0.263927
0.257949
0.314684
0.288536
0.280758
0.278094
0.276667
0.275877
0.274915
0.273095
0.269312
0.261058
0.166789
0.162241
0.16423
0.167804
0.170917
0.17315
0.174369
0.17462
0.173944
0.172157
0.177926
0.172627
0.172664
0.174519
0.176511
0.17811
0.179045
0.17926
0.178756
0.177403
0.1835
0.180373
0.180106
0.181069
0.182322
0.183428
0.184116
0.18429
0.183935
0.182966
0.188958
0.187261
0.186982
0.187467
0.188237
0.18898
0.189466
0.189603
0.189368
0.188718
0.194543
0.193658
0.193459
0.193709
0.194181
0.194668
0.195004
0.195108
0.194967
0.194567
0.200231
0.19981
0.199701
0.199839
0.200125
0.200435
0.200656
0.200734
0.200662
0.200453
0.206023
0.20587
0.205828
0.205902
0.206062
0.206241
0.206372
0.206421
0.206397
0.206333
0.211906
0.211928
0.21192
0.211941
0.211998
0.212064
0.212108
0.212119
0.21212
0.21217
0.217908
0.218038
0.218035
0.21799
0.217939
0.217885
0.217831
0.217785
0.217788
0.21792
0.224067
0.224258
0.224225
0.224082
0.223893
0.22369
0.223507
0.223375
0.22335
0.223532
0.230448
0.23065
0.230536
0.230246
0.229868
0.229466
0.229107
0.228845
0.228752
0.228942
0.237145
0.23728
0.237017
0.236509
0.235871
0.2352
0.234601
0.234153
0.233939
0.234074
0.244274
0.244218
0.243708
0.242891
0.241902
0.24088
0.239965
0.239263
0.238858
0.238844
0.251979
0.251524
0.250632
0.249396
0.247956
0.246494
0.245183
0.244151
0.243466
0.243166
0.26044
0.259207
0.257764
0.255991
0.254007
0.252031
0.250259
0.248824
0.247756
0.246971
0.269768
0.267239
0.26499
0.262568
0.259987
0.257475
0.255219
0.253331
0.251758
0.250242
0.280024
0.275286
0.271966
0.268861
0.265735
0.262781
0.260115
0.257782
0.255595
0.253027
0.290883
0.282587
0.277988
0.27435
0.270935
0.267838
0.265014
0.262365
0.259493
0.255497
0.302326
0.288158
0.281886
0.278089
0.274976
0.272381
0.269956
0.267345
0.263828
0.257998
0.313353
0.288429
0.280464
0.27791
0.276599
0.275843
0.2749
0.273065
0.26917
0.261134
0.252844
0.261462
0.266709
0.270814
0.274376
0.277623
0.279835
0.280012
0.276368
0.265894
0.223721
0.239545
0.250778
0.260332
0.269416
0.278068
0.285144
0.288977
0.286691
0.273847
0.20625
0.221584
0.234949
0.248452
0.262916
0.277888
0.291536
0.301113
0.301974
0.28745
0.192742
0.206582
0.220778
0.237205
0.256643
0.278469
0.300318
0.318183
0.32491
0.310646
0.182911
0.195564
0.210236
0.228994
0.252992
0.281949
0.313541
0.342762
0.359477
0.349901
0.17701
0.189347
0.204846
0.225924
0.254367
0.290754
0.333687
0.378143
0.411263
0.415321
0.174854
0.187933
0.205021
0.228907
0.262139
0.306589
0.362825
0.427539
0.486772
0.521232
0.175559
0.190117
0.209363
0.23648
0.274926
0.328343
0.400398
0.49117
0.590959
0.694804
0.177495
0.193175
0.21386
0.243025
0.28509
0.345953
0.433926
0.557237
0.72607
1.00592
0.178857
0.194043
0.213541
0.240727
0.280293
0.339593
0.432621
0.586902
0.873256
1.49037
0.253183
0.260997
0.266582
0.270804
0.274374
0.277631
0.279839
0.280046
0.276564
0.265782
0.224141
0.239472
0.250714
0.260298
0.269394
0.278062
0.285137
0.289013
0.286954
0.273694
0.206506
0.221602
0.234917
0.248411
0.262876
0.277861
0.291505
0.301146
0.302314
0.287254
0.192832
0.206566
0.220726
0.237136
0.25657
0.278402
0.300244
0.318199
0.325321
0.310408
0.182938
0.195531
0.210165
0.228897
0.252877
0.281827
0.313402
0.342738
0.359911
0.349646
0.177017
0.18931
0.204767
0.225804
0.254208
0.290554
0.333445
0.378025
0.411618
0.415274
0.174869
0.187911
0.204953
0.228785
0.261942
0.306276
0.362393
0.427204
0.486749
0.521721
0.175603
0.190151
0.209384
0.23648
0.274874
0.328142
0.40002
0.490825
0.58966
0.694486
0.177563
0.193288
0.214045
0.243315
0.285521
0.346513
0.434668
0.55784
0.722838
1.00363
0.178907
0.194082
0.21356
0.24073
0.280306
0.339668
0.432978
0.587336
0.869567
1.49962
0.253183
0.260997
0.266582
0.270804
0.274374
0.277631
0.279839
0.280046
0.276564
0.265782
0.224141
0.239472
0.250714
0.260298
0.269394
0.278062
0.285137
0.289013
0.286954
0.273694
0.206506
0.221602
0.234917
0.248411
0.262876
0.277861
0.291505
0.301146
0.302314
0.287254
0.192832
0.206566
0.220726
0.237136
0.25657
0.278402
0.300244
0.318199
0.325321
0.310408
0.182938
0.195531
0.210165
0.228897
0.252877
0.281827
0.313402
0.342738
0.359911
0.349646
0.177017
0.18931
0.204767
0.225804
0.254208
0.290554
0.333445
0.378025
0.411618
0.415274
0.174869
0.187911
0.204953
0.228785
0.261942
0.306276
0.362393
0.427204
0.486749
0.521721
0.175603
0.190151
0.209384
0.23648
0.274874
0.328142
0.40002
0.490825
0.58966
0.694486
0.177563
0.193288
0.214045
0.243315
0.285521
0.346513
0.434668
0.55784
0.722838
1.00363
0.178907
0.194082
0.21356
0.24073
0.280306
0.339668
0.432978
0.587336
0.869567
1.49962
0.252844
0.261462
0.266709
0.270814
0.274376
0.277623
0.279835
0.280012
0.276368
0.265894
0.223721
0.239545
0.250778
0.260332
0.269416
0.278068
0.285144
0.288977
0.286691
0.273847
0.20625
0.221584
0.234949
0.248452
0.262916
0.277888
0.291536
0.301113
0.301974
0.28745
0.192742
0.206582
0.220778
0.237205
0.256643
0.278469
0.300318
0.318183
0.32491
0.310646
0.182911
0.195564
0.210236
0.228994
0.252992
0.281949
0.313541
0.342762
0.359477
0.349901
0.17701
0.189347
0.204846
0.225924
0.254367
0.290754
0.333687
0.378143
0.411263
0.415321
0.174854
0.187933
0.205021
0.228907
0.262139
0.306589
0.362825
0.427539
0.486772
0.521232
0.175559
0.190117
0.209363
0.23648
0.274926
0.328343
0.400398
0.49117
0.590959
0.694804
0.177495
0.193175
0.21386
0.243025
0.28509
0.345953
0.433926
0.557237
0.72607
1.00592
0.178857
0.194043
0.213541
0.240727
0.280293
0.339593
0.432621
0.586902
0.873256
1.49037
-0.153617
-0.132959
-0.114929
-0.0982968
-0.0816859
-0.0648899
-0.0479012
-0.0307553
-0.0135129
0.00375453
0.0209704
0.0380626
0.0549645
0.071627
0.0880765
0.1045
0.121381
0.139758
0.162931
0.200684
-0.139683
-0.126201
-0.111684
-0.0964362
-0.0805084
-0.0641107
-0.047378
-0.0304075
-0.0132835
0.00391915
0.0211351
0.0383056
0.0553911
0.0723944
0.0893873
0.106576
0.124358
0.143356
0.16508
0.192988
-0.136486
-0.124491
-0.110791
-0.0959344
-0.0802405
-0.0639734
-0.047306
-0.0303604
-0.0132305
0.00400897
0.0212971
0.0385848
0.0558386
0.0730517
0.090263
0.107589
0.125243
0.143519
0.162974
0.184514
-0.137685
-0.125379
-0.111501
-0.0965092
-0.0807111
-0.0643466
-0.0475849
-0.0305461
-0.013318
0.00403263
0.0214528
0.0388972
0.0563255
0.0737021
0.0909999
0.108207
0.125325
0.142354
0.159352
0.176424
-0.140391
-0.127407
-0.113037
-0.0976637
-0.0815721
-0.0649772
-0.0480305
-0.0308366
-0.0134684
0.00402076
0.021587
0.0391868
0.0567676
0.0742587
0.0915623
0.108547
0.125042
0.14084
0.155771
0.169796
-0.142832
-0.129229
-0.114388
-0.0986515
-0.0822828
-0.065477
-0.0483674
-0.0310424
-0.013561
0.0040343
0.0217054
0.0394068
0.0570716
0.0745966
0.0918279
0.108554
0.1245
0.139372
0.152964
0.165334
-0.143347
-0.129502
-0.114524
-0.0987066
-0.0822902
-0.065455
-0.0483247
-0.0309816
-0.0134807
0.00413669
0.0218305
0.0395479
0.0572082
0.0746856
0.0917956
0.10829
0.123871
0.138254
0.1513
0.163224
-0.141058
-0.127567
-0.11297
-0.0975008
-0.0813764
-0.0647726
-0.0478189
-0.030607
-0.0132029
0.00434109
0.0219737
0.0396297
0.0572161
0.074596
0.0915779
0.107917
0.123344
0.137637
0.150761
0.163075
-0.135974
-0.123615
-0.109992
-0.0953119
-0.0797987
-0.0636524
-0.047033
-0.0300624
-0.012833
0.00458173
0.0221153
0.0396871
0.0571947
0.0745003
0.091419
0.107726
0.12319
0.137645
0.151125
0.164059
-0.127729
-0.117664
-0.105797
-0.0924159
-0.0778365
-0.0623446
-0.0461753
-0.0295101
-0.0124859
0.00479196
0.0222334
0.0397567
0.0572588
0.0746042
0.0916184
0.108088
0.123787
0.138538
0.152328
0.16548
-0.153997
-0.132841
-0.114914
-0.0983191
-0.0816986
-0.0648975
-0.0479065
-0.0307586
-0.0135147
0.00375416
0.020971
0.0380634
0.0549644
0.0716241
0.0880668
0.10448
0.121358
0.139709
0.162601
0.200082
-0.139626
-0.126031
-0.111607
-0.0963993
-0.080482
-0.0640922
-0.0473654
-0.030399
-0.013278
0.00392254
0.0211375
0.0383084
0.0553963
0.0724052
0.0894066
0.106608
0.124418
0.143428
0.16498
0.19273
-0.136547
-0.124465
-0.110767
-0.0959161
-0.0802257
-0.0639628
-0.0472987
-0.0303553
-0.0132269
0.00401136
0.0212986
0.0385857
0.0558392
0.0730521
0.0902617
0.107584
0.125237