/*--------------------------------*- C++ -*----------------------------------*\
| =========                 |                                                 |
| \\      /  F ield         | OpenFOAM: The Open Source CFD Toolbox           |
|  \\    /   O peration     | Version:  2.4.0                                 |
|   \\  /    A nd           | Web:      www.OpenFOAM.org                      |
|    \\/     M anipulation  |                                                 |
\*---------------------------------------------------------------------------*/
FoamFile
{
    version     2.0;
    format      ascii;
    class       surfaceScalarField;
    location    "3.2";
    object      phi;
}
// * * * * * * * * * * * * * * * * * * * * * * * * * * * * * * * * * * * * * //

dimensions      [0 3 -1 0 0 0 0];

internalField   nonuniform List<scalar> 
12720
(
1.52672e-07
-1.53771e-07
-1.32344e-10
-5.42742e-07
6.9372e-07
1.69432e-09
-2.06808e-06
1.52277e-06
2.57301e-09
-4.17651e-06
2.10512e-06
3.31422e-09
-6.6322e-06
2.45193e-06
3.75802e-09
-9.24088e-06
2.60473e-06
3.94619e-09
-1.18426e-05
2.59772e-06
3.96898e-09
-1.42988e-05
2.45241e-06
3.80379e-09
-1.64885e-05
2.18623e-06
3.44981e-09
1.82797e-06
2.88189e-09
-1.83193e-05
-7.25531e-07
5.73243e-07
-1.48139e-09
-3.29181e-06
3.25961e-06
3.86329e-10
-7.48703e-06
5.7195e-06
-1.51158e-09
-1.28876e-05
7.50807e-06
-2.38558e-09
-1.90459e-05
8.6131e-06
-2.82052e-09
-2.5544e-05
9.10591e-06
-3.08071e-09
-3.20026e-05
9.05982e-06
-3.51361e-09
-3.80806e-05
8.5332e-06
-2.86893e-09
-4.34829e-05
7.59109e-06
-2.5285e-09
6.3416e-06
-2.18391e-09
-4.79943e-05
-1.69029e-06
2.26604e-06
-2.51024e-09
-6.11981e-06
7.68687e-06
2.25596e-09
-1.26935e-05
1.22931e-05
1.04617e-10
-2.08169e-05
1.56315e-05
-9.0447e-11
-2.99047e-05
1.77008e-05
1.2458e-10
-3.94001e-05
1.86012e-05
1.22254e-10
-4.87766e-05
1.84362e-05
1.45638e-10
-5.7542e-05
1.72984e-05
1.94023e-10
-6.52625e-05
1.53113e-05
2.57471e-10
1.26978e-05
1.58352e-10
-7.16189e-05
-2.48238e-06
4.75206e-06
-3.63417e-09
-8.48871e-06
1.369e-05
3.18647e-09
-1.70356e-05
2.084e-05
-1.14074e-11
-2.73406e-05
2.59368e-05
-2.78856e-10
-3.87048e-05
2.9065e-05
9.03939e-11
-5.04748e-05
3.0371e-05
1.34609e-10
-6.20185e-05
2.99797e-05
1.77168e-10
-7.2722e-05
2.80016e-05
2.82141e-10
-8.20193e-05
2.46082e-05
4.8046e-10
2.01526e-05
4.22302e-10
-8.94745e-05
-3.04223e-06
7.79872e-06
-4.43165e-09
-1.02007e-05
2.08448e-05
3.75328e-09
-2.01901e-05
3.08298e-05
-4.21516e-10
-3.20703e-05
3.78179e-05
-9.19581e-10
-4.50538e-05
4.2049e-05
-5.54627e-10
-5.84197e-05
4.37375e-05
-5.28921e-10
-7.14588e-05
4.30193e-05
-4.71308e-10
-8.34499e-05
3.9993e-05
-2.75372e-10
-9.36808e-05
3.48387e-05
3.03627e-10
2.80161e-05
5.9048e-10
-0.000101545
-3.3459e-06
1.11494e-05
-4.79258e-09
-1.1151e-05
2.86457e-05
4.16505e-09
-2.19573e-05
4.16366e-05
-5.47861e-10
-3.47273e-05
5.0589e-05
-1.16797e-09
-4.86204e-05
5.59429e-05
-8.10448e-10
-6.28796e-05
5.79975e-05
-8.06257e-10
-7.67481e-05
5.68885e-05
-7.88541e-10
-8.94144e-05
5.26599e-05
-6.34086e-10
-9.99978e-05
4.54216e-05
5.20047e-10
3.56299e-05
1.63763e-09
-0.000107613
-3.38437e-06
1.45393e-05
-5.52233e-09
-1.12899e-05
3.6547e-05
4.29289e-09
-2.22248e-05
5.25721e-05
-5.82512e-10
-3.51245e-05
6.34899e-05
-1.27639e-09
-4.91354e-05
6.99547e-05
-9.75049e-10
-6.34989e-05
7.23621e-05
-1.01404e-09
-7.74507e-05
7.08414e-05
-1.1247e-09
-9.01292e-05
6.53399e-05
-1.34943e-09
-0.000100488
5.57794e-05
6.81517e-10
4.234e-05
4.15562e-09
-0.000107202
-3.16478e-06
1.77085e-05
-4.42301e-09
-1.06241e-05
4.40022e-05
4.10112e-09
-2.09784e-05
6.2927e-05
-5.34215e-10
-3.31961e-05
7.57089e-05
-1.24284e-09
-4.64399e-05
8.31996e-05
-1.01847e-09
-5.99743e-05
8.58975e-05
-1.03787e-09
-7.30702e-05
8.39385e-05
-1.17687e-09
-8.48885e-05
7.71602e-05
-2.08936e-09
-9.43029e-05
6.51919e-05
2.00675e-09
4.73948e-05
1.4466e-08
-9.93722e-05
-2.71761e-06
2.04298e-05
-3.71354e-09
-9.23825e-06
5.05191e-05
3.70798e-09
-1.83476e-05
7.20367e-05
-3.71101e-10
-2.90813e-05
8.64436e-05
-1.04281e-09
-4.06164e-05
9.47357e-05
-9.58674e-10
-5.22239e-05
9.7506e-05
-1.04062e-09
-6.32093e-05
9.49253e-05
-1.4001e-09
-7.28087e-05
8.67645e-05
-4.89895e-09
-8.0036e-05
7.24207e-05
-1.4531e-09
4.97004e-05
3.24724e-08
-8.23741e-05
-2.10699e-06
-2.69758e-09
2.25395e-05
-7.321e-06
3.19902e-09
5.57299e-05
-1.46642e-05
-6.24019e-11
7.938e-05
-2.32432e-05
-5.94785e-10
9.50231e-05
-3.2205e-05
-6.335e-10
0.000103698
-4.07239e-05
-9.32126e-10
0.000106026
-4.79813e-05
-1.9828e-09
0.000102185
-5.306e-05
-1.22071e-08
9.18554e-05
-5.48502e-05
-2.85384e-08
7.42395e-05
9.7642e-09
-5.2176e-05
4.70164e-05
1.54409e-07
-1.54507e-07
-3.52931e-11
-5.43232e-07
6.99358e-07
-2.09343e-11
-2.06876e-06
1.52812e-06
-1.80176e-11
-4.1766e-06
2.11116e-06
-1.32897e-11
-6.63201e-06
2.45919e-06
-9.44765e-12
-9.24069e-06
2.61262e-06
-6.68744e-12
-1.18426e-05
2.60586e-06
-4.53344e-12
-1.4299e-05
2.4602e-06
-3.17984e-12
-1.64889e-05
2.19338e-06
-2.30202e-12
1.83395e-06
-1.54713e-12
-1.832e-05
-7.30129e-07
5.74162e-07
-2.05094e-11
-3.29735e-06
3.26698e-06
-1.90184e-11
-7.49195e-06
5.72123e-06
-1.7078e-11
-1.2891e-05
7.50782e-06
-1.31759e-11
-1.90475e-05
8.61293e-06
-9.71912e-12
-2.5544e-05
9.10598e-06
-7.12533e-12
-3.20017e-05
9.06015e-06
-4.99513e-12
-3.80787e-05
8.53427e-06
-3.48474e-12
-4.34806e-05
7.59281e-06
-2.49548e-12
6.34319e-06
-1.69823e-12
-4.79921e-05
-1.69567e-06
2.26734e-06
-1.81388e-11
-6.12054e-06
7.69413e-06
-1.72313e-11
-1.26943e-05
1.22951e-05
-1.44601e-11
-2.08178e-05
1.56313e-05
-1.13256e-11
-2.99052e-05
1.77004e-05
-8.66078e-12
-3.94001e-05
1.8601e-05
-6.52583e-12
-4.87763e-05
1.84365e-05
-4.61767e-12
-5.75415e-05
1.72997e-05
-3.26496e-12
-6.52622e-05
1.53138e-05
-2.35837e-12
1.27001e-05
-1.61775e-12
-7.16189e-05
-2.48921e-06
4.75292e-06
-1.35109e-11
-8.48759e-06
1.36957e-05
-1.33079e-11
-1.70344e-05
2.08419e-05
-1.12666e-11
-2.73404e-05
2.5937e-05
-9.04197e-12
-3.87048e-05
2.90649e-05
-7.16827e-12
-5.04748e-05
3.03711e-05
-5.54522e-12
-6.20185e-05
2.99803e-05
-3.96974e-12
-7.27219e-05
2.80034e-05
-2.8289e-12
-8.20198e-05
2.46122e-05
-2.03784e-12
2.01566e-05
-1.38795e-12
-8.94759e-05
-3.05078e-06
7.79928e-06
-9.32092e-12
-1.01994e-05
2.08481e-05
-9.51051e-12
-2.01885e-05
3.08307e-05
-8.22865e-12
-3.207e-05
3.78175e-05
-6.77491e-12
-4.50538e-05
4.20482e-05
-5.53222e-12
-5.84199e-05
4.37367e-05
-4.33457e-12
-7.14588e-05
4.30188e-05
-3.09239e-12
-8.34495e-05
3.99938e-05
-2.16549e-12
-9.36812e-05
3.48442e-05
-1.51057e-12
2.80233e-05
-1.01368e-12
-0.000101547
-3.35547e-06
1.115e-05
-6.38304e-12
-1.11496e-05
2.86464e-05
-6.57118e-12
-2.19557e-05
4.16362e-05
-5.78386e-12
-3.47273e-05
5.05878e-05
-4.86591e-12
-4.8621e-05
5.59412e-05
-4.06715e-12
-6.28806e-05
5.79955e-05
-3.18569e-12
-7.67488e-05
5.68862e-05
-2.24294e-12
-8.94141e-05
5.26585e-05
-1.51721e-12
-9.99981e-05
4.54288e-05
-9.75367e-13
3.56446e-05
-6.39503e-13
-0.000107618
-3.39438e-06
1.45388e-05
-4.60682e-12
-1.12886e-05
3.65449e-05
-4.59178e-12
-2.22236e-05
5.25706e-05
-4.088e-12
-3.51251e-05
6.34881e-05
-3.4918e-12
-4.9137e-05
6.99521e-05
-2.93626e-12
-6.35013e-05
7.23588e-05
-2.27349e-12
-7.7453e-05
7.08369e-05
-1.60596e-12
-9.01294e-05
6.53335e-05
-1.07237e-12
-0.000100487
5.57869e-05
-6.01928e-13
4.23724e-05
-3.56739e-13
-0.00010721
-3.17377e-06
1.77082e-05
-2.99443e-12
-1.06229e-05
4.39982e-05
-3.12015e-12
-2.09775e-05
6.29247e-05
-2.76503e-12
-3.31973e-05
7.57067e-05
-2.33913e-12
-4.64427e-05
8.31965e-05
-1.93023e-12
-5.99785e-05
8.58935e-05
-1.46632e-12
-7.30749e-05
8.39321e-05
-1.11756e-12
-8.48888e-05
7.71453e-05
-8.10095e-13
-9.42904e-05
6.51905e-05
-3.69989e-13
4.74775e-05
-8.80327e-14
-9.93811e-05
-2.72506e-06
2.04295e-05
-1.94198e-12
-9.23701e-06
5.05138e-05
-2.03693e-12
-1.83469e-05
7.20342e-05
-1.74144e-12
-2.90832e-05
8.64419e-05
-1.41266e-12
-4.06213e-05
9.47336e-05
-1.10507e-12
-5.22325e-05
9.75036e-05
-8.28611e-13
-6.32238e-05
9.4922e-05
-7.4221e-13
-7.28285e-05
8.67451e-05
-6.47566e-13
-8.00123e-05
7.23729e-05
-2.89486e-13
4.9818e-05
-8.35282e-14
-8.23203e-05
-2.11239e-06
-1.29881e-12
2.25392e-05
-7.31944e-06
-1.34154e-12
5.57241e-05
-1.46629e-05
-1.06785e-12
7.93776e-05
-2.32441e-05
-8.01603e-13
9.50225e-05
-3.22098e-05
-5.70861e-13
0.000103699
-4.07359e-05
-3.9682e-13
0.000106029
-4.80101e-05
-3.77767e-13
0.000102194
-5.31484e-05
-4.69199e-13
9.18713e-05
-5.49912e-05
-4.43865e-13
7.41871e-05
-3.52831e-13
-5.19477e-05
4.67842e-05
1.54492e-07
-1.54424e-07
-1.02506e-10
-5.43167e-07
6.99406e-07
-1.76865e-09
-2.06872e-06
1.52814e-06
-2.60946e-09
-4.17657e-06
2.11117e-06
-3.33734e-09
-6.632e-06
2.45919e-06
-3.7732e-09
-9.24067e-06
2.61263e-06
-3.95642e-09
-1.18426e-05
2.60586e-06
-3.97613e-09
-1.4299e-05
2.4602e-06
-3.80871e-09
-1.64889e-05
2.19338e-06
-3.45324e-09
1.83395e-06
-2.88429e-09
-1.83199e-05
-7.3008e-07
5.74227e-07
1.40863e-09
-3.2973e-06
3.26703e-06
-4.31754e-10
-7.49191e-06
5.72126e-06
1.48034e-09
-1.28909e-05
7.50783e-06
2.36371e-09
-1.90475e-05
8.61293e-06
2.80541e-09
-2.55439e-05
9.10598e-06
3.07038e-09
-3.20017e-05
9.06015e-06
3.50605e-09
-3.80787e-05
8.53427e-06
2.8638e-09
-4.34806e-05
7.59281e-06
2.52496e-09
6.34319e-06
2.18149e-09
-4.79921e-05
-1.69564e-06
2.26738e-06
2.47505e-09
-6.1205e-06
7.69417e-06
-2.28674e-09
-1.26943e-05
1.22951e-05
-1.28535e-10
-2.08178e-05
1.56313e-05
7.26831e-11
-2.99052e-05
1.77004e-05
-1.37461e-10
-3.94001e-05
1.8601e-05
-1.31458e-10
-4.87763e-05
1.84365e-05
-1.52315e-10
-5.75415e-05
1.72997e-05
-1.98749e-10
-6.52622e-05
1.53138e-05
-2.60745e-10
1.27001e-05
-1.60605e-10
-7.16189e-05
-2.4892e-06
4.75295e-06
3.61225e-09
-8.48758e-06
1.36957e-05
-3.20749e-09
-1.70344e-05
2.08419e-05
-6.03178e-12
-2.73403e-05
2.5937e-05
2.6518e-10
-3.87048e-05
2.9065e-05
-1.00757e-10
-5.04748e-05
3.03711e-05
-1.42288e-10
-6.20184e-05
2.99803e-05
-1.82875e-10
-7.27219e-05
2.80034e-05
-2.8622e-10
-8.20198e-05
2.46122e-05
-4.83299e-10
2.01566e-05
-4.24241e-10
-8.94759e-05
-3.05078e-06
7.7993e-06
4.41778e-09
-1.01994e-05
2.08481e-05
-3.76741e-09
-2.01885e-05
3.08307e-05
4.09112e-10
-3.20699e-05
3.78175e-05
9.09403e-10
-4.50538e-05
4.20482e-05
5.46643e-10
-5.84198e-05
4.37367e-05
5.22846e-10
-7.14588e-05
4.30188e-05
4.66723e-10
-8.34495e-05
3.99938e-05
2.72074e-10
-9.36812e-05
3.48442e-05
-3.05937e-10
2.80233e-05
-5.92035e-10
-0.000101547
-3.35547e-06
1.115e-05
4.78375e-09
-1.11496e-05
2.86464e-05
-4.1746e-09
-2.19557e-05
4.16363e-05
5.39146e-10
-3.47273e-05
5.05879e-05
1.16061e-09
-4.8621e-05
5.59412e-05
8.04561e-10
-6.28806e-05
5.79955e-05
8.01731e-10
-7.67488e-05
5.68862e-05
7.8513e-10
-8.94141e-05
5.26585e-05
6.3162e-10
-9.99981e-05
4.54288e-05
-5.21817e-10
3.56446e-05
-1.63882e-09
-0.000107618
-3.39437e-06
1.45388e-05
5.51542e-09
-1.12886e-05
3.6545e-05
-4.29921e-09
-2.22236e-05
5.25706e-05
5.76556e-10
-3.5125e-05
6.34881e-05
1.2713e-09
-4.9137e-05
6.99521e-05
9.70988e-10
-6.35013e-05
7.23588e-05
1.01094e-09
-7.7453e-05
7.08369e-05
1.12239e-09
-9.01294e-05
6.53335e-05
1.34773e-09
-0.000100487
5.57869e-05
-6.82857e-10
4.23724e-05
-4.15659e-09
-0.00010721
-3.17377e-06
1.77082e-05
4.41941e-09
-1.06229e-05
4.39982e-05
-4.10533e-09
-2.09775e-05
6.29247e-05
5.3018e-10
-3.31973e-05
7.57067e-05
1.23942e-09
-4.64427e-05
8.31965e-05
1.01578e-09
-5.99784e-05
8.58935e-05
1.03582e-09
-7.30748e-05
8.39321e-05
1.17536e-09
-8.48888e-05
7.71453e-05
2.08823e-09
-9.42904e-05
6.51905e-05
-2.00784e-09
4.74775e-05
-1.4467e-08
-9.93811e-05
-2.72506e-06
2.04295e-05
3.71121e-09
-9.23701e-06
5.05138e-05
-3.71078e-09
-1.83469e-05
7.20342e-05
3.68425e-10
-2.90832e-05
8.64419e-05
1.04061e-09
-4.06213e-05
9.47336e-05
9.56974e-10
-5.22325e-05
9.75036e-05
1.03929e-09
-6.32238e-05
9.4922e-05
1.39914e-09
-7.28285e-05
8.67451e-05
4.89825e-09
-8.00123e-05
7.23728e-05
1.45229e-09
4.9818e-05
-3.24732e-08
-8.23203e-05
-2.11239e-06
2.69611e-09
2.25392e-05
-7.31944e-06
-3.20085e-09
5.57241e-05
-1.46629e-05
6.07097e-11
7.93776e-05
-2.32441e-05
5.9347e-10
9.50225e-05
-3.22098e-05
6.32463e-10
0.000103699
-4.07359e-05
9.31228e-10
0.000106029
-4.80101e-05
1.98208e-09
0.000102194
-5.31484e-05
1.22066e-08
9.18713e-05
-5.49912e-05
2.85378e-08
7.41871e-05
-9.76462e-09
-5.19477e-05
4.67842e-05
1.5317e-07
-1.53272e-07
-5.42509e-07
6.93912e-07
-2.06796e-06
1.52284e-06
-4.17644e-06
2.10515e-06
-6.63216e-06
2.45194e-06
-9.24085e-06
2.60473e-06
-1.18425e-05
2.59772e-06
-1.42988e-05
2.45241e-06
-1.64885e-05
2.18623e-06
1.82797e-06
-1.83193e-05
-7.25341e-07
5.73476e-07
-3.29164e-06
3.25978e-06
-7.48691e-06
5.71958e-06
-1.28875e-05
7.50811e-06
-1.90459e-05
8.61313e-06
-2.5544e-05
9.10592e-06
-3.20026e-05
9.05983e-06
-3.80805e-05
8.5332e-06
-4.34829e-05
7.59109e-06
6.3416e-06
-4.79943e-05
-1.69022e-06
2.26617e-06
-6.11972e-06
7.68699e-06
-1.26934e-05
1.22932e-05
-2.08168e-05
1.56315e-05
-2.99046e-05
1.77008e-05
-3.94e-05
1.86012e-05
-4.87765e-05
1.84362e-05
-5.7542e-05
1.72984e-05
-6.52625e-05
1.53113e-05
1.26978e-05
-7.16189e-05
-2.48235e-06
4.75213e-06
-8.48866e-06
1.36901e-05
-1.70355e-05
2.084e-05
-2.73405e-05
2.59368e-05
-3.87048e-05
2.9065e-05
-5.04748e-05
3.0371e-05
-6.20185e-05
2.99797e-05
-7.2722e-05
2.80016e-05
-8.20193e-05
2.46082e-05
2.01526e-05
-8.94745e-05
-3.04222e-06
7.79877e-06
-1.02007e-05
2.08448e-05
-2.01901e-05
3.08298e-05
-3.20702e-05
3.78179e-05
-4.50537e-05
4.2049e-05
-5.84197e-05
4.37375e-05
-7.14588e-05
4.30193e-05
-8.34499e-05
3.9993e-05
-9.36807e-05
3.48387e-05
2.80161e-05
-0.000101545
-3.34589e-06
1.11494e-05
-1.1151e-05
2.86457e-05
-2.19573e-05
4.16367e-05
-3.47273e-05
5.05891e-05
-4.86204e-05
5.59429e-05
-6.28796e-05
5.79975e-05
-7.6748e-05
5.68885e-05
-8.94144e-05
5.26599e-05
-9.99977e-05
4.54216e-05
3.56299e-05
-0.000107613
-3.38437e-06
1.45393e-05
-1.12899e-05
3.6547e-05
-2.22248e-05
5.25722e-05
-3.51245e-05
6.349e-05
-4.91353e-05
6.99547e-05
-6.34989e-05
7.2362e-05
-7.74506e-05
7.08414e-05
-9.01292e-05
6.53399e-05
-0.000100488
5.57794e-05
4.234e-05
-0.000107202
-3.16478e-06
1.77085e-05
-1.06241e-05
4.40022e-05
-2.09784e-05
6.2927e-05
-3.31961e-05
7.57088e-05
-4.64399e-05
8.31996e-05
-5.99743e-05
8.58975e-05
-7.30702e-05
8.39385e-05
-8.48884e-05
7.71602e-05
-9.43029e-05
6.51919e-05
4.73948e-05
-9.93722e-05
-2.71761e-06
2.04298e-05
-9.23824e-06
5.05191e-05
-1.83476e-05
7.20367e-05
-2.90812e-05
8.64435e-05
-4.06164e-05
9.47357e-05
-5.22239e-05
9.7506e-05
-6.32093e-05
9.49253e-05
-7.28086e-05
8.67645e-05
-8.0036e-05
7.24207e-05
4.97004e-05
-8.23741e-05
-2.10698e-06
2.25395e-05
-7.321e-06
5.57299e-05
-1.46642e-05
7.938e-05
-2.32432e-05
9.50231e-05
-3.2205e-05
0.000103698
-4.07239e-05
0.000106026
-4.79813e-05
0.000102185
-5.306e-05
9.18554e-05
-5.48502e-05
7.42395e-05
-5.2176e-05
4.70164e-05
-1.97498e-05
1.42836e-06
2.16768e-09
-2.08013e-05
1.04995e-06
1.51722e-09
-2.15365e-05
7.34142e-07
1.00527e-09
-2.20324e-05
4.95284e-07
6.35475e-10
-2.23623e-05
3.29557e-07
3.90849e-10
-2.25874e-05
2.24852e-07
2.43612e-10
-2.27554e-05
1.67789e-07
1.67113e-10
-2.29026e-05
1.47129e-07
1.41225e-10
-2.30573e-05
1.54476e-07
1.5224e-10
-2.32409e-05
1.83446e-07
1.91442e-10
-2.34692e-05
2.28062e-07
2.52873e-10
-2.37503e-05
2.80759e-07
3.301e-10
-2.40809e-05
3.30194e-07
4.13327e-10
-2.44405e-05
3.59126e-07
4.86442e-10
-2.4784e-05
3.42929e-07
5.22727e-10
-2.50343e-05
2.4981e-07
4.78871e-10
-2.508e-05
4.54024e-08
3.00368e-10
-2.47769e-05
-3.02985e-07
-4.58555e-11
-2.39731e-05
-8.03188e-07
-6.55603e-10
-1.42984e-06
-1.5739e-09
-2.25417e-05
-5.15265e-05
4.96247e-06
-1.93339e-09
-5.41394e-05
3.66445e-06
-1.61508e-09
-5.59868e-05
2.58287e-06
-1.27829e-09
-5.7253e-05
1.76246e-06
-9.77477e-10
-5.81114e-05
1.18861e-06
-7.31897e-10
-5.87061e-05
8.2018e-07
-5.51201e-10
-5.91498e-05
6.11865e-07
-4.35122e-10
-5.95271e-05
5.24859e-07
-3.76174e-10
-5.99013e-05
5.28997e-07
-3.63956e-10
-6.03176e-05
6.00137e-07
-3.86505e-10
-6.08043e-05
7.15187e-07
-4.28881e-10
-6.13691e-05
8.46002e-07
-4.71415e-10
-6.19913e-05
9.52919e-07
-4.87515e-10
-6.26106e-05
9.78862e-07
-4.41931e-10
-6.31132e-05
8.45809e-07
-2.91237e-10
-6.33202e-05
4.56827e-07
1.00442e-11
-6.29837e-05
-2.91582e-07
4.9187e-10
-6.18042e-05
-1.48367e-06
1.14252e-09
-5.94694e-05
-3.13986e-06
1.92222e-09
-5.16628e-06
2.6556e-09
-5.57356e-05
-7.6494e-05
9.83777e-06
-2.36345e-10
-8.00194e-05
7.19026e-06
-4.14572e-10
-8.24603e-05
5.02425e-06
-4.55645e-10
-8.41042e-05
3.40685e-06
-4.33846e-10
-8.52034e-05
2.28811e-06
-3.71214e-10
-8.5956e-05
1.57307e-06
-2.96775e-10
-8.65093e-05
1.16542e-06
-2.29295e-10
-8.69699e-05
9.85639e-07
-1.75851e-10
-8.74138e-05
9.72992e-07
-1.37243e-10
-8.78928e-05
1.07929e-06
-1.11141e-10
-8.84366e-05
1.25905e-06
-9.29737e-11
-8.90487e-05
1.45819e-06
-7.69124e-11
-8.96978e-05
1.60214e-06
-5.62442e-11
-9.03041e-05
1.58517e-06
-2.26975e-11
-9.07218e-05
1.26349e-06
3.48489e-11
-9.07231e-05
4.57982e-07
1.25663e-10
-8.99898e-05
-1.02516e-06
2.44489e-10
-8.81264e-05
-3.34744e-06
3.83563e-10
-8.47089e-05
-6.55785e-06
5.26713e-10
-1.04876e-05
4.47882e-10
-7.93881e-05
-9.49418e-05
1.53055e-05
-3.77646e-10
-9.8689e-05
1.0938e-05
-6.10822e-10
-0.000101146
7.48224e-06
-6.07564e-10
-0.000102719
4.98046e-06
-5.40745e-10
-0.000103725
3.29364e-06
-4.30892e-10
-0.000104386
2.23485e-06
-3.19136e-10
-0.000104856
1.63543e-06
-2.26454e-10
-0.000105236
1.36558e-06
-1.56268e-10
-0.000105593
1.33092e-06
-1.06156e-10
-0.000105974
1.4596e-06
-7.23453e-11
-0.000106401
1.68616e-06
-5.06186e-11
-0.000106877
1.9344e-06
-3.70543e-11
-0.000107374
2.09978e-06
-2.81092e-11
-0.000107822
2.03272e-06
-1.82235e-11
-0.000108084
1.52562e-06
6.84704e-12
-0.000107937
3.10637e-07
6.2695e-11
-0.000107045
-1.91695e-06
1.31465e-10
-0.000104954
-5.43891e-06
2.61225e-10
-0.000101121
-1.03912e-05
5.09373e-10
-1.65768e-05
4.49514e-10
-9.50323e-05
-0.000106832
2.0594e-05
-1.03064e-09
-0.000110071
1.41781e-05
-1.15626e-09
-0.000111949
9.36138e-06
-9.37538e-10
-0.000113008
6.03995e-06
-7.33581e-10
-0.000113604
3.8902e-06
-5.16988e-10
-0.000113952
2.58263e-06
-3.3997e-10
-0.000114173
1.8572e-06
-2.17299e-10
-0.000114339
1.53135e-06
-1.38172e-10
-0.00011449
1.48179e-06
-9.04418e-11
-0.000114651
1.62066e-06
-6.50191e-11
-0.000114837
1.8722e-06
-5.54824e-11
-0.000115052
2.15027e-06
-5.74947e-11
-0.000115288
2.33579e-06
-6.79674e-11
-0.000115509
2.25338e-06
-8.06678e-11
-0.000115632
1.64881e-06
-7.07973e-11
-0.000115494
1.72203e-07
-3.63038e-12
-0.000114802
-2.60878e-06
6.49985e-11
-0.000113081
-7.1601e-06
2.58076e-10
-0.000109649
-1.3824e-05
8.96405e-10
-2.25205e-05
1.28445e-09
-0.000103707
-0.000111865
2.48482e-05
-2.20226e-09
-0.000113806
1.6121e-05
-1.88033e-09
-0.000114524
1.008e-05
-1.17901e-09
-0.000114688
6.20532e-06
-7.89865e-10
-0.000114642
3.8439e-06
-4.65094e-10
-0.000114533
2.47392e-06
-2.45371e-10
-0.000114415
1.73967e-06
-1.21497e-10
-0.000114301
1.41753e-06
-5.58853e-11
-0.000114189
1.37005e-06
-2.38082e-11
-0.000114076
1.50761e-06
-1.15698e-11
-0.000113963
1.75862e-06
-1.23529e-11
-0.000113856
2.04414e-06
-2.36888e-11
-0.000113774
2.2529e-06
-4.57773e-11
-0.000113733
2.21304e-06
-7.76994e-11
-0.000113743
1.65845e-06
-9.6396e-11
-0.000113759
1.88539e-07
-5.70983e-11
-0.000113614
-2.75362e-06
-2.9901e-11
-0.000112893
-7.88096e-06
1.43648e-10
-0.000110787
-1.5932e-05
1.54197e-09
-2.72789e-05
3.26125e-09
-0.000106032
-0.000109368
2.70198e-05
-5.86045e-09
-0.000109159
1.59166e-05
-3.87087e-09
-0.000108228
9.15077e-06
-1.78989e-09
-0.000107278
5.25563e-06
-9.33328e-10
-0.000106514
3.08006e-06
-3.96883e-10
-0.000105941
1.90167e-06
-1.22735e-10
-0.000105504
1.30257e-06
-1.49594e-11
-0.000105139
1.05246e-06
2.04478e-11
-0.000104794
1.02521e-06
2.48941e-11
-0.000104434
1.14737e-06
1.50642e-11
-0.000104041
1.36606e-06
-3.39419e-12
-0.000103623
1.62543e-06
-2.99017e-11
-0.000103214
1.84424e-06
-6.57629e-11
-0.000102889
1.88816e-06
-1.14248e-10
-0.00010276
1.52959e-06
-1.51272e-10
-0.000102956
3.84386e-07
-7.8035e-11
-0.000103538
-2.17105e-06
9.38776e-11
-0.000104322
-7.09795e-06
4.68041e-10
-0.000104508
-1.57493e-05
3.72627e-09
-2.96108e-05
8.96132e-09
-0.000102185
-9.79762e-05
2.56338e-05
-9.95571e-09
-9.48154e-05
1.27598e-05
-4.04635e-09
-9.20622e-05
6.39841e-06
-8.21707e-10
-9.01072e-05
3.30098e-06
-3.12319e-10
-8.88104e-05
1.78317e-06
4.0354e-11
-8.79507e-05
1.04182e-06
1.6467e-10
-8.73431e-05
6.94849e-07
1.55841e-10
-8.68542e-05
5.63414e-07
1.28305e-10
-8.63922e-05
5.63126e-07
1.06476e-10
-8.58967e-05
6.51702e-07
9.11202e-11
-8.53336e-05
8.02971e-07
7.84429e-11
-8.46994e-05
9.91108e-07
6.24874e-11
-8.40317e-05
1.17654e-06
3.39324e-11
-8.34304e-05
1.28688e-06
-3.34317e-11
-8.3084e-05
1.18333e-06
-1.3199e-10
-8.32923e-05
5.9269e-07
-4.30995e-11
-8.44299e-05
-1.03358e-06
1.25004e-10
-8.68103e-05
-4.71708e-06
-4.59814e-10
-9.0101e-05
-1.24619e-05
3.29458e-09
-2.78771e-05
1.43176e-08
-9.18491e-05
-7.48335e-05
1.81056e-05
-1.24396e-08
-6.85364e-05
6.45726e-06
5.5121e-09
-6.46602e-05
2.51604e-06
6.17164e-09
-6.24273e-05
1.06544e-06
2.6364e-09
-6.11413e-05
4.95784e-07
1.36443e-09
-6.03658e-05
2.65475e-07
8.28483e-10
-5.98462e-05
1.74752e-07
5.21287e-10
-5.94325e-05
1.4925e-07
3.95287e-10
-5.90311e-05
1.61393e-07
3.80046e-10
-5.85806e-05
2.00755e-07
4.27647e-10
-5.8041e-05
2.62862e-07
5.13059e-10
-5.73946e-05
3.44122e-07
6.14648e-10
-5.66567e-05
4.37945e-07
6.94492e-10
-5.58992e-05
5.28709e-07
6.54875e-10
-5.52944e-05
5.78203e-07
3.70779e-10
-5.51994e-05
4.97713e-07
-9.20411e-11
-5.6195e-05
-3.62698e-08
-1.66072e-09
-5.93209e-05
-1.58355e-06
-7.66277e-09
-6.56658e-05
-6.10661e-06
-1.03994e-08
-1.93332e-05
1.54819e-08
-7.42252e-05
-3.40014e-05
-6.90147e-08
-2.75324e-05
-1.17403e-08
-2.50155e-05
-8.50306e-10
-2.39482e-05
-1.88656e-09
-2.34512e-05
-1.226e-09
-2.31852e-05
-5.76135e-10
-2.30101e-05
-3.26256e-10
-2.28606e-05
-2.31504e-10
-2.2699e-05
-2.05366e-10
-2.2498e-05
-2.26063e-10
-2.22349e-05
-2.79854e-10
-2.18904e-05
-3.53277e-10
-2.1452e-05
-4.2722e-10
-2.09229e-05
-4.68089e-10
-2.03443e-05
-3.59972e-10
-1.98468e-05
2.11616e-10
-1.98838e-05
7.71599e-10
-2.14648e-05
-2.54951e-09
-2.75765e-05
5.07443e-09
8.72868e-08
-4.6997e-05
-1.97505e-05
1.43267e-06
-9.8921e-13
-2.08018e-05
1.05287e-06
-6.62719e-13
-2.15368e-05
7.36028e-07
-4.47715e-13
-2.20326e-05
4.96441e-07
-2.46898e-13
-2.23625e-05
3.30251e-07
-9.722e-14
-2.25875e-05
2.25284e-07
-6.51669e-15
-2.27555e-05
1.68102e-07
9.45865e-14
-2.29027e-05
1.47419e-07
1.40137e-13
-2.30574e-05
1.54813e-07
5.34747e-14
-2.32411e-05
1.83879e-07
-3.80706e-15
-2.34695e-05
2.28626e-07
-2.0887e-14
-2.37506e-05
2.81472e-07
-5.8082e-14
-2.40812e-05
3.31048e-07
-6.95111e-14
-2.44408e-05
3.60078e-07
-3.38743e-14
-2.47842e-05
3.43888e-07
4.60916e-14
-2.50344e-05
2.50634e-07
1.16508e-13
-2.50797e-05
4.56475e-08
1.10703e-13
-2.47765e-05
-3.03204e-07
6.45483e-14
-2.39727e-05
-8.04502e-07
8.91789e-15
-1.43286e-06
-4.08391e-14
-2.25414e-05
-5.15241e-05
4.96275e-06
-1.10301e-12
-5.41369e-05
3.66411e-06
-7.23978e-13
-5.59846e-05
2.58243e-06
-4.77459e-13
-5.72512e-05
1.76206e-06
-2.76408e-13
-5.811e-05
1.18832e-06
-1.28357e-13
-5.87053e-05
8.19988e-07
-7.6223e-14
-5.91493e-05
6.11746e-07
-2.34734e-14
-5.95271e-05
5.24776e-07
4.85379e-14
-5.99015e-05
5.28913e-07
-2.99751e-14
-6.03181e-05
6.00015e-07
-1.0148e-13
-6.08048e-05
7.14987e-07
-9.25137e-14
-6.13695e-05
8.45688e-07
-6.336e-14
-6.19914e-05
9.52466e-07
-4.56789e-14
-6.26101e-05
9.7828e-07
-7.51911e-15
-6.31117e-05
8.45178e-07
3.99664e-14
-6.33173e-05
4.56319e-07
6.27347e-14
-6.29795e-05
-2.91727e-07
5.55556e-14
-6.17986e-05
-1.4829e-06
3.18428e-14
-5.94633e-05
-3.13788e-06
4.72494e-15
-5.16375e-06
-2.59817e-15
-5.57298e-05
-7.64933e-05
9.83689e-06
-1.04272e-12
-8.0018e-05
7.18841e-06
-6.63362e-13
-8.24587e-05
5.02262e-06
-4.4248e-13
-8.41027e-05
3.40563e-06
-2.83138e-13
-8.52021e-05
2.28732e-06
-1.49637e-13
-8.5955e-05
1.57263e-06
-1.48568e-13
-8.65087e-05
1.16519e-06
-1.49581e-13
-8.69696e-05
9.85519e-07
-7.46658e-14
-8.74137e-05
9.72895e-07
-1.32625e-13
-8.78929e-05
1.07914e-06
-2.03377e-13
-8.84368e-05
1.25878e-06
-1.50401e-13
-8.90489e-05
1.45772e-06
-6.4822e-14
-8.9698e-05
1.60143e-06
-3.01638e-14
-9.03039e-05
1.58419e-06
-3.00559e-14
-9.0721e-05
1.26236e-06
-3.73024e-14
-9.07216e-05
4.56963e-07
-3.16302e-14
-8.99874e-05
-1.02566e-06
-1.44737e-14
-8.81233e-05
-3.34658e-06
2.526e-14
-8.47059e-05
-6.55476e-06
1.02274e-13
-1.04835e-05
2.04268e-13
-7.93857e-05
-9.49417e-05
1.53023e-05
-8.82151e-13
-9.86875e-05
1.09336e-05
-5.25117e-13
-0.000101144
7.47893e-06
-3.29217e-13
-0.000102718
4.97824e-06
-2.25864e-13
-0.000103723
3.29232e-06
-3.96911e-14
-0.000104385
2.23416e-06
-6.52754e-14
-0.000104855
1.63513e-06
-1.12361e-13
-0.000105235
1.36547e-06
-2.03244e-14
-0.000105593
1.33086e-06
-4.96804e-14
-0.000105974
1.4595e-06
-1.37751e-13
-0.000106401
1.68593e-06
-1.23489e-13
-0.000106877
1.93394e-06
-6.94218e-14
-0.000107375
2.09901e-06
-6.87653e-14
-0.000107822
2.03157e-06
-1.18799e-13
-0.000108084
1.52418e-06
-1.56236e-13
-0.000107936
3.09286e-07
-1.30043e-13
-0.000107044
-1.91794e-06
-3.12974e-14
-0.000104952
-5.43818e-06
1.26909e-13
-0.000101119
-1.03868e-05
3.06766e-13
-1.65707e-05
4.44549e-13
-9.50317e-05
-0.000106832
2.05854e-05
-6.62583e-13
-0.000110068
1.41693e-05
-3.58487e-13
-0.000111946
9.35598e-06
-2.09153e-13
-0.000113006
6.03677e-06
-1.961e-13
-0.000113602
3.88853e-06
3.10525e-14
-0.00011395
2.58188e-06
1.75353e-14
-0.000114172
1.85694e-06
-2.60552e-14
-0.000114338
1.5313e-06
7.5994e-14
-0.000114489
1.48179e-06
8.47952e-14
-0.000114651
1.62061e-06
1.10662e-14
-0.000114837
1.872e-06
-1.27191e-14
-0.000115053
2.14981e-06
-1.15065e-14
-0.000115289
2.33496e-06
-5.38594e-14
-0.000115509
2.25206e-06
-1.32685e-13
-0.000115632
1.64699e-06
-1.63882e-13
-0.000115493
1.70577e-07
-9.74442e-14
-0.000114801
-2.61059e-06
1.86125e-14
-0.000113079
-7.15991e-06
1.85171e-13
-0.000109647
-1.38173e-05
2.95547e-13
-2.25095e-05
2.88231e-13
-0.000103707
-0.000111862
2.48279e-05
-5.00561e-13
-0.000113801
1.61057e-05
-3.12037e-13
-0.000114519
1.00731e-05
-1.96459e-13
-0.000114685
6.20208e-06
-2.32208e-13
-0.00011464
3.84256e-06
-4.51011e-16
-0.000114531
2.47354e-06
-4.75894e-14
-0.000114414
1.73966e-06
-8.12531e-14
-0.000114301
1.41763e-06
3.18028e-14
-0.000114189
1.37015e-06
6.65218e-14
-0.000114076
1.50764e-06
2.11031e-14
-0.000113963
1.75849e-06
-1.85873e-14
-0.000113857
2.04375e-06
-4.63688e-14
-0.000113774
2.25212e-06
-1.20093e-13
-0.000113733
2.21169e-06
-1.83698e-13
-0.000113743
1.6564e-06
-1.69188e-13
-0.000113759
1.86543e-07
-8.21353e-14
-0.000113613
-2.75663e-06
1.06777e-14
-0.00011289
-7.8823e-06
4.1725e-14
-0.000110784
-1.59219e-05
5.1711e-14
-2.7256e-05
5.7451e-15
-0.000106035
-0.00010936
2.6972e-05
-3.55043e-13
-0.000109149
1.58908e-05
-2.17823e-13
-0.000108222
9.14384e-06
-1.90459e-13
-0.000107275
5.25372e-06
-1.33026e-13
-0.000106512
3.07979e-06
1.04151e-13
-0.000105941
1.90194e-06
3.31312e-14
-0.000105504
1.30289e-06
-2.2125e-14
-0.000105139
1.0527e-06
2.2142e-14
-0.000104794
1.02535e-06
1.20688e-14
-0.000104434
1.1474e-06
-4.7096e-14
-0.000104041
1.36593e-06
-1.07395e-13
-0.000103623
1.62506e-06
-1.49908e-13
-0.000103214
1.8435e-06
-1.74519e-13
-0.000102889
1.8868e-06
-1.2402e-13
-0.000102761
1.52739e-06
-1.29097e-14
-0.000102956
3.81745e-07
6.70391e-14
-0.000103537
-2.17515e-06
3.1463e-14
-0.000104318
-7.10111e-06
-1.06816e-14
-0.000104504
-1.5732e-05
1.00849e-13
-2.95561e-05
1.46977e-13
-0.000102195
-9.7962e-05
2.55429e-05
-1.4793e-13
-9.48051e-05
1.27299e-05
-7.14154e-14
-9.20589e-05
6.39683e-06
-1.91213e-13
-9.01072e-05
3.30167e-06
-7.80088e-14
-8.88111e-05
1.7838e-06
8.31268e-14
-8.79514e-05
1.04236e-06
5.95144e-14
-8.73435e-05
6.95199e-07
3.69339e-14
-8.68543e-05
5.63606e-07
6.56601e-14
-8.63921e-05
5.63219e-07
1.66579e-14
-8.58963e-05
6.51721e-07
-6.41362e-14
-8.53332e-05
8.02911e-07
-1.39182e-13
-8.4699e-05
9.90933e-07
-1.74133e-13
-8.40316e-05
1.17617e-06
-1.31705e-13
-8.3431e-05
1.28612e-06
-1.17093e-14
-8.30856e-05
1.18186e-06
1.24055e-13
-8.32944e-05
5.90485e-07
6.11669e-14
-8.44336e-05
-1.03575e-06
-7.79379e-14
-8.68131e-05
-4.72211e-06
-8.99637e-14
-9.00988e-05
-1.2443e-05
1.30581e-13
-2.77757e-05
9.85694e-14
-9.18649e-05
-7.48151e-05
1.80253e-05
-1.16347e-14
-6.85441e-05
6.46447e-06
-9.63828e-14
-6.46691e-05
2.52797e-06
-1.70718e-13
-6.24339e-05
1.06907e-06
-1.24729e-13
-6.11452e-05
4.96493e-07
-2.63412e-15
-6.03677e-05
2.65713e-07
4.49583e-14
-5.98469e-05
1.7495e-07
8.65727e-14
-5.94324e-05
1.49497e-07
9.78877e-14
-5.90306e-05
1.61746e-07
3.70143e-14
-5.85797e-05
2.01267e-07
-5.82724e-14
-5.80399e-05
2.63599e-07
-1.34075e-13
-5.73935e-05
3.4516e-07
-1.40959e-13
-5.6656e-05
4.39376e-07
-4.60892e-14
-5.58999e-05
5.30653e-07
8.75791e-14
-5.52983e-05
5.80614e-07
1.10345e-13
-5.52058e-05
4.97934e-07
-4.37625e-14
-5.62102e-05
-3.30149e-08
-2.18762e-13
-5.93474e-05
-1.59258e-06
-2.69734e-13
-6.56818e-05
-6.11892e-06
-4.52029e-14
-1.92692e-05
-4.83012e-13
-7.41729e-05
-3.39915e-05
-3.44903e-13
-2.75388e-05
-3.14963e-13
-2.50116e-05
4.11672e-14
-2.39445e-05
8.69773e-14
-2.34492e-05
5.46733e-14
-2.3184e-05
7.93791e-14
-2.30094e-05
1.10178e-13
-2.28602e-05
1.01881e-13
-2.26986e-05
3.39883e-14
-2.24976e-05
-4.28189e-14
-2.22343e-05
-9.43498e-14
-2.18895e-05
-6.07858e-14
-2.14505e-05
3.23807e-14
-2.09203e-05
1.15275e-13
-2.03401e-05
3.44177e-14
-1.98419e-05
-8.92954e-14
-1.98742e-05
-2.4749e-13
-2.14693e-05
-3.48347e-13
-2.75831e-05
-7.74567e-13
-9.93446e-13
-4.6765e-05
-1.97505e-05
1.43267e-06
-2.16925e-09
-2.08018e-05
1.05287e-06
-1.51825e-09
-2.15368e-05
7.36028e-07
-1.00597e-09
-2.20326e-05
4.96441e-07
-6.35958e-10
-2.23625e-05
3.30251e-07
-3.91143e-10
-2.25875e-05
2.25284e-07
-2.43759e-10
-2.27555e-05
1.68101e-07
-1.67196e-10
-2.29027e-05
1.47419e-07
-1.41295e-10
-2.30574e-05
1.54813e-07
-1.52298e-10
-2.32411e-05
1.83879e-07
-1.91519e-10
-2.34695e-05
2.28626e-07
-2.52953e-10
-2.37506e-05
2.81471e-07
-3.30215e-10
-2.40812e-05
3.31048e-07
-4.13509e-10
-2.44408e-05
3.60078e-07
-4.86632e-10
-2.47842e-05
3.43888e-07
-5.22809e-10
-2.50344e-05
2.50634e-07
-4.78776e-10
-2.50797e-05
4.56475e-08
-3.0012e-10
-2.47765e-05
-3.03203e-07
4.62129e-11
-2.39727e-05
-8.04501e-07
6.56034e-10
-1.43286e-06
1.5744e-09
-2.25414e-05
-5.15241e-05
4.96275e-06
1.93176e-09
-5.41369e-05
3.66411e-06
1.61398e-09
-5.59846e-05
2.58243e-06
1.27755e-09
-5.72512e-05
1.76206e-06
9.77027e-10
-5.811e-05
1.18832e-06
7.31656e-10