/*--------------------------------*- C++ -*----------------------------------*\
| =========                 |                                                 |
| \\      /  F ield         | OpenFOAM: The Open Source CFD Toolbox           |
|  \\    /   O peration     | Version:  2.4.0                                 |
|   \\  /    A nd           | Web:      www.OpenFOAM.org                      |
|    \\/     M anipulation  |                                                 |
\*---------------------------------------------------------------------------*/
FoamFile
{
    version     2.0;
    format      ascii;
    class       volVectorField;
    location    "3.2";
    object      U;
}
// * * * * * * * * * * * * * * * * * * * * * * * * * * * * * * * * * * * * * //

dimensions      [0 1 -1 0 0 0 0];

internalField   nonuniform List<vector> 
4800
(
(0.000304857 -0.000309147 -7.56635e-07)
(1.39203e-05 0.000157935 0.000216204)
(-0.00184711 0.000664947 0.000443204)
(-0.00483682 0.00100738 0.00061107)
(-0.00855931 0.00120157 0.000675917)
(-0.0126735 0.00128527 0.000617389)
(-0.0168965 0.00128599 0.000429225)
(-0.0209904 0.00121771 0.000111959)
(-0.0247457 0.0010877 -0.000328347)
(-0.0279856 0.000908028 -0.000878753)
(-0.000183667 -1.62556e-05 -0.000217372)
(-0.00248392 0.0023936 4.35394e-06)
(-0.00806133 0.00474199 0.000172683)
(-0.0159279 0.00643462 0.000272627)
(-0.0253399 0.00746638 0.000286103)
(-0.035619 0.00793031 0.000197195)
(-0.0461257 0.00791298 -7.759e-07)
(-0.0562805 0.00747455 -0.000310171)
(-0.0655656 0.00667065 -0.000729636)
(-0.0735555 0.00559103 -0.0012526)
(-0.000778835 0.00197423 -0.000449851)
(-0.00521096 0.00809034 -0.00015698)
(-0.0142841 0.0135326 1.22591e-05)
(-0.0263179 0.017512 9.0604e-05)
(-0.0403107 0.0199884 8.66437e-05)
(-0.0553922 0.0210922 -8.48837e-06)
(-0.0706947 0.0209662 -0.000199083)
(-0.0853957 0.0197334 -0.00048896)
(-0.0987378 0.0175417 -0.000881234)
(-0.110086 0.014642 -0.00137553)
(-0.00125593 0.00538823 -0.000607163)
(-0.00748541 0.0165907 -0.000228126)
(-0.0195114 0.0258501 -3.49219e-05)
(-0.0349458 0.0325295 4.55387e-05)
(-0.0525477 0.0366631 4.38749e-05)
(-0.0713128 0.0384384 -4.27831e-05)
(-0.0902179 0.0380407 -0.00021703)
(-0.108258 0.0356403 -0.000485291)
(-0.124467 0.0314804 -0.000856946)
(-0.137985 0.026016 -0.00134031)
(-0.00158285 0.00989366 -0.000614578)
(-0.00911065 0.0272898 -0.000160743)
(-0.0233063 0.0408996 5.7993e-05)
(-0.0412167 0.0505241 0.000150975)
(-0.0614054 0.0563991 0.000164859)
(-0.0827732 0.0588054 0.000100289)
(-0.104191 0.057956 -4.6194e-05)
(-0.124512 0.0540322 -0.000286515)
(-0.142569 0.0473364 -0.000640175)
(-0.157209 0.0385296 -0.00113107)
(-0.00175359 0.0150989 -0.000422652)
(-0.00999912 0.0394502 8.69243e-05)
(-0.0254231 0.0577869 0.000326839)
(-0.0447378 0.0705207 0.000439638)
(-0.0663852 0.0781842 0.000481547)
(-0.0892139 0.081184 0.00045402)
(-0.112038 0.0797426 0.000349488)
(-0.133618 0.0739939 0.000146638)
(-0.152601 0.0642114 -0.000189768)
(-0.167419 0.051176 -0.00071416)
(-0.00176842 0.0205803 -7.49788e-06)
(-0.0101157 0.052217 0.000535771)
(-0.0257384 0.0754489 0.000789302)
(-0.0452723 0.09136 0.000927071)
(-0.0671238 0.100827 0.00100892)
(-0.0901354 0.104405 0.00103504)
(-0.113121 0.102307 0.000990762)
(-0.134823 0.0945436 0.000841519)
(-0.153791 0.0812008 0.000530464)
(-0.167896 0.0629092 -5.81153e-05)
(-0.00163478 0.0259108 0.000631246)
(-0.00947698 0.0646991 0.00118624)
(-0.0242552 0.0927475 0.00144455)
(-0.0427693 0.111769 0.00161086)
(-0.0634594 0.122984 0.0017438)
(-0.085189 0.127106 0.00184172)
(-0.106815 0.124341 0.00188144)
(-0.127156 0.114513 0.00181312)
(-0.144898 0.0973094 0.00155762)
(-0.157313 0.0726012 0.000881974)
(-0.00137252 0.0306914 0.00147134)
(-0.00817168 0.0760432 0.00201883)
(-0.0211525 0.108555 0.00227288)
(-0.0374618 0.130428 0.00246889)
(-0.0556007 0.143172 0.00266094)
(-0.0744258 0.147674 0.00284689)
(-0.0928015 0.14418 0.0029958)
(-0.109639 0.13237 0.00304193)
(-0.124144 0.111485 0.00289589)
(-0.133429 0.079792 0.0021189)
(-0.00102112 0.0345972 0.00247035)
(-0.0063853 0.0855322 0.0029966)
(-0.0168431 0.121877 0.00323755)
(-0.0299949 0.146093 0.00346025)
(-0.0443781 0.159861 0.00371306)
(-0.0587279 0.164198 0.00399825)
(-0.0716981 0.159441 0.00428676)
(-0.081902 0.145264 0.00450894)
(-0.0890495 0.120771 0.00463301)
(-0.0921284 0.0832502 0.00403498)
(0.000310182 -0.00031331 -1.31463e-07)
(2.15244e-05 0.00015219 1.30052e-06)
(-0.00184319 0.000651015 1.99018e-06)
(-0.00483412 0.000987678 2.57169e-06)
(-0.00855775 0.00117871 2.92035e-06)
(-0.0126729 0.0012609 3.06899e-06)
(-0.0168966 0.00126167 3.08828e-06)
(-0.0209916 0.00119459 2.9606e-06)
(-0.024748 0.00106696 2.68553e-06)
(-0.027989 0.000890344 2.24369e-06)
(-0.000176169 -2.30795e-05 -1.17285e-06)
(-0.00248068 0.00239183 2.84589e-07)
(-0.00806873 0.00473086 -1.18855e-06)
(-0.0159325 0.00641832 -1.86513e-06)
(-0.0253421 0.00744823 -2.2008e-06)
(-0.0356195 0.0079113 -2.40124e-06)
(-0.0461248 0.00789409 -2.35616e-06)
(-0.0562787 0.00745685 -2.23393e-06)
(-0.0655637 0.00665501 -1.96842e-06)
(-0.0735544 0.00557751 -1.69984e-06)
(-0.000762805 0.00196886 -1.96944e-06)
(-0.00519964 0.00809705 1.74163e-06)
(-0.014291 0.0135358 7.06998e-08)
(-0.0263201 0.0175153 -7.86026e-08)
(-0.0403107 0.0199936 9.06381e-08)
(-0.0553919 0.0210983 9.04094e-08)
(-0.070694 0.0209727 1.09938e-07)
(-0.0853947 0.0197402 1.48538e-07)
(-0.0987377 0.0175487 1.98551e-07)
(-0.110088 0.0146476 1.21991e-07)
(-0.00123298 0.0053835 -2.84086e-06)
(-0.00746908 0.0165949 2.46861e-06)
(-0.0195205 0.0258493 -1.70948e-08)
(-0.0349478 0.0325269 -2.23455e-07)
(-0.0525467 0.0366609 6.51415e-08)
(-0.071312 0.0384366 1.00728e-07)
(-0.0902166 0.0380393 1.34928e-07)
(-0.108256 0.03564 2.17389e-07)
(-0.124466 0.0314822 3.72214e-07)
(-0.13799 0.0260182 3.27447e-07)
(-0.00155537 0.00989081 -3.45883e-06)
(-0.00909218 0.0272923 2.91232e-06)
(-0.0233189 0.0408977 -3.33834e-07)
(-0.0412198 0.05052 -7.20161e-07)
(-0.0614045 0.0563946 -4.35374e-07)
(-0.0827722 0.0588008 -4.145e-07)
(-0.104189 0.0579515 -3.68828e-07)
(-0.124508 0.054029 -2.15776e-07)
(-0.142566 0.0473378 2.3503e-07)
(-0.157217 0.0385331 4.58503e-07)
(-0.00172372 0.0150984 -3.73777e-06)
(-0.00997981 0.0394518 3.23473e-06)
(-0.0254382 0.057786 -4.3034e-07)
(-0.0447421 0.0705183 -9.1199e-07)
(-0.0663847 0.0781812 -6.33303e-07)
(-0.0892131 0.0811804 -6.29396e-07)
(-0.112036 0.0797385 -6.14964e-07)
(-0.133611 0.0739904 -4.94325e-07)
(-0.152595 0.064216 4.03705e-07)
(-0.167434 0.051188 1.2732e-06)
(-0.00173853 0.0205815 -3.6381e-06)
(-0.010097 0.0522173 3.33562e-06)
(-0.0257547 0.0754488 -4.56042e-07)
(-0.0452775 0.0913593 -9.95297e-07)
(-0.067124 0.100826 -7.60495e-07)
(-0.0901354 0.104403 -7.90343e-07)
(-0.113119 0.102303 -8.7595e-07)
(-0.134811 0.0945389 -1.05037e-06)
(-0.153773 0.0812115 5.29563e-07)
(-0.167925 0.0629476 3.23186e-06)
(-0.00160646 0.0259137 -3.44742e-06)
(-0.00945949 0.0646983 3.18752e-06)
(-0.0242713 0.0927484 -4.17523e-07)
(-0.042775 0.11177 -9.68371e-07)
(-0.0634603 0.122984 -7.93548e-07)
(-0.0851901 0.127105 -8.08308e-07)
(-0.106814 0.124337 -9.16152e-07)
(-0.127134 0.114497 -1.62565e-06)
(-0.144845 0.0973054 1.5605e-06)
(-0.15736 0.0726624 1.12513e-05)
(-0.00134777 0.0306963 -2.89404e-06)
(-0.00815653 0.0760421 2.88251e-06)
(-0.021167 0.108557 -2.8993e-07)
(-0.0374676 0.130432 -8.1213e-07)
(-0.0556028 0.143176 -7.46465e-07)
(-0.0744304 0.147678 -8.09999e-07)
(-0.0928127 0.144177 -1.08951e-06)
(-0.109622 0.132337 -3.81075e-06)
(-0.124038 0.11141 -1.13044e-06)
(-0.133478 0.0797617 2.52562e-05)
(-0.00100129 0.0346033 -2.1022e-06)
(-0.00637305 0.0855309 2.48715e-06)
(-0.0168545 0.121881 -4.9344e-08)
(-0.0299991 0.146101 -4.6323e-07)
(-0.0443796 0.159873 -4.93183e-07)
(-0.0587347 0.164221 -7.25322e-07)
(-0.0717315 0.159485 -1.54249e-06)
(-0.0819436 0.145329 -9.49476e-06)
(-0.0889601 0.120834 -2.21968e-05)
(-0.0922075 0.0833693 7.59412e-06)
(0.000310268 -0.000313224 -1.08189e-07)
(2.16618e-05 0.000152243 -1.39695e-06)
(-0.00184311 0.000651039 -2.04669e-06)
(-0.00483407 0.000987688 -2.60953e-06)
(-0.00855771 0.00117872 -2.94608e-06)
(-0.0126728 0.0012609 -3.08673e-06)
(-0.0168966 0.00126167 -3.10054e-06)
(-0.0209916 0.00119459 -2.96914e-06)
(-0.024748 0.00106696 -2.69159e-06)
(-0.027989 0.000890344 -2.24786e-06)
(-0.000176117 -2.29422e-05 1.07832e-06)
(-0.00248058 0.00239193 -3.51699e-07)
(-0.00806866 0.00473091 1.1385e-06)
(-0.0159325 0.00641835 1.82875e-06)
(-0.0253421 0.00744824 2.17491e-06)
(-0.0356195 0.00791131 2.38294e-06)
(-0.0461248 0.0078941 2.34328e-06)
(-0.0562787 0.00745685 2.22486e-06)
(-0.0655637 0.00665501 1.96204e-06)
(-0.0735544 0.00557751 1.69548e-06)
(-0.000762781 0.00196894 1.91384e-06)
(-0.00519959 0.00809713 -1.79158e-06)
(-0.014291 0.0135359 -1.10641e-07)
(-0.02632 0.0175154 4.82764e-08)
(-0.0403107 0.0199936 -1.13172e-07)
(-0.0553919 0.0210984 -1.06922e-07)
(-0.0706939 0.0209727 -1.21803e-07)
(-0.0853947 0.0197402 -1.56951e-07)
(-0.0987377 0.0175487 -2.04506e-07)
(-0.110088 0.0146476 -1.26087e-07)
(-0.00123297 0.00538355 2.80372e-06)
(-0.00746906 0.016595 -2.50448e-06)
(-0.0195205 0.0258493 -1.29137e-08)
(-0.0349477 0.032527 1.99684e-07)
(-0.0525467 0.0366609 -8.35315e-08)
(-0.071312 0.0384366 -1.14636e-07)
(-0.0902166 0.0380393 -1.45105e-07)
(-0.108256 0.03564 -2.24669e-07)
(-0.124466 0.0314822 -3.77376e-07)
(-0.13799 0.0260182 -3.30976e-07)
(-0.00155537 0.00989084 3.43442e-06)
(-0.00909217 0.0272924 -2.9371e-06)
(-0.0233189 0.0408977 3.1221e-07)
(-0.0412198 0.05052 7.02382e-07)
(-0.0614045 0.0563947 4.2117e-07)
(-0.0827722 0.0588008 4.03541e-07)
(-0.104189 0.0579515 3.60751e-07)
(-0.124508 0.054029 2.10015e-07)
(-0.142566 0.0473378 -2.39075e-07)
(-0.157217 0.0385331 -4.61231e-07)
(-0.00172372 0.0150985 3.72168e-06)
(-0.00997981 0.0394518 -3.25166e-06)
(-0.0254382 0.057786 4.1511e-07)
(-0.044742 0.0705183 8.9913e-07)
(-0.0663847 0.0781812 6.22816e-07)
(-0.0892131 0.0811804 6.21261e-07)
(-0.112036 0.0797385 6.09002e-07)
(-0.133611 0.0739904 4.90114e-07)
(-0.152595 0.064216 -4.06633e-07)
(-0.167434 0.051188 -1.27515e-06)
(-0.00173853 0.0205815 3.62743e-06)
(-0.010097 0.0522173 -3.34712e-06)
(-0.0257547 0.0754488 4.45456e-07)
(-0.0452774 0.0913593 9.86242e-07)
(-0.067124 0.100826 7.53089e-07)
(-0.0901354 0.104403 7.8464e-07)
(-0.113119 0.102303 8.7179e-07)
(-0.134811 0.0945389 1.04742e-06)
(-0.153773 0.0812115 -5.31617e-07)
(-0.167925 0.0629476 -3.23319e-06)
(-0.00160646 0.0259138 3.44036e-06)
(-0.00945949 0.0646983 -3.19527e-06)
(-0.0242713 0.0927484 4.1034e-07)
(-0.042775 0.11177 9.62276e-07)
(-0.0634603 0.122984 7.88646e-07)
(-0.0851901 0.127105 8.04569e-07)
(-0.106814 0.124337 9.13361e-07)
(-0.127133 0.114497 1.62358e-06)
(-0.144845 0.0973054 -1.56196e-06)
(-0.15736 0.0726624 -1.12522e-05)
(-0.00134777 0.0306963 2.88945e-06)
(-0.00815653 0.0760421 -2.88764e-06)
(-0.021167 0.108557 2.85257e-07)
(-0.0374676 0.130432 8.08307e-07)
(-0.0556028 0.143176 7.43483e-07)
(-0.0744304 0.147678 8.07706e-07)
(-0.0928126 0.144177 1.08769e-06)
(-0.109622 0.132337 3.80929e-06)
(-0.124038 0.11141 1.12931e-06)
(-0.133478 0.0797617 -2.5257e-05)
(-0.00100129 0.0346033 2.0992e-06)
(-0.00637305 0.0855309 -2.49053e-06)
(-0.0168545 0.121881 4.64095e-08)
(-0.0299991 0.146101 4.60968e-07)
(-0.0443796 0.159873 4.91456e-07)
(-0.0587347 0.164221 7.23953e-07)
(-0.0717315 0.159485 1.54131e-06)
(-0.0819436 0.145329 9.49367e-06)
(-0.0889601 0.120834 2.21958e-05)
(-0.0922075 0.0833693 -7.59496e-06)
(0.000305322 -0.00030868 1.00858e-06)
(1.45847e-05 0.000158138 -0.000216103)
(-0.00184682 0.000665019 -0.000443145)
(-0.00483667 0.00100741 -0.00061103)
(-0.00855922 0.00120159 -0.00067589)
(-0.0126734 0.00128528 -0.00061737)
(-0.0168964 0.001286 -0.000429212)
(-0.0209904 0.00121771 -0.00011195)
(-0.0247457 0.0010877 0.000328354)
(-0.0279855 0.000908028 0.000878758)
(-0.000183465 -1.55903e-05 0.000217471)
(-0.00248358 0.00239394 -4.283e-06)
(-0.0080611 0.00474213 -0.00017263)
(-0.0159277 0.00643469 -0.000272588)
(-0.0253398 0.00746641 -0.000286075)
(-0.035619 0.00793032 -0.000197175)
(-0.0461257 0.00791299 7.89517e-07)
(-0.0562804 0.00747455 0.000310181)
(-0.0655655 0.00667065 0.000729642)
(-0.0735554 0.00559103 0.0012526)
(-0.000778763 0.00197452 0.000449909)
(-0.00521081 0.00809056 0.000157033)
(-0.014284 0.0135327 -1.22169e-05)
(-0.0263178 0.0175121 -9.0572e-05)
(-0.0403106 0.0199884 -8.66199e-05)
(-0.0553921 0.0210922 8.50583e-06)
(-0.0706947 0.0209663 0.000199096)
(-0.0853956 0.0197334 0.000488969)
(-0.0987377 0.0175417 0.000881241)
(-0.110086 0.014642 0.00137554)
(-0.0012559 0.00538838 0.000607202)
(-0.00748534 0.0165909 0.000228164)
(-0.0195113 0.0258502 3.49536e-05)
(-0.0349457 0.0325296 -4.55136e-05)
(-0.0525476 0.0366631 -4.38554e-05)
(-0.0713127 0.0384384 4.27978e-05)
(-0.0902178 0.0380407 0.000217041)
(-0.108258 0.0356403 0.000485299)
(-0.124466 0.0314804 0.000856951)
(-0.137985 0.026016 0.00134032)
(-0.00158284 0.00989375 0.000614604)
(-0.00911061 0.0272899 0.000160769)
(-0.0233062 0.0408997 -5.79701e-05)
(-0.0412166 0.0505241 -0.000150957)
(-0.0614053 0.0563992 -0.000164844)
(-0.0827732 0.0588055 -0.000100277)
(-0.104191 0.057956 4.62025e-05)
(-0.124512 0.0540322 0.000286521)
(-0.142569 0.0473364 0.000640179)
(-0.157209 0.0385296 0.00113107)
(-0.00175358 0.0150989 0.000422669)
(-0.0099991 0.0394502 -8.69064e-05)
(-0.0254231 0.0577869 -0.000326823)
(-0.0447377 0.0705207 -0.000439624)
(-0.0663851 0.0781842 -0.000481536)
(-0.0892139 0.081184 -0.000454011)
(-0.112038 0.0797426 -0.000349481)
(-0.133618 0.0739939 -0.000146634)
(-0.152601 0.0642114 0.000189772)
(-0.167419 0.051176 0.000714163)
(-0.00176841 0.0205803 7.50912e-06)
(-0.0101157 0.052217 -0.000535759)
(-0.0257383 0.0754489 -0.000789291)
(-0.0452722 0.09136 -0.000927061)
(-0.0671238 0.100827 -0.00100891)
(-0.0901353 0.104405 -0.00103503)
(-0.113121 0.102307 -0.000990757)
(-0.134823 0.0945436 -0.000841516)
(-0.153791 0.0812008 -0.000530462)
(-0.167896 0.0629092 5.81167e-05)
(-0.00163478 0.0259109 -0.000631238)
(-0.00947698 0.0646991 -0.00118623)
(-0.0242552 0.0927475 -0.00144454)
(-0.0427693 0.111769 -0.00161085)
(-0.0634594 0.122984 -0.00174379)
(-0.085189 0.127106 -0.00184172)
(-0.106815 0.124341 -0.00188144)
(-0.127156 0.114513 -0.00181312)
(-0.144898 0.0973094 -0.00155762)
(-0.157313 0.0726012 -0.000881973)
(-0.00137251 0.0306914 -0.00147133)
(-0.00817167 0.0760432 -0.00201882)
(-0.0211525 0.108555 -0.00227288)
(-0.0374618 0.130428 -0.00246889)
(-0.0556007 0.143172 -0.00266094)
(-0.0744258 0.147674 -0.00284688)
(-0.0928015 0.14418 -0.0029958)
(-0.109639 0.13237 -0.00304193)
(-0.124144 0.111485 -0.00289589)
(-0.133429 0.079792 -0.0021189)
(-0.00102112 0.0345972 -0.00247035)
(-0.0063853 0.0855322 -0.0029966)
(-0.0168431 0.121877 -0.00323754)
(-0.0299949 0.146093 -0.00346025)
(-0.0443781 0.15986 -0.00371306)
(-0.0587279 0.164198 -0.00399824)
(-0.0716981 0.159441 -0.00428675)
(-0.081902 0.145264 -0.00450894)
(-0.0890495 0.120771 -0.00463301)
(-0.0921284 0.0832502 -0.00403498)
(-0.0305973 0.000704184 -0.00151854)
(-0.032567 0.000510318 -0.00222223)
(-0.0339707 0.00034933 -0.00296693)
(-0.0349284 0.000229067 -0.00373537)
(-0.035565 0.0001473 -0.00451613)
(-0.0359896 9.73324e-05 -0.00530255)
(-0.036289 7.19872e-05 -0.00609148)
(-0.0365298 6.55342e-05 -0.00688216)
(-0.0367628 7.4057e-05 -0.0076757)
(-0.0370272 9.4959e-05 -0.00847481)
(-0.0373532 0.000126023 -0.00928386)
(-0.0377606 0.000164218 -0.010109)
(-0.0382551 0.000204328 -0.0109582)
(-0.0388197 0.000237532 -0.0118411)
(-0.0394042 0.000250191 -0.0127679)
(-0.0399126 0.000223506 -0.013748)
(-0.0401934 0.000135368 -0.0147864)
(-0.0400378 -3.38502e-05 -0.015881)
(-0.039199 -0.000296005 -0.0170158)
(-0.0374387 -0.00063925 -0.0181587)
(-0.079992 0.00438763 -0.00186531)
(-0.0848605 0.00324517 -0.00254792)
(-0.0883587 0.00228663 -0.00328195)
(-0.0907786 0.00155639 -0.00405206)
(-0.0924168 0.00104515 -0.00484649)
(-0.0935306 0.000718263 -0.00565698)
(-0.0943245 0.000536329 -0.00647839)
(-0.0949539 0.000465427 -0.00730807)
(-0.0955352 0.000479482 -0.00814549)
(-0.0961542 0.000558051 -0.00899196)
(-0.0968702 0.000681737 -0.00985051)
(-0.0977141 0.000826396 -0.0107257)
(-0.0986792 0.000956849 -0.0116237)
(-0.0997055 0.00102097 -0.0125512)
(-0.100659 0.000945846 -0.0135156)
(-0.101308 0.000639166 -0.0145225)
(-0.101309 5.80997e-07 -0.0155742)
(-0.100214 -0.00105232 -0.0166662)
(-0.0975108 -0.00254589 -0.0177845)
(-0.0927175 -0.0043973 -0.0189017)
(-0.11906 0.0114465 -0.00196263)
(-0.12569 0.00844815 -0.00262231)
(-0.130346 0.00595627 -0.00333707)
(-0.133506 0.00406883 -0.00409225)
(-0.135612 0.0027486 -0.00487587)
(-0.137028 0.0018989 -0.00567911)
(-0.138025 0.00141459 -0.00649605)
(-0.138802 0.00120577 -0.00732319)
(-0.139502 0.00120227 -0.00815912)
(-0.140225 0.00134758 -0.00900419)
(-0.141037 0.00158761 -0.0098603)
(-0.141967 0.00185715 -0.0107307)
(-0.142998 0.00206566 -0.01162)
(-0.144045 0.00208439 -0.0125334)
(-0.144937 0.00173902 -0.0134765)
(-0.145378 0.000814459 -0.0144544)
(-0.144933 -0.000917871 -0.01547)
(-0.143018 -0.00364167 -0.0165213)
(-0.13895 -0.00740025 -0.0175992)
(-0.132053 -0.0119822 -0.018683)
(-0.148283 0.020045 -0.00193)
(-0.155494 0.0145613 -0.0025961)
(-0.160282 0.0101169 -0.00331807)
(-0.163364 0.00682681 -0.00408014)
(-0.165323 0.00456707 -0.00486956)
(-0.166585 0.00312925 -0.00567731)
(-0.167444 0.00230945 -0.00649744)
(-0.168092 0.00194275 -0.00732637)
(-0.168661 0.00190477 -0.00816241)
(-0.169239 0.00209777 -0.00900531)
(-0.16988 0.00243047 -0.00985607)
(-0.170608 0.00279523 -0.0107168)
(-0.171405 0.00304469 -0.0115905)
(-0.172201 0.00297024 -0.0124814)
(-0.172839 0.00228778 -0.0133942)
(-0.17304 0.000641203 -0.0143348)
(-0.172365 -0.00235912 -0.0153088)
(-0.170179 -0.00704527 -0.0163202)
(-0.165656 -0.0135323 -0.0173685)
(-0.157871 -0.0215009 -0.0184438)
(-0.167635 0.0289448 -0.00176024)
(-0.174178 0.020427 -0.00246811)
(-0.178018 0.0138035 -0.00322682)
(-0.180196 0.00908732 -0.00401885)
(-0.181415 0.00595281 -0.00483085)
(-0.18211 0.00400717 -0.00565461)
(-0.182531 0.00291295 -0.00648543)
(-0.182821 0.002419 -0.00732064)
(-0.183062 0.00234753 -0.00815896)
(-0.183305 0.00256632 -0.00899996)
(-0.183579 0.00295729 -0.00984389)
(-0.183901 0.00338431 -0.0106916)
(-0.184271 0.00366058 -0.0115445)
(-0.184659 0.00351662 -0.0124053)
(-0.184981 0.00257353 -0.013278)
(-0.185058 0.0003332 -0.0141693)
(-0.184544 -0.00379038 -0.0150887)
(-0.182845 -0.0103614 -0.0160489)
(-0.179031 -0.0197017 -0.0170628)
(-0.171801 -0.0315166 -0.0181409)
(-0.176712 0.0369233 -0.00144628)
(-0.181187 0.0248764 -0.00224589)
(-0.182965 0.0160857 -0.00307613)
(-0.183491 0.0101849 -0.00392161)
(-0.183503 0.00645484 -0.00477094)
(-0.183347 0.00422909 -0.0056196)
(-0.183157 0.00301137 -0.00646626)
(-0.182971 0.00246868 -0.00731059)
(-0.182792 0.00238478 -0.00815252)
(-0.182613 0.00261116 -0.00899188)
(-0.18243 0.00302371 -0.00982824)
(-0.18225 0.00348315 -0.0106611)
(-0.182092 0.00379541 -0.0114899)
(-0.181988 0.00366921 -0.0123153)
(-0.18197 0.00267124 -0.0131397)
(-0.18203 0.000186177 -0.0139696)
(-0.182037 -0.00459242 -0.0148187)
(-0.181585 -0.0125754 -0.015709)
(-0.179759 -0.0245373 -0.0166721)
(-0.174763 -0.0405421 -0.0177579)
(-0.174573 0.0424877 -0.00100847)
(-0.175328 0.0265803 -0.00196843)
(-0.173984 0.0160636 -0.00290498)
(-0.172345 0.00959588 -0.00382061)
(-0.170952 0.00579594 -0.00471357)
(-0.1699 0.00365694 -0.00558858)
(-0.169118 0.00253718 -0.00645078)
(-0.168498 0.00205594 -0.00730354)
(-0.167947 0.00199121 -0.00814857)
(-0.167393 0.00220566 -0.00898607)
(-0.166792 0.00259469 -0.00981493)
(-0.166135 0.00304515 -0.010633)
(-0.165453 0.00339496 -0.0114375)
(-0.164831 0.00338548 -0.0122259)
(-0.164422 0.00259902 -0.0129975)
(-0.164438 0.000375658 -0.0137564)
(-0.165074 -0.00427689 -0.0145185)
(-0.166347 -0.0127022 -0.0153139)
(-0.167695 -0.0264774 -0.0161966)
(-0.166872 -0.0467462 -0.0172887)
(-0.159229 0.0434723 -0.000504228)
(-0.154323 0.0239419 -0.00170825)
(-0.149191 0.012989 -0.00277317)
(-0.145448 0.00710447 -0.00375913)
(-0.142933 0.00400207 -0.00468711)
(-0.141285 0.00239996 -0.00557906)
(-0.14017 0.00161632 -0.00644956)
(-0.139334 0.00130254 -0.00730607)
(-0.1386 0.00128096 -0.00815175)
(-0.137851 0.00145562 -0.00898681)
(-0.137011 0.00176249 -0.00980915)
(-0.136047 0.00213619 -0.0106147)
(-0.13498 0.00247895 -0.011398)
(-0.133911 0.00262006 -0.0121526)
(-0.133065 0.00225057 -0.0128728)
(-0.13283 0.000807914 -0.0135575)
(-0.133761 -0.00271441 -0.0142218)
(-0.136544 -0.00999434 -0.0148987)
(-0.141662 -0.0237247 -0.0156581)
(-0.147181 -0.0475522 -0.0167344)
(-0.126259 0.037362 -0.000223708)
(-0.113972 0.016052 -0.00169849)
(-0.105787 0.00709494 -0.00281097)
(-0.101216 0.0032976 -0.00380431)
(-0.0986098 0.00164075 -0.00472489)
(-0.0970757 0.000908576 -0.0056073)
(-0.096108 0.000594975 -0.00647097)
(-0.0954034 0.000490553 -0.00732346)
(-0.0947783 0.00050871 -0.00816681)
(-0.0941146 0.000612261 -0.00899986)
(-0.0933323 0.000782158 -0.00981885)
(-0.0923834 0.00100142 -0.0106175)
(-0.0912595 0.00124185 -0.0113871)
(-0.0900184 0.00144432 -0.0121162)
(-0.0888398 0.00147844 -0.0127916)
(-0.088115 0.00105084 -0.0134021)
(-0.0885274 -0.00051704 -0.0139558)
(-0.0913847 -0.00484064 -0.0144579)
(-0.0991621 -0.015477 -0.0149524)
(-0.112943 -0.0404267 -0.0158341)
(-0.0642723 0.0228987 -0.000873028)
(-0.0479488 0.00660094 -0.00233924)
(-0.0412613 0.0020121 -0.00309231)
(-0.0388387 0.000646008 -0.0038404)
(-0.0377879 0.000222162 -0.00460496)
(-0.0372519 9.24118e-05 -0.00538248)
(-0.0369329 5.76471e-05 -0.00617067)
(-0.0366917 5.70089e-05 -0.00696433)
(-0.0364545 7.35955e-05 -0.00775847)
(-0.0361728 0.000104076 -0.00854805)
(-0.0358077 0.000149233 -0.00932692)
(-0.0353251 0.000210979 -0.0100865)
(-0.0346972 0.00029075 -0.0108146)
(-0.0339106 0.000386229 -0.0114936)
(-0.0329882 0.000481005 -0.0120982)
(-0.0320401 0.000512908 -0.0125929)
(-0.0314088 0.000257997 -0.0129304)
(-0.0320536 -0.00113807 -0.0130743)
(-0.0376551 -0.00639525 -0.0129042)
(-0.0563019 -0.0256195 -0.0130509)
(-0.030601 0.000689693 1.68777e-06)
(-0.0325701 0.000499081 1.18134e-06)
(-0.0339729 0.000341029 7.82709e-07)
(-0.0349299 0.000223141 4.948e-07)
(-0.0355658 0.000143143 3.04366e-07)
(-0.03599 9.43815e-05 1.89756e-07)
(-0.0362892 6.97647e-05 1.30234e-07)
(-0.0365298 6.36549e-05 1.10099e-07)
(-0.0367626 7.22206e-05 1.18624e-07)
(-0.0370269 9.29399e-05 1.49119e-07)
(-0.0373528 0.000123671 1.96953e-07)
(-0.0377601 0.000161475 2.57082e-07)
(-0.0382545 0.000201264 3.21899e-07)
(-0.0388191 0.000234397 3.78886e-07)
(-0.0394038 0.000247479 4.0721e-07)
(-0.0399127 0.000222008 3.73093e-07)
(-0.0401942 0.00013615 2.34055e-07)
(-0.0400399 -2.96051e-05 -3.56673e-08)
(-0.0392028 -0.000287039 -5.10673e-07)
(-0.0374442 -0.000624821 -1.22601e-06)
(-0.0799911 0.00437564 -1.50456e-06)
(-0.084859 0.00323535 -1.25671e-06)
(-0.0883569 0.00227913 -9.94586e-07)
(-0.0907767 0.00155091 -7.60479e-07)
(-0.0924151 0.00104126 -5.6936e-07)
(-0.0935293 0.00071553 -4.28773e-07)
(-0.0943236 0.000534351 -3.38446e-07)
(-0.0949535 0.00046387 -2.92553e-07)
(-0.0955351 0.00047808 -2.83099e-07)
(-0.0961542 0.000556597 -3.00685e-07)
(-0.0968703 0.000680078 -3.33644e-07)
(-0.097714 0.00082444 -3.66711e-07)
(-0.0986787 0.000954589 -3.79216e-07)
(-0.0997043 0.00101853 -3.43733e-07)
(-0.100656 0.000943541 -2.2649e-07)
(-0.101304 0.000637566 7.86317e-09)
(-0.101305 4.96521e-07 3.82614e-07)
(-0.100209 -0.00104989 8.88654e-07)
(-0.0975065 -0.0025399 1.49506e-06)
(-0.092715 -0.00438766 2.06547e-06)
(-0.119063 0.0114485 -1.84587e-07)
(-0.125691 0.00844855 -3.2294e-07)
(-0.130346 0.00595625 -3.54722e-07)
(-0.133505 0.00406873 -3.37648e-07)
(-0.135611 0.0027486 -2.88837e-07)
(-0.137027 0.00189907 -2.30944e-07)
(-0.138024 0.00141494 -1.78455e-07)
(-0.138802 0.0012063 -1.36831e-07)
(-0.139502 0.00120299 -1.0684e-07)
(-0.140225 0.00134848 -8.65802e-08)
(-0.141037 0.00158866 -7.24134e-08)
(-0.141967 0.00185828 -5.98655e-08)
(-0.142997 0.00206672 -4.37655e-08)
(-0.144044 0.00208517 -1.76748e-08)
(-0.144935 0.00173928 2.70786e-08)
(-0.145376 0.000813922 9.77138e-08)
(-0.14493 -0.000919463 1.90147e-07)
(-0.143016 -0.00364427 2.98347e-07)
(-0.138949 -0.00740373 4.09737e-07)
(-0.132055 -0.011988 3.48493e-07)
(-0.148288 0.0200415 -2.94373e-07)
(-0.155496 0.0145573 -4.75487e-07)
(-0.160281 0.0101144 -4.72812e-07)
(-0.163362 0.00682542 -4.20749e-07)
(-0.165321 0.00456653 -3.35173e-07)
(-0.166584 0.00312926 -2.48272e-07)
(-0.167442 0.00230975 -1.76211e-07)
(-0.168091 0.00194319 -1.21558e-07)
(-0.168661 0.00190525 -8.26044e-08)
(-0.169239 0.00209827 -5.63611e-08)
(-0.16988 0.00243093 -3.94508e-08)
(-0.170607 0.00279559 -2.88631e-08)
(-0.171405 0.00304486 -2.19054e-08)
(-0.172201 0.00297011 -1.42507e-08)
(-0.172838 0.00228732 5.22182e-09)
(-0.173039 0.000640494 4.86727e-08)
(-0.172363 -0.00235991 1.02226e-07)
(-0.170176 -0.00704526 2.03255e-07)
(-0.165656 -0.0135299 3.96376e-07)
(-0.157877 -0.0214981 3.4991e-07)
(-0.167643 0.028936 -8.021e-07)
(-0.174178 0.0204195 -8.9961e-07)
(-0.178015 0.0137999 -7.29378e-07)
(-0.180193 0.00908598 -5.70708e-07)
(-0.181413 0.00595277 -4.0208e-07)
(-0.182108 0.00400774 -2.64413e-07)
(-0.18253 0.00291369 -1.69025e-07)
(-0.18282 0.0024197 -1.07406e-07)
(-0.183062 0.00234813 -7.028e-08)
(-0.183304 0.0025668 -5.05616e-08)
(-0.183579 0.00295764 -4.31632e-08)
(-0.183901 0.0033845 -4.47287e-08)
(-0.184271 0.00366056 -5.29091e-08)
(-0.184659 0.00351632 -6.28423e-08)
(-0.18498 0.002573 -5.51888e-08)
(-0.185056 0.000332665 -2.90638e-09)
(-0.184541 -0.00379044 5.05692e-08)
(-0.18284 -0.0103593 2.00845e-07)
(-0.179028 -0.0196931 6.97394e-07)
(-0.171811 -0.0315038 9.99205e-07)
(-0.176728 0.0369054 -1.71324e-06)
(-0.181183 0.0248643 -1.46272e-06)
(-0.182958 0.0160821 -9.17155e-07)
(-0.183486 0.0101847 -6.145e-07)
(-0.1835 0.00645599 -3.61749e-07)
(-0.183345 0.00423056 -1.90882e-07)
(-0.183155 0.00301268 -9.45522e-08)
(-0.18297 0.00246972 -4.34409e-08)
(-0.182792 0.00238558 -1.84722e-08)
(-0.182613 0.00261178 -8.98851e-09)
(-0.18243 0.00302419 -9.62265e-09)
(-0.18225 0.00348349 -1.84675e-08)
(-0.182092 0.00379557 -3.56979e-08)
(-0.181988 0.00366912 -6.05669e-08)
(-0.181969 0.00267089 -7.50917e-08)
(-0.182028 0.000185882 -4.4461e-08)
(-0.182032 -0.00459186 -2.32478e-08)
(-0.181574 -0.0125716 1.1176e-07)
(-0.179749 -0.024521 1.19935e-06)
(-0.17478 -0.0405146 2.53653e-06)
(-0.174606 0.0424629 -4.5584e-06)
(-0.175314 0.0265723 -3.01084e-06)
(-0.173969 0.0160673 -1.39229e-06)
(-0.172337 0.00960023 -7.26027e-07)
(-0.170948 0.00579949 -3.08637e-07)
(-0.169898 0.00365957 -9.54445e-08)
(-0.169117 0.00253899 -1.16528e-08)
(-0.168498 0.00205722 1.59215e-08)
(-0.167947 0.00199221 1.93717e-08)
(-0.167393 0.00220655 1.16806e-08)
(-0.166793 0.00259557 -2.71327e-09)
(-0.166136 0.00304604 -2.33634e-08)
(-0.165453 0.0033958 -5.1277e-08)
(-0.164831 0.00338604 -8.89572e-08)
(-0.164421 0.00259903 -1.17667e-07)
(-0.164435 0.0003751 -6.06402e-08)
(-0.165067 -0.00427842 7.30411e-08)
(-0.166327 -0.0127046 3.64024e-07)
(-0.167669 -0.0264659 2.89827e-06)
(-0.166904 -0.0467107 6.97001e-06)
(-0.159289 0.0434311 -7.74345e-06)
(-0.154291 0.0239522 -3.14722e-06)
(-0.149173 0.0130107 -6.39239e-07)
(-0.145443 0.00711677 -2.42986e-07)
(-0.142932 0.00400835 3.14255e-08)
(-0.141285 0.00240337 1.28119e-07)
(-0.14017 0.00161827 1.21247e-07)
(-0.139334 0.00130389 9.98429e-08)
(-0.1386 0.0012822 8.28324e-08)
(-0.137851 0.00145702 7.08273e-08)
(-0.137011 0.00176421 6.09144e-08)
(-0.136047 0.00213828 4.84757e-08)
(-0.13498 0.00248131 2.62905e-08)
(-0.133912 0.00262226 -2.60118e-08)
(-0.133065 0.00225173 -1.02581e-07)
(-0.132831 0.000806498 -3.34592e-08)
(-0.13376 -0.00272289 9.71633e-08)
(-0.136523 -0.0100168 -3.57705e-07)
(-0.141616 -0.023738 2.56255e-06)
(-0.14724 -0.0474964 1.1136e-05)
(-0.126332 0.0371654 -9.67522e-06)
(-0.113904 0.0159925 4.28711e-06)
(-0.105776 0.0070839 4.80003e-06)
(-0.101225 0.00329041 2.05046e-06)
(-0.0986152 0.00163541 1.06122e-06)
(-0.0970784 0.000905246 6.4441e-07)
(-0.0961094 0.000592787 4.0551e-07)
(-0.0954039 0.000488918 3.07514e-07)
(-0.0947783 0.000507287 2.95617e-07)
(-0.0941142 0.000610821 3.32572e-07)
(-0.0933318 0.000780552 3.98947e-07)
(-0.092383 0.000999597 4.77953e-07)
(-0.0912598 0.0012399 5.4012e-07)
(-0.0900201 0.0014426 5.09401e-07)
(-0.0888434 0.0014777 2.88458e-07)
(-0.0881238 0.00105206 -7.16225e-08)
(-0.0885465 -0.00051374 -1.29184e-06)
(-0.0913812 -0.00483338 -5.96011e-06)
(-0.0990723 -0.0154127 -8.08846e-06)
(-0.112994 -0.0401711 1.20411e-05)
(-0.0643151 0.0227538 -5.37591e-05)
(-0.0477902 0.00653212 -9.14535e-06)
(-0.0412164 0.00198436 -6.62311e-07)
(-0.0388344 0.000630343 -1.46946e-06)
(-0.037785 0.000213035 -9.54949e-07)
(-0.0372498 8.72724e-05 -4.48727e-07)
(-0.036932 5.45138e-05 -2.5406e-07)
(-0.0366914 5.47234e-05 -1.80261e-07)
(-0.0364545 7.15173e-05 -1.59947e-07)
(-0.036173 0.000101818 -1.76133e-07)
(-0.035808 0.000146559 -2.18074e-07)
(-0.0353255 0.000207792 -2.75242e-07)
(-0.0346975 0.00028718 -3.32756e-07)
(-0.0339107 0.000382864 -3.64541e-07)
(-0.0329871 0.000479189 -2.80367e-07)
(-0.0320392 0.00051487 1.64766e-07)
(-0.0314112 0.000267328 6.00857e-07)
(-0.0320118 -0.00111451 -1.98617e-06)
(-0.0374396 -0.00632129 3.9522e-06)
(-0.0562888 -0.0254251 6.79912e-05)
(-0.030601 0.000689693 -1.69048e-06)
(-0.0325701 0.000499081 -1.18313e-06)
(-0.0339729 0.000341029 -7.83941e-07)
(-0.0349299 0.000223141 -4.95579e-07)
(-0.0355658 0.000143143 -3.04763e-07)
(-0.03599 9.43815e-05 -1.8988e-07)
(-0.0362892 6.97645e-05 -1.30175e-07)
(-0.0365298 6.36548e-05 -1.0997e-07)
(-0.0367626 7.22205e-05 -1.18595e-07)
(-0.0370269 9.29397e-05 -1.49187e-07)
(-0.0373528 0.000123671 -1.97059e-07)
(-0.0377601 0.000161475 -2.57268e-07)
(-0.0382545 0.000201264 -3.22162e-07)
(-0.0388191 0.000234397 -3.79088e-07)
(-0.0394038 0.000247479 -4.07207e-07)
(-0.0399126 0.000222008 -3.72864e-07)
(-0.0401942 0.000136149 -2.33693e-07)
(-0.0400399 -2.9605e-05 3.60491e-08)
(-0.0392028 -0.000287038 5.11023e-07)
(-0.0374442 -0.00062482 1.22634e-06)
(-0.0799911 0.00437564 1.50167e-06)
(-0.084859 0.00323535 1.25478e-06)
(-0.0883569 0.00227913 9.93291e-07)
(-0.0907767 0.00155091 7.59692e-07)
(-0.0924151 0.00104126 5.68959e-07)
(-0.0935293 0.000715529 4.28597e-07)