/*--------------------------------*- C++ -*----------------------------------*\
| =========                 |                                                 |
| \\      /  F ield         | OpenFOAM: The Open Source CFD Toolbox           |
|  \\    /   O peration     | Version:  2.4.0                                 |
|   \\  /    A nd           | Web:      www.OpenFOAM.org                      |
|    \\/     M anipulation  |                                                 |
\*---------------------------------------------------------------------------*/
FoamFile
{
    version     2.0;
    format      ascii;
    class       volScalarField;
    location    "0.575";
    object      T;
}
// * * * * * * * * * * * * * * * * * * * * * * * * * * * * * * * * * * * * * //

dimensions      [0 0 0 1 0 0 0];

internalField   nonuniform List<scalar> 
1600
(
101.386
104.157
106.926
109.691
112.451
115.205
117.95
120.686
123.411
126.124
128.823
131.507
134.175
136.825
139.457
142.069
144.66
147.23
149.779
152.305
154.808
157.289
159.747
162.182
164.596
166.988
169.359
171.711
174.045
176.361
178.661
180.946
183.219
185.48
187.73
189.973
192.208
194.438
196.664
198.888
101.387
104.159
106.93
109.697
112.459
115.215
117.962
120.7
123.427
126.141
128.842
131.527
134.196
136.847
139.48
142.093
144.685
147.256
149.805
152.331
154.835
157.315
159.773
162.208
164.62
167.012
169.382
171.733
174.065
176.379
178.678
180.962
183.233
185.492
187.741
189.982
192.215
194.443
196.667
198.889
101.389
104.165
106.939
109.71
112.475
115.234
117.985
120.726
123.456
126.173
128.877
131.565
134.237
136.891
139.526
142.14
144.734
147.306
149.856
152.383
154.887
157.367
159.825
162.259
164.67
167.06
169.428
171.777
174.106
176.418
178.713
180.994
183.261
185.517
187.762
189.999
192.229
194.453
196.673
198.891
101.391
104.173
106.952
109.728
112.499
115.263
118.019
120.765
123.5
126.222
128.93
131.622
134.297
136.955
139.593
142.21
144.806
147.381
149.932
152.46
154.964
157.444
159.901
162.334
164.744
167.131
169.497
171.842
174.168
176.475
178.766
181.042
183.304
185.554
187.794
190.025
192.249
194.468
196.682
198.894
101.395
104.183
106.97
109.753
112.53
115.301
118.064
120.816
123.557
126.285
128.999
131.696
134.377
137.039
139.681
142.302
144.901
147.478
150.031
152.561
155.065
157.546
160.002
162.433
164.841
167.226
169.588
171.929
174.25
176.552
178.837
181.106
183.361
185.604
187.837
190.06
192.276
194.487
196.694
198.898
101.399
104.196
106.992
109.783
112.569
115.348
118.119
120.88
123.628
126.364
129.084
131.789
134.475
137.142
139.79
142.415
145.018
147.598
150.154
152.685
155.191
157.671
160.126
162.556
164.962
167.343
169.701
172.037
174.352
176.647
178.925
181.186
183.433
185.667
187.89
190.104
192.311
194.512
196.709
198.903
101.404
104.212
107.018
109.819
112.616
115.405
118.185
120.955
123.713
126.457
129.186
131.898
134.592
137.266
139.919
142.55
145.157
147.741
150.299
152.832
155.339
157.82
160.274
162.703
165.105
167.482
169.836
172.165
174.474
176.761
179.03
181.282
183.519
185.742
187.954
190.157
192.352
194.541
196.726
198.909
101.41
104.23
107.048
109.862
112.67
115.471
118.262
121.043
123.811
126.565
129.304
132.024
134.726
137.408
140.068
142.704
145.317
147.905
150.467
153.002
155.511
157.992
160.445
162.871
165.271
167.644
169.992
172.315
174.615
176.894
179.153
181.394
183.619
185.83
188.03
190.219
192.401
194.576
196.747
198.916
101.417
104.251
107.082
109.91
112.731
115.545
118.35
121.143
123.923
126.688
129.437
132.168
134.879
137.569
140.236
142.88
145.498
148.091
150.656
153.194
155.704
158.185
160.638
163.062
165.458
167.827
170.168
172.485
174.776
177.045
179.293
181.522
183.734
185.931
188.116
190.29
192.456
194.616
196.771
198.924
101.425
104.274
107.121
109.964
112.801
115.629
118.448
121.255
124.048
126.826
129.586
132.328
135.049
137.748
140.424
143.075
145.7
148.297
150.867
153.408
155.919
158.401
160.853
163.275
165.667
168.03
170.366
172.674
174.956
177.214
179.45
181.666
183.863
186.045
188.213
190.37
192.519
194.661
196.798
198.933
101.434
104.3
107.164
110.024
112.878
115.722
118.557
121.379
124.187
126.978
129.752
132.505
135.238
137.947
140.632
143.29
145.922
148.525
151.099
153.642
156.155
158.637
161.088
163.508
165.896
168.254
170.583
172.883
175.155
177.402
179.624
181.825
184.007
186.171
188.321
190.46
192.589
194.711
196.829
198.943
101.443
104.329
107.212
110.091
112.963
115.825
118.677
121.516
124.339
127.146
129.933
132.7
135.444
138.164
140.858
143.525
146.164
148.773
151.351
153.897
156.412
158.894
161.344
163.761
166.145
168.498
170.819
173.11
175.372
177.606
179.815
182
184.165
186.311
188.441
190.559
192.666
194.767
196.862
198.954
101.454
104.361
107.265
110.164
113.056
115.938
118.809
121.666
124.507
127.329
130.132
132.913
135.669
138.401
141.105
143.781
146.426
149.041
151.623
154.173
156.689
159.171
161.619
164.033
166.413
168.76
171.074
173.355
175.606
177.828
180.022
182.191
184.337
186.463
188.572
190.667
192.751
194.828
196.899
198.966
101.466
104.395
107.323
110.245
113.158
116.062
118.953
121.83
124.689
127.529
130.348
133.144
135.914
138.657
141.372
144.057
146.71
149.331
151.918
154.47
156.987
159.469
161.916
164.326
166.701
169.041
171.347
173.619
175.858
178.066
180.245
182.397
184.524
186.629
188.715
190.786
192.844
194.895
196.939
198.98
101.478
104.433
107.386
110.332
113.27
116.197
119.111
122.009
124.888
127.747
130.583
133.394
136.179
138.935
141.661
144.355
147.016
149.643
152.234
154.789
157.308
159.789
162.234
164.64
167.01
169.343
171.64
173.901
176.128
178.322
180.485
182.618
184.725
186.808
188.87
190.914
192.945
194.967
196.983
198.994
101.492
104.475
107.455
110.428
113.393
116.345
119.283
122.203
125.104
127.983
130.838
133.666
136.466
139.236
141.973
144.677
147.346
149.979
152.575
155.133
157.653
160.133
162.575
164.978
167.341
169.666
171.953
174.203
176.417
178.596
180.741
182.855
184.941
187
189.036
191.053
193.055
195.046
197.031
199.01
101.508
104.521
107.531
110.533
113.526
116.506
119.47
122.415
125.34
128.24
131.115
133.961
136.778
139.561
142.311
145.026
147.703
150.342
152.943
155.504
158.024
160.504
162.943
165.34
167.697
170.014
172.29
174.528
176.727
178.889
181.016
183.11
185.172
187.207
189.216
191.203
193.174
195.132
197.082
199.027
101.524
104.571
107.613
110.648
113.672
116.682
119.674
122.647
125.596
128.52
131.416
134.282
137.115
139.914
142.677
145.403
148.089
150.735
153.341
155.904
158.426
160.904
163.34
165.732
168.082
170.389
172.654
174.877
177.061
179.205
181.312
183.383
185.421
187.429
189.409
191.365
193.302
195.224
197.139
199.046
101.543
104.626
107.704
110.774
113.832
116.874
119.897
122.899
125.876
128.825
131.744
134.631
137.483
140.298
143.075
145.812
148.508
151.161
153.772
156.339
158.861
161.338
163.77
166.156
168.498
170.795
173.047
175.256
177.422
179.546
181.631
183.678
185.689
187.668
189.617
191.54
193.441
195.325
197.199
199.066
101.563
104.686
107.804
110.912
114.007
117.085
120.142
123.175
126.182
129.158
132.102
135.011
137.883
140.716
143.507
146.257
148.963
151.625
154.241
156.81
159.333
161.809
164.237
166.617
168.95
171.235
173.474
175.666
177.813
179.916
181.977
183.997
185.979
187.927
189.842
191.729
193.591
195.434
197.265
199.088
101.585
104.752
107.913
111.064
114.199
117.316
120.41
123.478
126.517
129.523
132.494
135.427
138.32
141.171
143.979
146.742
149.459
152.129
154.751
157.324
159.848
162.322
164.746
167.119
169.442
171.715
173.939
176.113
178.239
180.319
182.353
184.344
186.295
188.207
190.086
191.933
193.754
195.552
197.337
199.112
101.609
104.825
108.034
111.231
114.411
117.571
120.705
123.811
126.885
129.923
132.923
135.882
138.798
141.67
144.495
147.272
150.001
152.68
155.308
157.885
160.41
162.882
165.301
167.667
169.979
172.239
174.446
176.601
178.705
180.759
182.764
184.723
186.639
188.513
190.351
192.155
193.931
195.681
197.416
199.138
101.636
104.906
108.167
111.415
114.645
117.852
121.03
124.177
127.289
130.362
133.393
136.38
139.322
142.215
145.059
147.852
150.593
153.282
155.916
158.497
161.023
163.493
165.907
168.264
170.566
172.811
175
177.134
179.214
181.24
183.214
185.138
187.015
188.848
190.641
192.398
194.124
195.822
197.502
199.166
101.666
104.995
108.315
111.62
114.904
118.162
121.389
124.581
127.734
130.845
133.91
136.928
139.896
142.812
145.676
148.486
151.24
153.939
156.581
159.166
161.692
164.16
166.568
168.917
171.207
173.436
175.606
177.718
179.771
181.767
183.707
185.594
187.429
189.216
190.96
192.665
194.335
195.977
197.597
199.197
101.699
105.095
108.479
111.847
115.191
118.506
121.786
125.027
128.226
131.377
134.479
137.53
140.526
143.468
146.353
149.18
151.949
154.658
157.307
159.896
162.423
164.889
167.291
169.631
171.907
174.12
176.27
178.357
180.382
182.345
184.249
186.094
187.884
189.622
191.312
192.959
194.569
196.146
197.701
199.232
101.736
105.205
108.662
112.099
115.51
118.887
122.226
125.521
128.768
131.964
135.106
138.192
141.219
144.187
147.094
149.94
152.723
155.444
158.101
160.694
163.222
165.685
168.081
170.411
172.673
174.869
176.997
179.058
181.052
182.98
184.844
186.645
188.385
190.069
191.7
193.284
194.826
196.334
197.817
199.27
101.778
105.329
108.866
112.38
115.864
119.311
122.714
126.067
129.368
132.612
135.796
138.919
141.979
144.975
147.906
150.771
153.57
156.303
158.968
161.565
164.094
166.553
168.943
171.262
173.511
175.687
177.792
179.826
181.788
183.678
185.499
187.252
188.939
190.564
192.13
193.644
195.112
196.542
197.944
199.313
101.824
105.468
109.094
112.695
116.261
119.783
123.256
126.674
130.032
133.327
136.557
139.72
142.814
145.84
148.795
151.681
154.496
157.24
159.913
162.515
165.044
167.501
169.883
172.192
174.425
176.582
178.663
180.667
182.595
184.446
186.221
187.923
189.552
191.112
192.607
194.045
195.431
196.775
198.087
199.36
101.877
105.623
109.351
113.048
116.704
120.31
123.859
127.346
130.767
134.117
137.395
140.6
143.731
146.787
149.768
152.675
155.506
158.263
160.944
163.55
166.08
168.533
170.908
173.205
175.422
177.559
179.615
181.589
183.481
185.29
187.017
188.663
190.23
191.72
193.139
194.492
195.787
197.034
198.246
199.413
101.936
105.799
109.64
113.445
117.201
120.899
124.532
128.094
131.581
134.989
138.319
141.567
144.736
147.823
150.831
153.759
156.607
159.376
162.066
164.676
167.206
169.656
172.023
174.308
176.51
178.626
180.656
182.598
184.452
186.218
187.894
189.481
190.982
192.397
193.732
194.992
196.187
197.327
198.424
199.473
102.003
105.999
109.968
113.893
117.761
121.56
125.284
128.926
132.483
135.953
139.335
142.629
145.836
148.956
151.991
154.94
157.805
160.587
163.285
165.899
168.429
170.875
173.235
175.508
177.693
179.788
181.791
183.702
185.518
187.238
188.861
190.387
191.817
193.151
194.395
195.554
196.637
197.657
198.626
199.541
102.08
106.228
110.342
114.403
118.393
122.303
126.124
129.852
133.483
137.017
140.453
143.794
147.04
150.193
153.254
156.225
159.107
161.9
164.606
167.224
169.755
172.197
174.549
176.81
178.978
181.052
183.029
184.908
186.685
188.359
189.928
191.39
192.745
193.994
195.14
196.188
197.147
198.032
198.855
199.618
102.169
106.492
110.772
114.985
119.112
123.142
127.067
130.884
134.592
138.191
141.683
145.07
148.355
151.539
154.627
157.619
160.517
163.322
166.036
168.658
171.188
173.626
175.971
178.22
180.373
182.426
184.377
186.224
187.963
189.591
191.105
192.502
193.78
194.939
195.98
196.907
197.729
198.461
199.118
199.708
102.274
106.8
111.271
115.655
119.932
124.091
128.126
132.035
135.821
139.485
143.032
146.464
149.787
153.003
156.116
159.128
162.041
164.858
167.579
170.205
172.735
175.169
177.507
179.745
181.882
183.916
185.843
187.659
189.36
190.943
192.403
193.735
194.935
196.001
196.931
197.729
198.399
198.959
199.424
199.814
102.399
107.167
111.859
116.435
120.875
125.169
129.317
133.32
137.183
140.911
144.51
147.986
151.345
154.59
157.726
160.757
163.685
166.512
169.24
171.869
174.399
176.83
179.161
181.389
183.513
185.528
187.432
189.22
190.887
192.427
193.835
195.104
196.227
197.199
198.015
198.673
199.178
199.544
199.787
199.943
102.553
107.613
112.562
117.351
121.965
126.4
130.66
134.754
138.69
142.478
146.126
149.643
153.034
156.306
159.464
162.511
165.452
168.289
171.023
173.655
176.186
178.614
180.939
183.159
185.27
187.269
189.153
190.916
192.551
194.053
195.414
196.624
197.674
198.554
199.255
199.77
200.095
200.245
200.227
200.099
102.751
108.176
113.422
118.443
123.235
127.808
132.175
136.353
140.356
144.198
147.889
151.441
154.861
158.156
161.333
164.395
167.348
170.193
172.932
175.568
178.099
180.525
182.846
185.058
187.16
189.146
191.013
192.755
194.364
195.834
197.153
198.312
199.297
200.094
200.687
201.058
201.195
201.103
200.77
200.294
103.024
108.919
114.501
119.76
124.723
129.422
133.884
138.134
142.193
146.079
149.807
153.388
156.831
160.146
163.338
166.413
169.375
172.228
174.973
177.611
180.143
182.569
184.887
187.094
189.189
191.166
193.02
194.746
196.335
197.779
199.067
200.186
201.119
201.847
202.346
202.59
202.542
202.188
201.475
200.555
103.484
109.96
115.876
121.356
126.469
131.27
135.807
140.112
144.215
148.135
151.889
155.492
158.953
162.283
165.487
168.572
171.542
174.401
177.15
179.791
182.325
184.752
187.068
189.273
191.364
193.335
195.181
196.897
198.473
199.9
201.167
202.258
203.155
203.835
204.268
204.416
204.22
203.625
202.487
200.994
104.332
111.545
117.737
123.365
128.569
133.429
138.005
142.339
146.464
150.402
154.171
157.785
161.256
164.594
167.805
170.895
173.87
176.732
179.484
182.127
184.662
187.089
189.405
191.609
193.697
195.665
197.507
199.217
200.787
202.205
203.46
204.536
205.412
206.065
206.461
206.557
206.278
205.546
204.117
202.043
)
;

boundaryField
{
    carasuperior
    {
        type            fixedGradient;
        gradient        uniform 100;
    }
    lateralizquierda
    {
        type            fixedValue;
        value           uniform 100;
    }
    lateralderecha
    {
        type            fixedValue;
        value           uniform 200;
    }
    carainferior
    {
        type            zeroGradient;
    }
    frontAndBack
    {
        type            empty;
    }
}


// ************************************************************************* //
