/*--------------------------------*- C++ -*----------------------------------*\
| =========                 |                                                 |
| \\      /  F ield         | OpenFOAM: The Open Source CFD Toolbox           |
|  \\    /   O peration     | Version:  2.4.0                                 |
|   \\  /    A nd           | Web:      www.OpenFOAM.org                      |
|    \\/     M anipulation  |                                                 |
\*---------------------------------------------------------------------------*/
FoamFile
{
    version     2.0;
    format      ascii;
    class       volScalarField;
    location    "0.265";
    object      T;
}
// * * * * * * * * * * * * * * * * * * * * * * * * * * * * * * * * * * * * * //

dimensions      [0 0 0 1 0 0 0];

internalField   nonuniform List<scalar> 
1600
(
100.822
102.468
104.122
105.791
107.479
109.191
110.933
112.71
114.526
116.385
118.291
120.248
122.26
124.328
126.456
128.645
130.898
133.214
135.596
138.043
140.556
143.133
145.775
148.48
151.247
154.074
156.959
159.899
162.893
165.937
169.028
172.164
175.339
178.551
181.795
185.066
188.361
191.673
194.999
198.332
100.823
102.47
104.127
105.797
107.486
109.201
110.944
112.723
114.54
116.4
118.308
120.267
122.28
124.349
126.478
128.669
130.922
133.239
135.622
138.069
140.582
143.16
145.802
148.506
151.272
154.098
156.982
159.922
162.914
165.957
169.046
172.18
175.354
178.564
181.806
185.076
188.368
191.678
195.002
198.333
100.824
102.475
104.135
105.808
107.501
109.219
110.966
112.747
114.567
116.431
118.341
120.303
122.318
124.39
126.521
128.714
130.969
133.288
135.672
138.121
140.634
143.212
145.854
148.558
151.323
154.148
157.03
159.967
162.957
165.997
169.083
172.214
175.384
178.59
181.828
185.094
188.382
191.689
195.008
198.335
100.827
102.483
104.147
105.826
107.524
109.246
110.997
112.783
114.608
116.476
118.391
120.356
122.375
124.451
126.586
128.781
131.039
133.36
135.746
138.196
140.711
143.289
145.931
148.634
151.398
154.221
157.101
160.035
163.021
166.057
169.139
172.264
175.429
178.629
181.861
185.121
188.404
191.704
195.017
198.338
100.83
102.493
104.164
105.849
107.553
109.282
111.04
112.832
114.662
116.536
118.456
120.427
122.451
124.531
126.67
128.87
131.131
133.455
135.843
138.295
140.811
143.39
146.032
148.735
151.497
154.318
157.194
160.124
163.106
166.136
169.212
172.331
175.488
178.682
181.906
185.158
188.432
191.724
195.029
198.342
100.834
102.505
104.184
105.878
107.59
109.326
111.092
112.892
114.73
116.61
118.538
120.515
122.545
124.631
126.775
128.979
131.244
133.572
135.963
138.418
140.935
143.515
146.157
148.859
151.619
154.437
157.31
160.236
163.212
166.235
169.304
172.414
175.563
178.747
181.962
185.204
188.468
191.75
195.045
198.347
100.839
102.52
104.209
105.912
107.634
109.38
111.155
112.963
114.81
116.699
118.634
120.619
122.656
124.749
126.899
129.109
131.379
133.711
136.106
138.563
141.082
143.663
146.305
149.006
151.765
154.579
157.448
160.368
163.338
166.354
169.414
172.514
175.653
178.826
182.029
185.259
188.511
191.781
195.063
198.354
100.845
102.537
104.238
105.952
107.685
109.442
111.228
113.047
114.904
116.802
118.747
120.74
122.785
124.885
127.043
129.258
131.534
133.872
136.27
138.73
141.252
143.834
146.476
149.176
151.932
154.743
157.607
160.521
163.483
166.491
169.541
172.631
175.757
178.917
182.108
185.324
188.562
191.817
195.085
198.361
100.851
102.557
104.271
105.998
107.744
109.514
111.312
113.143
115.011
116.92
118.875
120.878
122.932
125.041
127.206
129.428
131.71
134.053
136.456
138.919
141.443
144.026
146.668
149.367
152.121
154.928
157.787
160.695
163.648
166.646
169.685
172.763
175.876
179.022
182.197
185.397
188.619
191.858
195.11
198.369
100.859
102.579
104.308
106.05
107.811
109.594
111.406
113.25
115.131
117.053
119.019
121.032
123.097
125.215
127.388
129.618
131.907
134.255
136.662
139.129
141.655
144.24
146.882
149.579
152.33
155.134
157.987
160.887
163.832
166.82
169.847
172.911
176.01
179.14
182.298
185.48
188.684
191.905
195.138
198.378
100.867
102.605
104.35
106.109
107.885
109.685
111.512
113.37
115.265
117.2
119.179
121.204
123.279
125.407
127.589
129.827
132.123
134.477
136.889
139.359
141.888
144.473
147.115
149.811
152.559
155.358
158.205
161.098
164.034
167.011
170.025
173.075
176.157
179.27
182.409
185.572
188.756
191.956
195.169
198.389
100.877
102.633
104.397
106.174
107.968
109.785
111.629
113.503
115.414
117.363
119.355
121.393
123.48
125.619
127.81
130.057
132.359
134.719
137.136
139.61
142.14
144.727
147.368
150.062
152.807
155.601
158.442
161.326
164.253
167.218
170.219
173.253
176.319
179.412
182.532
185.674
188.835
192.013
195.203
198.4
100.887
102.664
104.448
106.245
108.06
109.895
111.758
113.65
115.577
117.542
119.549
121.601
123.7
125.85
128.051
130.306
132.616
134.982
137.403
139.88
142.413
144.999
147.64
150.331
153.073
155.861
158.695
161.571
164.487
167.44
170.427
173.446
176.493
179.567
182.665
185.784
188.922
192.075
195.241
198.413
100.899
102.698
104.505
106.324
108.16
110.017
111.899
113.811
115.756
117.739
119.761
121.828
123.94
126.101
128.313
130.577
132.894
135.266
137.691
140.171
142.705
145.292
147.93
150.619
153.356
156.139
158.965
161.833
164.738
167.678
170.65
173.652
176.681
179.734
182.809
185.904
189.016
192.143
195.281
198.426
100.911
102.736
104.568
106.411
108.271
110.151
112.055
113.988
115.952
117.953
119.993
122.074
124.201
126.374
128.597
130.87
133.195
135.572
138.002
140.484
143.019
145.605
148.241
150.927
153.658
156.435
159.253
162.11
165.004
167.931
170.888
173.872
176.881
179.913
182.964
186.033
189.117
192.216
195.325
198.441
100.925
102.777
104.636
106.507
108.392
110.297
112.225
114.181
116.167
118.187
120.245
122.343
124.485
126.671
128.905
131.187
133.519
135.902
138.336
140.821
143.356
145.941
148.575
151.255
153.981
156.75
159.559
162.405
165.286
168.199
171.14
174.106
177.095
180.103
183.129
186.171
189.226
192.294
195.373
198.456
100.94
102.822
104.712
106.611
108.525
110.457
112.412
114.392
116.401
118.443
120.52
122.636
124.793
126.993
129.238
131.53
133.87
136.259
138.697
141.183
143.719
146.302
148.932
151.608
154.326
157.086
159.885
162.72
165.587
168.484
171.408
174.354
177.322
180.306
183.306
186.319
189.344
192.379
195.424
198.473
100.957
102.872
104.795
106.726
108.671
110.633
112.616
114.623
116.657
118.722
120.82
122.955
125.129
127.343
129.601
131.903
134.251
136.645
139.087
141.575
144.111
146.692
149.318
151.987
154.698
157.448
160.236
163.057
165.909
168.789
171.693
174.619
177.563
180.523
183.495
186.478
189.469
192.47
195.479
198.491
100.975
102.927
104.886
106.852
108.831
110.826
112.84
114.876
116.937
119.027
121.148
123.303
125.494
127.725
129.995
132.308
134.665
137.065
139.51
142.001
144.535
147.114
149.735
152.398
155.1
157.839
160.613
163.42
166.255
169.116
171.999
174.902
177.821
180.754
183.696
186.647
189.604
192.568
195.538
198.511
100.996
102.988
104.986
106.991
109.007
111.038
113.085
115.153
117.244
119.361
121.506
123.683
125.894
128.141
130.425
132.75
135.115
137.522
139.971
142.463
144.997
147.573
150.189
152.843
155.536
158.263
161.023
163.812
166.629
169.469
172.33
175.207
178.099
181.002
183.913
186.829
189.75
192.673
195.602
198.532
101.018
103.055
105.096
107.144
109.201
111.271
113.355
115.458
117.581
119.727
121.899
124.099
126.331
128.595
130.895
133.232
135.606
138.02
140.473
142.967
145.5
148.072
150.682
153.329
156.01
158.724
161.468
164.24
167.036
169.853
172.688
175.538
178.399
181.269
184.146
187.025
189.906
192.787
195.672
198.555
101.042
103.128
105.218
107.313
109.415
111.528
113.653
115.793
117.951
120.129
122.329
124.555
126.809
129.093
131.409
133.758
136.143
138.564
141.022
143.517
146.049
148.617
151.221
153.858
156.528
159.227
161.954
164.706
167.479
170.271
173.079
175.898
178.726
181.561
184.398
187.237
190.075
192.911
195.747
198.58
101.07
103.21
105.352
107.499
109.651
111.811
113.981
116.162
118.358
120.57
122.802
125.056
127.334
129.638
131.971
134.335
136.73
139.159
141.621
144.118
146.649
149.213
151.81
154.437
157.094
159.777
162.486
165.216
167.965
170.729
173.506
176.292
179.084
181.879
184.674
187.469
190.259
193.046
195.83
198.607
101.1
103.3
105.502
107.705
109.912
112.124
114.343
116.569
118.807
121.057
123.322
125.606
127.909
130.236
132.587
134.966
137.373
139.81
142.277
144.776
147.305
149.865
152.454
155.07
157.713
160.38
163.068
165.775
168.497
171.232
173.975
176.724
179.476
182.228
184.977
187.722
190.461
193.193
195.92
198.637
101.134
103.401
105.667
107.934
110.202
112.471
114.743
117.019
119.302
121.593
123.895
126.21
128.542
130.892
133.263
135.657
138.077
140.522
142.995
145.495
148.023
150.578
153.158
155.764
158.392
161.04
163.707
166.388
169.082
171.784
174.491
177.201
179.909
182.613
185.311
188.001
190.683
193.355
196.02
198.67
101.171
103.512
105.852
108.189
110.523
112.856
115.186
117.516
119.848
122.183
124.525
126.875
129.236
131.612
134.004
136.415
138.847
141.302
143.78
146.282
148.808
151.357
153.93
156.523
159.135
161.764
164.408
167.062
169.724
172.392
175.06
177.726
180.386
183.038
185.68
188.311
190.928
193.534
196.13
198.707
101.213
103.637
106.057
108.473
110.881
113.283
115.678
118.067
120.452
122.835
125.219
127.606
129.999
132.401
134.816
137.245
139.69
142.154
144.638
147.142
149.666
152.21
154.773
157.353
159.949
162.558
165.176
167.802
170.432
173.061
175.687
178.306
180.915
183.51
186.09
188.654
191.201
193.733
196.252
198.748
101.259
103.777
106.288
108.79
111.28
113.759
116.224
118.678
121.121
123.555
125.984
128.41
130.837
133.267
135.705
138.152
140.612
143.086
145.575
148.081
150.603
153.141
155.694
158.261
160.84
163.427
166.02
168.616
171.21
173.8
176.38
178.949
181.501
184.034
186.546
189.037
191.506
193.955
196.388
198.793
101.312
103.933
106.546
109.145
111.727
114.289
116.832
119.355
121.86
124.35
126.827
129.294
131.756
134.216
136.678
139.145
141.619
144.102
146.598
149.105
151.625
154.157
156.7
159.253
161.814
164.378
166.945
169.509
172.066
174.614
177.146
179.66
182.152
184.618
187.056
189.465
191.847
194.204
196.541
198.844
101.372
104.111
106.837
109.544
112.227
114.883
117.509
120.108
122.679
125.227
127.755
130.266
132.764
135.255
137.742
140.228
142.717
145.211
147.711
150.22
152.738
155.264
157.797
160.335
162.877
165.419
167.958
170.489
173.008
175.511
177.993
180.449
182.875
185.268
187.625
189.946
192.231
194.485
196.713
198.901
101.439
104.312
107.167
109.995
112.79
115.548
118.265
120.945
123.587
126.196
128.776
131.332
133.869
136.391
138.903
141.409
143.912
146.416
148.923
151.433
153.948
156.468
158.99
161.514
164.037
166.555
169.066
171.563
174.043
176.5
178.929
181.325
183.681
185.996
188.264
190.487
192.664
194.803
196.907
198.967
101.517
104.542
107.543
110.508
113.427
116.295
119.111
121.876
124.593
127.266
129.9
132.502
135.077
137.631
140.168
142.694
145.212
147.726
150.238
152.75
155.262
157.775
160.286
162.796
165.3
167.795
170.277
172.74
175.18
177.59
179.965
182.297
184.58
186.811
188.984
191.099
193.157
195.165
197.128
199.042
101.606
104.807
107.975
111.093
114.149
117.138
120.059
122.914
125.708
128.446
131.136
133.784
136.397
138.981
141.543
144.088
146.621
149.144
151.662
154.175
156.684
159.19
161.692
164.187
166.672
169.144
171.598
174.028
176.428
178.791
181.11
183.377
185.584
187.726
189.797
191.795
193.72
195.581
197.383
199.129
101.711
105.117
108.476
111.766
114.974
118.092
121.124
124.072
126.944
129.748
132.492
135.185
137.835
140.449
143.035
145.599
148.145
150.677
153.2
155.714
158.221
160.72
163.212
165.693
168.16
170.61
173.037
175.434
177.795
180.112
182.376
184.578
186.708
188.759
190.721
192.592
194.37
196.064
197.68
199.232
101.837
105.485
109.067
112.55
115.921
119.177
122.322
125.365
128.314
131.182
133.978
136.714
139.399
142.042
144.65
147.231
149.789
152.33
154.857
157.372
159.876
162.37
164.852
167.32
169.77
172.199
174.601
176.968
179.292
181.565
183.776
185.915
187.968
189.926
191.776
193.512
195.129
196.634
198.034
199.357
101.992
105.933
109.773
113.471
117.018
120.415
123.674
126.808
129.831
132.759
135.604
138.38
141.097
143.765
146.393
148.989
151.558
154.107
156.637
159.153
161.654
164.143
166.616
169.073
171.509
173.919
176.298
178.637
180.929
183.161
185.324
187.403
189.384
191.251
192.989
194.583
196.024
197.318
198.463
199.51
102.191
106.499
110.638
114.57
118.296
121.833
125.2
128.418
131.509
134.49
137.378
140.188
142.933
145.623
148.269
150.878
153.457
156.011
158.545
161.061
163.561
166.045
168.511
170.958
173.381
175.776
178.135
180.452
182.715
184.913
187.034
189.061
190.977
192.761
194.391
195.846
197.102
198.159
198.996
199.701
102.465
107.245
111.723
115.895
119.794
123.458
126.921
130.212
133.36
136.385
139.309
142.147
144.914
147.623
150.282
152.902
155.488
158.048
160.585
163.102
165.6
168.081
170.542
172.981
175.395
177.778
180.122
182.421
184.662
186.833
188.921
190.907
192.77
194.485
196.024
197.352
198.428
199.227
199.69
199.958
102.926
108.29
113.107
117.502
121.553
125.321
128.858
132.206
135.396
138.455
141.405
144.264
147.048
149.769
152.439
155.067
157.66
160.224
162.763
165.281
167.779
170.258
172.716
175.15
177.558
179.933
182.268
184.554
186.781
188.934
190.999
192.956
194.782
196.45
197.922
199.157
200.086
200.648
200.692
200.394
103.777
109.881
114.976
119.521
123.664
127.491
131.068
134.445
137.657
140.733
143.696
146.566
149.359
152.087
154.763
157.395
159.991
162.557
165.097
167.616
170.114
172.591
175.048
177.48
179.884
182.255
184.584
186.864
189.083
191.227
193.279
195.22
197.026
198.666
200.101
201.283
202.131
202.558
202.313
201.44
)
;

boundaryField
{
    carasuperior
    {
        type            fixedGradient;
        gradient        uniform 100;
    }
    lateralizquierda
    {
        type            fixedValue;
        value           uniform 100;
    }
    lateralderecha
    {
        type            fixedValue;
        value           uniform 200;
    }
    carainferior
    {
        type            zeroGradient;
    }
    frontAndBack
    {
        type            empty;
    }
}


// ************************************************************************* //
