/*--------------------------------*- C++ -*----------------------------------*\
| =========                 |                                                 |
| \\      /  F ield         | OpenFOAM: The Open Source CFD Toolbox           |
|  \\    /   O peration     | Version:  2.4.0                                 |
|   \\  /    A nd           | Web:      www.OpenFOAM.org                      |
|    \\/     M anipulation  |                                                 |
\*---------------------------------------------------------------------------*/
FoamFile
{
    version     2.0;
    format      ascii;
    class       volScalarField;
    location    "0.0061";
    object      T;
}
// * * * * * * * * * * * * * * * * * * * * * * * * * * * * * * * * * * * * * //

dimensions      [0 0 0 1 0 0 0];

internalField   nonuniform List<scalar> 
4800
(
100.194
100.581
100.968
101.354
101.737
102.117
102.487
102.844
103.182
103.493
100.581
101.742
102.903
104.063
105.217
106.358
107.475
108.552
109.571
110.511
100.968
102.903
104.841
106.778
108.71
110.624
112.503
114.319
116.039
117.626
101.354
104.063
106.778
109.499
112.22
114.927
117.593
120.182
122.64
124.908
101.738
105.218
108.71
112.22
115.744
119.268
122.762
126.174
129.431
132.438
102.117
106.359
110.625
114.927
119.269
123.64
128.012
132.322
136.471
140.314
102.488
107.476
112.504
117.595
122.763
128.012
133.322
138.632
143.816
148.66
102.845
108.554
114.321
120.184
126.176
132.324
138.633
145.068
151.502
157.641
103.182
109.573
116.042
122.643
129.435
136.474
143.819
151.503
159.482
167.46
103.494
110.514
117.63
124.914
132.444
140.32
148.665
157.645
167.462
178.222
100.194
100.581
100.968
101.354
101.738
102.117
102.487
102.844
103.182
103.493
100.581
101.742
102.903
104.063
105.217
106.358
107.475
108.552
109.571
110.511
100.968
102.903
104.841
106.778
108.71
110.624
112.503
114.319
116.039
117.626
101.354
104.063
106.778
109.499
112.22
114.927
117.593
120.182
122.64
124.908
101.738
105.217
108.71
112.22
115.744
119.268
122.762
126.174
129.431
132.438
102.117
106.359
110.625
114.927
119.269
123.64
128.012
132.322
136.471
140.314
102.488
107.476
112.504
117.595
122.763
128.013
133.323
138.632
143.816
148.66
102.845
108.554
114.321
120.184
126.177
132.324
138.634
145.068
151.502
157.641
103.182
109.573
116.042
122.644
129.435
136.475
143.819
151.504
159.482
167.46
103.494
110.514
117.631
124.914
132.445
140.32
148.666
157.645
167.462
178.223
100.194
100.581
100.968
101.354
101.738
102.117
102.487
102.844
103.182
103.493
100.581
101.742
102.903
104.063
105.217
106.358
107.475
108.552
109.571
110.511
100.968
102.903
104.841
106.778
108.71
110.624
112.503
114.319
116.039
117.626
101.354
104.063
106.778
109.499
112.22
114.927
117.593
120.182
122.64
124.908
101.738
105.217
108.71
112.22
115.744
119.268
122.762
126.174
129.431
132.438
102.117
106.359
110.625
114.927
119.269
123.64
128.012
132.322
136.471
140.314
102.488
107.476
112.504
117.595
122.763
128.013
133.323
138.632
143.816
148.66
102.845
108.554
114.321
120.184
126.177
132.324
138.634
145.068
151.502
157.641
103.182
109.573
116.042
122.644
129.435
136.475
143.819
151.504
159.482
167.46
103.494
110.514
117.631
124.914
132.445
140.32
148.666
157.645
167.462
178.223
100.194
100.581
100.968
101.354
101.737
102.117
102.487
102.844
103.182
103.493
100.581
101.742
102.903
104.063
105.217
106.358
107.475
108.552
109.571
110.511
100.968
102.903
104.841
106.778
108.71
110.624
112.503
114.319
116.039
117.626
101.354
104.063
106.778
109.499
112.22
114.927
117.593
120.182
122.64
124.908
101.738
105.218
108.71
112.22
115.744
119.268
122.762
126.174
129.431
132.438
102.117
106.359
110.625
114.927
119.269
123.64
128.012
132.322
136.471
140.314
102.488
107.476
112.504
117.595
122.763
128.012
133.322
138.632
143.816
148.66
102.845
108.554
114.321
120.184
126.176
132.324
138.633
145.068
151.502
157.641
103.182
109.573
116.042
122.643
129.435
136.474
143.819
151.503
159.482
167.46
103.494
110.514
117.63
124.914
132.444
140.32
148.665
157.645
167.462
178.222
103.773
104.016
104.222
104.391
104.526
104.63
104.707
104.762
104.796
104.813
104.813
104.796
104.761
104.707
104.63
104.526
104.391
104.222
104.016
103.773
111.354
112.087
112.704
113.208
113.609
113.916
114.144
114.304
114.405
114.454
114.454
114.405
114.304
114.144
113.916
113.608
113.208
112.703
112.086
111.353
119.045
120.272
121.298
122.13
122.784
123.282
123.65
123.906
124.067
124.145
124.145
124.067
123.905
123.649
123.281
122.782
122.128
121.297
120.271
119.044
126.928
128.659
130.087
131.229
132.114
132.78
133.266
133.602
133.812
133.913
133.913
133.812
133.601
133.265
132.779
132.112
131.227
130.085
128.657
126.926
135.1
137.347
139.164
140.583
141.662
142.459
143.032
143.423
143.667
143.783
143.783
143.666
143.422
143.03
142.457
141.659
140.581
139.162
137.345
135.098
143.687
146.464
148.638
150.28
151.49
152.363
152.978
153.393
153.648
153.77
153.77
153.648
153.392
152.977
152.361
151.488
150.277
148.635
146.462
143.685
152.869
156.186
158.643
160.408
161.654
162.526
163.125
163.522
163.764
163.878
163.878
163.763
163.521
163.123
162.524
161.653
160.406
158.641
156.183
152.867
162.942
166.765
169.342
171.053
172.194
172.96
173.472
173.806
174.007
174.102
174.101
174.007
173.805
173.472
172.959
172.193
171.052
169.34
166.764
162.941
174.494
178.591
180.906
182.268
183.11
183.649
183.999
184.223
184.357
184.419
184.419
184.356
184.223
183.998
183.648
183.109
182.267
180.905
178.591
174.494
188.984
192.199
193.422
194.004
194.328
194.526
194.651
194.73
194.777
194.799
194.799
194.777
194.73
194.651
194.525
194.328
194.003
193.422
192.199
188.983
103.773
104.016
104.222
104.391
104.526
104.63
104.707
104.761
104.796
104.812
104.812
104.795
104.761
104.707
104.629
104.525
104.391
104.222
104.016
103.772
111.354
112.086
112.704
113.208
113.608
113.916
114.144
114.304
114.405
114.454
114.454
114.405
114.303
114.143
113.915
113.607
113.207
112.702
112.085
111.352
119.045
120.272
121.298
122.129
122.783
123.282
123.649
123.905
124.066
124.144
124.144
124.066
123.904
123.648
123.28
122.781
122.127
121.296
120.27
119.042
126.928
128.658
130.087
131.228
132.113
132.78
133.265
133.601
133.812
133.913
133.912
133.811
133.6
133.264
132.778
132.111
131.225
130.084
128.655
126.925
135.1
137.347
139.164
140.583
141.661
142.459
143.031
143.423
143.666
143.783
143.782
143.665
143.421
143.029
142.456
141.658
140.58
139.16
137.343
135.097
143.687
146.464
148.638
150.279
151.489
152.363
152.978
153.392
153.648
153.769
153.769
153.647
153.391
152.975
152.36
151.486
150.276
148.634
146.461
143.683
152.869
156.185
158.643
160.407
161.654
162.525
163.124
163.521
163.763
163.878
163.877
163.762
163.52
163.122
162.523
161.651
160.404
158.64
156.182
152.865
162.942
166.765
169.342
171.053
172.194
172.96
173.472
173.805
174.006
174.101
174.1
174.006
173.804
173.47
172.958
172.192
171.05
169.339
166.762
162.94
174.494
178.591
180.905
182.268
183.109
183.648
183.998
184.222
184.356
184.418
184.418
184.355
184.222
183.997
183.647
183.108
182.266
180.904
178.589
174.492
188.984
192.199
193.422
194.003
194.328
194.525
194.651
194.73
194.777
194.799
194.799
194.777
194.73
194.65
194.525
194.327
194.003
193.421
192.198
188.982
103.773
104.016
104.222
104.391
104.526
104.63
104.707
104.761
104.796
104.812
104.812
104.795
104.761
104.707
104.629
104.525
104.391
104.222
104.016
103.772
111.354
112.086
112.704
113.208
113.608
113.916
114.144
114.304
114.405
114.454
114.454
114.405
114.303
114.143
113.915
113.607
113.207
112.702
112.085
111.352
119.045
120.272
121.298
122.129
122.783
123.282
123.649
123.905
124.066
124.144
124.144
124.066
123.904
123.648
123.28
122.781
122.127
121.296
120.27
119.042
126.928
128.658
130.087
131.228
132.113
132.78
133.265
133.601
133.812
133.913
133.912
133.811
133.6
133.264
132.778
132.111
131.225
130.084
128.655
126.925
135.1
137.347
139.164
140.583
141.661
142.459
143.031
143.423
143.666
143.783
143.782
143.665
143.421
143.029
142.456
141.658
140.58
139.16
137.343
135.097
143.687
146.464
148.638
150.279
151.489
152.363
152.978
153.392
153.648
153.769
153.769
153.647
153.391
152.975
152.36
151.486
150.276
148.634
146.461
143.683
152.869
156.185
158.643
160.407
161.654
162.525
163.124
163.521
163.763
163.878
163.877
163.762
163.52
163.122
162.523
161.651
160.404
158.64
156.182
152.865
162.942
166.765
169.342
171.053
172.194
172.96
173.472
173.805
174.006
174.101
174.1
174.006
173.804
173.47
172.958
172.192
171.05
169.339
166.762
162.94
174.494
178.591
180.905
182.268
183.109
183.648
183.998
184.222
184.356
184.418
184.418
184.355
184.222
183.997
183.647
183.108
182.266
180.904
178.589
174.492
188.984
192.199
193.422
194.003
194.328
194.525
194.651
194.73
194.777
194.799
194.799
194.777
194.73
194.65
194.525
194.327
194.003
193.421
192.198
188.982
103.773
104.016
104.222
104.391
104.526
104.63
104.707
104.762
104.796
104.813
104.813
104.796
104.761
104.707
104.63
104.526
104.391
104.222
104.016
103.773
111.354
112.087
112.704
113.208
113.609
113.916
114.144
114.304
114.405
114.454
114.454
114.405
114.304
114.144
113.916
113.608
113.208
112.703
112.086
111.353
119.045
120.272
121.298
122.13
122.784
123.282
123.65
123.906
124.067
124.145
124.145
124.067
123.905
123.649
123.281
122.782
122.128
121.297
120.271
119.044
126.928
128.659
130.087
131.229
132.114
132.78
133.266
133.602
133.812
133.913
133.913
133.812
133.601
133.265
132.779
132.112
131.227
130.085
128.657
126.926
135.1
137.347
139.164
140.583
141.662
142.459
143.032
143.423
143.667
143.783
143.783
143.666
143.422
143.03
142.457
141.659
140.581
139.162
137.345
135.098
143.687
146.464
148.638
150.28
151.49
152.363
152.978
153.393
153.648
153.77
153.77
153.648
153.392
152.977
152.361
151.488
150.277
148.635
146.462
143.685
152.869
156.186
158.643
160.408
161.654
162.526
163.125
163.522
163.764
163.878
163.878
163.763
163.521
163.123
162.524
161.653
160.406
158.641
156.183
152.867
162.942
166.765
169.342
171.053
172.194
172.96
173.472
173.806
174.007
174.102
174.101
174.007
173.805
173.472
172.959
172.193
171.052
169.34
166.764
162.941
174.494
178.591
180.906
182.268
183.11
183.649
183.999
184.223
184.357
184.419
184.419
184.356
184.223
183.998
183.648
183.109
182.267
180.905
178.591
174.494
188.984
192.199
193.422
194.004
194.328
194.526
194.651
194.73
194.777
194.799
194.799
194.777
194.73
194.651
194.525
194.328
194.003
193.422
192.199
188.983
103.493
103.182
102.844
102.488
102.117
101.738
101.354
100.968
100.581
100.194
110.511
109.571
108.552
107.476
106.359
105.218
104.064
102.904
101.743
100.581
117.625
116.038
114.319
112.503
110.625
108.711
106.779
104.842
102.904
100.968
124.907
122.639
120.181
117.593
114.927
112.221
109.5
106.779
104.064
101.354
132.437
129.43
126.174
122.762
119.269
115.745
112.221
108.711
105.218
101.738
140.313
136.47
132.322
128.012
123.641
119.27
114.928
110.626
106.36
102.117
148.659
143.816
138.633
133.323
128.014
122.765
117.596
112.506
107.477
102.488
157.641
151.502
145.069
138.635
132.326
126.179
120.186
114.323
108.555
102.845
167.46
159.483
151.505
143.821
136.477
129.437
122.646
116.044
109.574
103.183
178.223
167.463
157.647
148.668
140.323
132.448
124.917
117.633
110.516
103.495
103.492
103.181
102.844
102.487
102.116
101.737
101.353
100.967
100.58
100.193
110.509
109.57
108.551
107.474
106.357
105.216
104.062
102.903
101.741
100.58
117.623
116.037
114.317
112.502
110.623
108.709
106.778
104.84
102.903
100.967
124.905
122.638
120.18
117.592
114.925
112.219
109.499
106.778
104.063
101.353
132.435
129.428
126.172
122.76
119.267
115.744
112.22
108.71
105.217
101.737
140.311
136.469
132.321
128.011
123.639
119.268
114.927
110.625
106.358
102.116
148.657
143.814
138.631
133.322
128.012
122.763
117.594
112.504
107.476
102.487
157.639
151.5
145.067
138.633
132.324
126.177
120.184
114.321
108.554
102.844
167.458
159.481
151.503
143.819
136.475
129.435
122.644
116.042
109.573
103.182
178.221
167.461
157.645
148.666
140.321
132.446
124.915
117.631
110.514
103.494
103.492
103.181
102.844
102.487
102.116
101.737
101.353
100.967
100.58
100.193
110.509
109.57
108.551
107.474
106.357
105.216
104.062
102.903
101.741
100.58
117.623
116.037
114.317
112.502
110.623
108.709
106.778
104.84
102.903
100.967
124.905
122.638
120.18
117.592
114.925
112.219
109.499
106.778
104.063
101.353
132.435
129.428
126.172
122.76
119.267
115.744
112.22
108.71
105.217
101.737
140.311
136.469
132.321
128.011
123.639
119.268
114.927
110.625
106.358
102.116
148.657
143.814
138.631
133.322
128.012
122.763
117.594
112.504
107.476
102.487
157.639
151.5
145.067
138.633
132.324
126.177
120.184
114.321
108.554
102.844
167.458
159.481
151.503
143.819
136.475
129.435
122.644
116.042
109.573
103.182
178.221
167.461
157.645
148.666
140.321
132.446
124.915
117.631
110.514
103.494
103.493
103.182
102.844
102.488
102.117
101.738
101.354
100.968
100.581
100.194
110.511
109.571
108.552
107.476
106.359
105.218
104.064
102.904
101.743
100.581
117.625
116.038
114.319
112.503
110.625
108.711
106.779
104.842
102.904
100.968
124.907
122.639
120.181
117.593
114.927
112.221
109.5
106.779
104.064
101.354
132.437
129.43
126.174
122.762
119.269
115.745
112.221
108.711
105.218
101.738
140.313
136.47
132.322
128.012
123.641
119.27
114.928
110.626
106.36
102.117
148.659
143.816
138.633
133.323
128.014
122.765
117.596
112.506
107.477
102.488
157.641
151.502
145.069
138.635
132.326
126.179
120.186
114.323
108.555
102.845
167.46
159.483
151.505
143.821
136.477
129.437
122.646
116.044
109.574
103.183
178.223
167.463
157.647
148.668
140.323
132.448
124.917
117.633
110.516
103.495
188.986
174.501
162.952
152.881
143.7
135.114
126.94
119.055
111.36
103.775
192.203
178.6
166.779
156.203
146.483
137.366
128.676
120.286
112.096
104.02
193.426
180.918
169.361
158.667
148.664
139.19
130.111
121.317
112.716
104.227
194.01
182.285
171.079
160.44
150.315
140.619
131.261
122.155
113.225
104.397
194.336
183.133
172.23
161.699
151.539
141.71
132.157
122.819
113.631
104.534
194.537
183.68
173.009
162.586
152.43
142.526
132.84
123.33
113.947
104.641
194.666
184.042
173.539
163.207
153.069
143.122
133.348
123.714
114.186
104.722
194.751
184.282
173.896
163.635
153.518
143.547
133.713
123.994
114.361
104.781
194.805
184.437
174.131
163.919
153.819
143.836
133.964
124.187
114.483
104.823
194.838
184.529
174.271
164.09
154.003
144.015
134.121
124.309
114.559
104.849
194.852
184.57
174.335
164.169
154.089
144.099
134.195
124.367
114.596
104.862
194.85
184.565
174.328
164.163
154.085
144.097
134.196
124.368
114.598
104.862
194.831
184.512
174.25
164.071
153.99
144.01
134.122
124.313
114.564
104.851
194.792
184.402
174.088
163.882
153.796
143.83
133.971
124.2
114.493
104.827
194.725
184.216
173.82
163.573
153.485
143.545
133.732
124.021
114.384
104.79
194.614
183.918
173.403
163.107
153.026
143.133
133.393
123.771
114.231
104.739
194.427
183.44
172.767
162.428
152.382
142.57
132.939
123.44
114.03
104.671
194.079
182.647
171.801
161.46
151.505
141.83
132.356
123.021
113.778
104.587
193.318
181.272
170.332
160.111
150.351
140.892
131.635
122.513
113.476
104.487
191.241
178.795
168.147
158.306
148.9
139.758
130.785
121.922
113.128
104.372
188.984
174.498
162.95
152.879
143.698
135.111
126.938
119.053
111.359
103.774
192.201
178.598
166.777
156.2
146.481
137.363
128.674
120.284
112.094
104.019
193.425
180.916
169.358
158.664
148.661
139.188
130.109
121.315
112.714
104.226
194.008
182.282
171.076
160.437
150.313
140.617
131.258
122.153
113.223
104.396
194.334
183.13
172.227
161.696
151.536
141.708
132.155
122.816
113.629
104.533
194.535
183.677
173.006
162.583
152.427
142.523
132.838
123.328
113.945
104.64
194.664
184.039
173.535
163.204
153.066
143.12
133.345
123.712
114.184
104.721
194.749
184.279
173.893
163.632
153.515
143.545
133.711
123.992
114.359
104.78
194.803
184.434
174.128
163.916
153.816
143.833
133.962
124.185
114.481
104.821
194.835
184.526
174.268
164.087
154
144.012
134.118
124.306
114.557
104.848
194.85
184.567
174.331
164.166
154.086
144.096
134.193
124.365
114.594
104.86
194.848
184.562
174.324
164.16
154.081
144.094
134.193
124.366
114.595
104.861
194.829
184.509
174.246
164.068
153.987
144.007
134.119
124.311
114.562
104.849
194.79
184.398
174.084
163.878
153.793
143.827
133.968
124.197
114.491
104.826
194.722
184.212
173.816
163.569
153.481
143.541
133.729
124.019
114.382
104.789
194.612
183.914
173.399
163.103
153.022
143.13
133.39
123.768
114.228
104.737
194.424
183.436
172.763
162.425
152.378
142.567
132.936
123.437
114.028
104.67
194.076
182.643
171.797
161.456
151.501
141.826
132.353
123.018
113.776
104.586
193.316
181.268
170.328
160.107
150.347
140.889
131.632
122.51
113.474
104.486
191.238
178.791
168.143
158.302
148.896
139.754
130.781
121.919
113.126
104.371
188.984
174.498
162.95
152.879
143.698
135.111
126.938
119.053
111.359
103.774
192.201
178.598
166.777
156.2
146.481
137.363
128.674
120.284
112.094
104.019
193.425
180.916
169.358
158.664
148.661
139.188
130.109
121.315
112.714
104.226
194.008
182.282
171.076
160.437
150.313
140.617
131.258
122.153
113.223
104.396
194.334
183.13
172.227
161.696
151.536
141.708
132.155
122.816
113.629
104.533
194.535
183.677
173.006
162.583
152.427
142.523
132.838
123.328
113.945
104.64
194.664
184.039
173.535
163.204
153.066
143.12
133.345
123.712
114.184
104.721
194.749
184.279
173.893
163.632
153.515
143.545
133.711
123.992
114.359
104.78
194.803
184.434
174.128
163.916
153.816
143.833
133.962
124.185
114.481
104.821
194.835
184.526
174.268
164.087
154
144.012
134.118
124.306
114.557
104.848
194.85
184.567
174.331
164.166
154.086
144.096
134.193
124.365
114.594
104.86
194.848
184.562
174.324
164.16
154.081
144.094
134.193
124.366
114.595
104.861
194.829
184.509
174.246
164.068
153.987
144.007
134.119
124.311
114.562
104.849
194.79
184.398
174.084
163.878
153.793
143.827
133.968
124.197
114.491
104.826
194.722
184.212
173.816
163.569
153.481
143.541
133.729
124.019
114.382
104.789
194.612
183.914
173.399
163.103
153.022
143.13
133.39
123.768
114.228
104.737
194.424
183.436
172.763
162.425
152.378
142.567
132.936
123.437
114.028
104.67
194.076
182.643
171.797
161.456
151.501
141.826
132.353
123.018
113.776
104.586
193.316
181.268
170.328
160.107
150.347
140.889
131.632
122.51
113.474
104.486
191.238
178.791
168.143
158.302
148.896
139.754
130.781
121.919
113.126
104.371
188.986
174.501
162.952
152.881
143.7
135.114
126.94
119.055
111.36
103.775
192.203
178.6
166.779
156.203
146.483
137.366
128.676
120.286
112.096
104.02
193.426
180.918
169.361
158.667
148.664
139.19
130.111
121.317
112.716
104.227
194.01
182.285
171.079
160.44
150.315
140.619
131.261
122.155
113.225
104.397
194.336
183.133
172.23
161.699
151.539
141.71
132.157
122.819
113.631
104.534
194.537
183.68
173.009
162.586
152.43
142.526
132.84
123.33
113.947
104.641
194.666
184.042
173.539
163.207
153.069
143.122
133.348
123.714
114.186
104.722
194.751
184.282
173.896
163.635
153.518
143.547
133.713
123.994
114.361
104.781
194.805
184.437
174.131
163.919
153.819
143.836
133.964
124.187
114.483
104.823
194.838
184.529
174.271
164.091
154.003
144.015
134.121
124.309
114.559
104.849
194.852
184.57
174.335
164.169
154.089
144.099
134.195
124.367
114.596
104.862
194.85
184.565
174.328
164.163
154.085
144.097
134.196
124.368
114.598
104.862
194.831
184.512
174.25
164.071
153.99
144.01
134.122
124.313
114.564
104.851
194.792
184.402
174.088
163.882
153.796
143.83
133.971
124.2
114.493
104.827
194.725
184.216
173.82
163.573
153.485
143.545
133.732
124.021
114.384
104.79
194.614
183.918
173.403
163.107
153.026
143.133
133.393
123.771
114.231
104.739
194.427
183.44
172.767
162.428
152.382
142.57
132.939
123.44
114.03
104.671
194.079
182.647
171.801
161.46
151.505
141.83
132.356
123.021
113.778
104.587
193.318
181.272
170.332
160.111
150.351
140.892
131.635
122.513
113.476
104.487
191.241
178.795
168.147
158.306
148.9
139.758
130.785
121.922
113.128
104.372
184.086
174.524
165.161
156.072
147.193
138.46
129.829
121.265
112.743
104.246
177.791
170.063
161.91
153.637
145.346
137.07
128.811
120.569
112.338
104.112
172.706
166.037
158.79
151.229
143.497
135.669
127.785
119.867
111.928
103.977
168.634
162.604
155.998
149.005
141.755
134.335
126.801
119.192
111.534
103.848
165.381
159.762
153.608
147.05
140.195
133.125
125.902
118.571
111.17
103.728
162.814
157.472
151.64
145.409
138.865
132.082
125.12
118.029
110.851
103.623
160.841
155.692
150.087
144.096
137.788
131.229
124.476
117.581
110.587
103.536
159.406
154.386
148.938
143.115
136.978
130.583
123.986
117.238
110.384
103.469
158.468
153.531
148.18
142.465
136.437
130.151
123.658
117.008
110.247
103.424
158.005
153.107
147.804
142.141
136.167
129.935
123.494
116.893
110.179
103.406
184.083
174.52
165.157
156.068
147.189
138.457
129.825
121.262
112.741
104.244
177.788
170.059
161.906
153.633
145.343
137.066
128.808
120.566
112.335
104.111
172.703
166.034
158.787
151.226
143.493
135.666
127.782
119.864
111.925
103.976
168.631
162.601
155.995
149.001
141.751
134.331
126.798
119.188
111.531
103.846
165.378
159.759
153.605
147.047
140.192
133.122
125.898
118.568
111.167
103.726
162.811
157.469
151.637
145.406
138.862
132.078
125.116
118.025
110.848
103.621
160.839
155.689
150.084
144.093
137.785
131.226
124.472
117.576
110.583
103.533
159.403
154.384
148.935
143.112
136.974
130.579
123.982
117.233
110.379
103.466
158.466
153.528
148.177
142.462
136.434
130.147
123.653
117.002
110.241
103.419
158.003
153.105
147.801
142.138
136.164
129.931
123.489
116.887
110.172
103.4
184.083
174.52
165.157
156.068
147.189
138.457
129.825
121.262
112.741
104.244
177.788
170.059
161.906
153.633
145.343
137.066
128.808
120.566
112.335
104.111
172.703
166.034
158.787
151.226
143.493
135.666
127.782
119.864
111.925
103.976
168.631
162.601
155.995
149.001
141.751
134.331
126.798
119.188
111.531
103.846
165.378
159.759
153.605
147.047
140.192
133.122
125.898
118.568
111.167
103.726
162.811
157.469
151.637
145.406
138.862
132.078
125.116
118.025
110.848
103.621
160.839
155.689
150.084
144.093
137.785
131.226
124.472
117.576
110.583
103.533
159.403
154.384
148.935
143.112
136.974
130.579
123.982
117.233
110.379
103.466
158.465
153.528
148.177
142.461
136.434
130.147
123.653
117.002
110.241
103.419
158.002
153.104
147.801
142.138
136.164
129.931
123.489
116.887
110.172
103.4
184.086
174.524
165.161
156.072
147.193
138.46
129.829
121.265
112.743
104.245
177.791
170.063
161.91
153.637
145.346
137.07
128.811
120.569
112.337
104.112
172.706
166.038
158.79
151.229
143.497
135.669
127.785
119.867
111.928
103.977
168.634
162.604
155.998
149.005
141.755
134.335
126.801
119.192
111.534
103.848
165.381
159.762
153.608
147.05
140.195
133.125
125.902
118.571
111.17
103.728
162.814
157.472
151.64
145.409
138.865
132.082
125.12
118.029
110.851
103.623
160.841
155.692
150.087
144.096
137.788
131.229
124.476
117.58
110.587
103.536
159.405
154.386
148.937
143.115
136.977
130.583
123.986
117.238
110.384
103.469
158.468
153.53
148.18
142.465
136.437
130.151
123.658
117.008
110.247
103.424
158.005
153.107
147.804
142.141
136.167
129.934
123.493
116.893
110.179
103.406
192.793
195.571
196.746
197.383
197.787
198.064
198.257
198.39
198.473
198.514
198.514
198.474
198.391
198.259
198.066
197.79
197.386
196.749
195.573
192.795
184.314
188.317
190.781
192.387
193.493
194.277
194.835
195.221
195.466
195.584
195.585
195.468
195.225
194.84
194.282
193.499
192.394
190.788
188.323
184.318
178.364
182.611
185.679
187.901
189.527
190.723
191.594
192.203
192.591
192.781
192.782
192.595
192.209
191.601
190.732
189.537
187.912
185.691
182.622
178.373
173.843
178.096
181.437
184.021
186.003
187.508
188.627
189.42
189.929
190.179
190.18
189.934
189.428
188.637
187.522
186.018
184.037
181.454
178.113
173.86
170.308
174.508
177.967
180.758
182.973
184.698
186.002
186.939
187.545
187.843
187.845
187.551
186.949
186.017
184.716
182.995
180.782
177.993
174.534
170.334
167.542
171.68
175.185
178.093
180.455
182.329
183.767
184.81
185.49
185.826
185.829
185.498
184.824
183.786
182.354
180.484
178.125
175.221
171.717
167.58
165.424
169.506
173.025
175.996
178.449
180.423
181.953
183.072
183.805
184.169
184.172
183.815
183.089
181.977
180.453
178.486
176.038
173.071
169.556
165.476
163.884
167.922
171.44
174.444
176.952
178.987
180.578
181.748
182.518
182.902
182.906
182.531
181.769
180.607
179.024
176.996
174.495
171.496
167.983
163.948
162.877
166.884
170.398
173.419
175.956
178.029
179.656
180.857
181.65
182.046
182.05
181.664
180.881
179.689
178.071
176.007
173.477
170.463
166.955
162.952
162.379
166.371
169.881
172.908
175.46
177.549
179.193
180.409
181.213
181.614
181.619
181.228
180.435
179.229
177.594
175.514
172.972
169.952
166.448
162.461
192.795
195.572
196.748
197.385
197.788
198.064
198.258
198.39
198.473
198.514
198.514
198.474
198.391
198.258
198.065
197.789
197.385
196.748
195.571
192.793
184.317
188.32
190.783
192.39
193.494
194.278
194.836
195.222
195.466
195.584
195.584
195.467
195.224
194.839
194.281
193.497
192.392
190.785
188.321
184.316
178.367
182.614
185.682
187.903
189.529
190.725
191.595
192.204
192.592
192.781
192.781
192.594
192.208
191.6
190.731
189.535
187.91
185.689
182.619
178.37
173.846
178.099
181.44
184.023
186.005
187.51
188.628
189.421
189.929
190.179
190.18
189.933
189.427
188.636
187.52
186.017
184.035
181.452
178.111
173.857
170.311
174.511
177.97
180.761
182.975
184.7
186.003
186.939
187.545
187.843
187.845
187.55
186.948
186.016
184.715
182.993
180.78
177.991
174.532
170.331
167.545
171.683
175.188
178.095
180.457
182.331
183.768
184.811
185.49
185.826
185.828
185.498
184.823
183.785
182.352
180.482
178.123
175.219
171.715
167.577
165.427
169.509
173.028
175.998
178.451
180.424
181.954
183.072
183.805
184.169
184.172
183.815
183.088
181.976
180.452
178.484
176.036
173.069
169.553
165.473
163.887
167.924
171.443
174.446
176.953
178.989
180.579
181.749
182.518
182.901
182.905
182.53
181.768
180.606
179.023
176.994
174.493
171.494
167.98
163.946
162.88
166.887
170.401
173.421
175.958
178.03
179.657
180.858
181.65
182.045
182.05
181.664
180.88
179.688
178.069
176.005
173.475
170.461
166.953
162.95
162.381
166.373
169.884
172.911
175.461
177.55
179.194
180.41
181.213
181.614
181.619
181.228
180.434
179.227
177.593
175.513
172.97
169.95
166.445
162.458
192.795
195.572
196.748
197.385
197.788
198.064
198.258
198.39
198.473
198.514
198.514
198.474
198.391
198.258
198.065
197.789
197.385
196.748
195.571
192.793
184.317
188.32
190.783
192.39
193.494
194.278
194.836
195.222
195.466
195.584
195.584
195.467
195.224
194.839
194.281
193.497
192.392
190.785
188.321
184.316
178.367
182.614
185.682
187.903
189.529
190.725
191.595
192.204
192.592
192.781
192.781
192.594
192.208
191.6
190.731
189.535
187.91
185.689
182.619
178.37
173.846
178.099
181.44
184.023
186.005
187.51
188.628
189.421
189.929
190.179
190.18
189.933
189.427
188.636
187.52
186.017
184.035
181.452
178.111
173.857
170.311
174.511
177.97
180.761
182.975
184.7
186.003
186.939
187.545
187.843
187.845
187.55
186.948
186.016
184.715
182.993
180.78
177.991
174.532
170.331
167.545
171.683
175.188
178.095
180.457
182.331
183.768
184.811
185.49
185.826
185.828
185.498
184.823
183.785
182.352
180.482
178.123
175.219
171.715
167.577
165.427
169.509
173.028
175.998
178.451
180.424
181.954
183.072
183.805
184.169
184.172
183.815
183.088
181.976
180.452
178.484
176.036
173.069
169.553
165.473
163.887
167.924
171.442
174.446
176.953
178.989
180.579
181.749
182.518
182.901
182.905
182.53
181.768
180.606
179.023
176.994
174.493
171.494
167.98
163.946
162.88
166.887
170.4
173.421
175.958
178.03
179.657
180.858
181.65
182.045
182.05
181.663
180.88
179.688
178.069
176.005
173.475
170.461
166.952
162.949
162.381
166.373
169.883
172.91
175.461
177.55
179.194
180.41
181.213
181.614
181.619
181.227
180.434
179.227
177.593
175.512
172.97
169.95
166.445
162.458
192.793
195.571
196.746
197.383
197.787
198.064
198.257
198.39
198.473
198.514
198.514
198.474
198.391
198.259
198.066
197.79
197.386
196.749
195.573
192.795
184.314
188.317
190.781
192.387
193.493
194.277
194.835
195.222
195.466
195.584
195.585
195.468
195.225
194.84
194.282
193.499
192.394
190.788
188.323
184.318
178.364
182.611
185.68
187.901
189.527
190.723
191.594
192.203
192.591
192.781
192.782
192.595
192.209
191.601
190.732
189.537
187.912
185.691
182.622
178.373
173.843
178.096
181.437
184.021
186.003
187.509
188.627
189.42
189.929
190.179
190.18
189.934
189.428
188.637
187.522
186.018
184.037
181.454
178.113
173.86
170.308
174.508
177.967
180.759
182.974
184.698
186.002
186.939
187.545
187.843
187.845
187.551
186.949
186.017
184.716
182.995
180.782
177.993
174.534
170.334
167.542
171.68
175.186
178.093
180.455
182.329
183.767
184.81
185.49
185.826
185.829
185.498
184.824
183.787
182.354
180.484
178.125
175.221
171.717
167.58
165.424
169.507
173.026
175.996
178.449
180.423
181.953
183.072
183.805
184.169
184.172
183.815
183.089
181.977
180.453
178.486
176.038
173.071
169.556
165.475
163.884
167.922
171.44
174.444
176.951
178.987
180.578
181.748
182.518
182.901
182.905
182.531
181.769
180.607
179.024
176.995
174.494
171.496
167.982
163.948
162.877
166.884
170.398
173.418
175.956
178.028
179.656
180.857
181.65
182.045
182.05
181.664
180.881
179.689
178.071
176.007
173.477
170.463
166.955
162.952
162.378
166.37
169.881
172.908
175.459
177.548
179.193
180.409
181.212
181.614
181.619
181.228
180.435
179.228
177.594
175.514
172.971
169.952
166.447
162.46
104.245
112.745
121.268
129.834
138.467
147.2
156.078
165.166
174.527
184.086
104.112
112.338
120.572
128.816
137.075
145.352
153.641
161.913
170.063
177.788
103.977
111.928
119.868
127.787
135.671
143.498
151.229
158.788
166.033
172.698
103.846
111.531
119.189
126.799
134.331
141.75
148.997
155.988
162.591
168.619
103.726
111.165
118.565
125.893
133.114
140.181
147.033
153.588
159.739
165.356
103.619
110.843
118.017
125.103
132.061
138.839
145.378
151.606
157.436
162.776
103.531
110.575
117.562
124.45
131.196
137.749
144.051
150.038
155.641
160.79
103.462
110.367
117.211
123.949
130.537
136.924
143.055
148.874
154.321
159.34
103.415
110.227
116.972
123.609
130.092
136.37
142.391
148.103
153.452
158.39