/*--------------------------------*- C++ -*----------------------------------*\
| =========                 |                                                 |
| \\      /  F ield         | OpenFOAM: The Open Source CFD Toolbox           |
|  \\    /   O peration     | Version:  2.4.0                                 |
|   \\  /    A nd           | Web:      www.OpenFOAM.org                      |
|    \\/     M anipulation  |                                                 |
\*---------------------------------------------------------------------------*/
FoamFile
{
    version     2.0;
    format      ascii;
    class       volScalarField;
    location    "0.22";
    object      T;
}
// * * * * * * * * * * * * * * * * * * * * * * * * * * * * * * * * * * * * * //

dimensions      [0 0 0 1 0 0 0];

internalField   nonuniform List<scalar> 
1600
(
100.494
101.488
102.497
103.529
104.595
105.703
106.863
108.083
109.371
110.734
112.18
113.715
115.345
117.075
118.91
120.853
122.908
125.077
127.361
129.762
132.279
134.912
137.66
140.521
143.492
146.571
149.753
153.035
156.412
159.879
163.43
167.059
170.759
174.523
178.344
182.214
186.124
190.066
194.03
198.009
100.495
101.491
102.501
103.535
104.602
105.712
106.873
108.095
109.384
110.749
112.196
113.733
115.364
117.095
118.931
120.876
122.932
125.101
127.386
129.787
132.305
134.938
137.686
140.547
143.517
146.595
149.777
153.058
156.433
159.899
163.448
167.075
170.774
174.536
178.355
182.223
186.131
190.071
194.033
198.01
100.497
101.495
102.508
103.545
104.616
105.729
106.894
108.118
109.41
110.778
112.228
113.767
115.401
117.135
118.973
120.92
122.977
125.149
127.435
129.838
132.356
134.99
137.738
140.598
143.568
146.645
149.825
153.104
156.477
159.94
163.486
167.109
170.804
174.563
178.378
182.242
186.146
190.081
194.039
198.012
100.499
101.502
102.52
103.562
104.637
105.755
106.924
108.152
109.449
110.821
112.275
113.818
115.456
117.193
119.035
120.985
123.045
125.219
127.508
129.912
132.432
135.066
137.814
140.674
143.644
146.719
149.896
153.172
156.542
160
163.542
167.161
170.85
174.603
178.412
182.27
186.167
190.097
194.049
198.015
100.502
101.512
102.536
103.584
104.665
105.789
106.964
108.198
109.501
110.878
112.338
113.886
115.528
117.27
119.116
121.07
123.134
125.312
127.603
130.009
132.531
135.166
137.915
140.775
143.742
146.816
149.99
153.263
156.628
160.081
163.617
167.229
170.911
174.656
178.457
182.307
186.196
190.118
194.061
198.019
100.506
101.523
102.555
103.611
104.7
105.832
107.014
108.256
109.565
110.949
112.415
113.97
115.618
117.366
119.217
121.176
123.245
125.426
127.72
130.13
132.653
135.29
138.039
140.898
143.865
146.936
150.107
153.375
156.735
160.181
163.709
167.313
170.987
174.723
178.514
182.354
186.233
190.144
194.077
198.024
100.511
101.538
102.579
103.644
104.742
105.883
107.074
108.324
109.642
111.034
112.508
114.07
115.725
117.48
119.337
121.302
123.375
125.561
127.86
130.272
132.798
135.436
138.186
141.045
144.01
147.078
150.245
153.508
156.862
160.301
163.82
167.415
171.078
174.802
178.582
182.41
186.277
190.175
194.096
198.03
100.517
101.554
102.607
103.683
104.792
105.943
107.144
108.405
109.732
111.133
112.616
114.186
115.85
117.612
119.476
121.447
123.527
125.717
128.02
130.436
132.964
135.605
138.355
141.213
144.176
147.242
150.405
153.662
157.009
160.439
163.949
167.533
171.183
174.895
178.662
182.475
186.328
190.212
194.118
198.038
100.523
101.573
102.639
103.727
104.848
106.011
107.225
108.497
109.835
111.247
112.74
114.32
115.992
117.762
119.634
121.612
123.698
125.894
128.202
130.621
133.152
135.794
138.545
141.403
144.364
147.426
150.585
153.836
157.175
160.596
164.095
167.666
171.304
175.001
178.752
182.55
186.386
190.253
194.143
198.046
100.53
101.595
102.675
103.778
104.913
106.089
107.316
108.601
109.951
111.375
112.879
114.469
116.152
117.931
119.811
121.796
123.889
126.091
128.403
130.827
133.361
136.004
138.756
141.613
144.572
147.631
150.784
154.029
157.359
160.77
164.258
167.816
171.438
175.12
178.854
182.634
186.452
190.3
194.171
198.055
100.538
101.62
102.715
103.834
104.985
106.177
107.418
108.717
110.081
111.518
113.034
114.636
116.329
118.118
120.007
122
124.1
126.308
128.625
131.052
133.589
136.234
138.986
141.842
144.799
147.854
151.002
154.239
157.561
160.962
164.437
167.98
171.587
175.251
178.966
182.726
186.524
190.352
194.202
198.066
100.548
101.647
102.761
103.897
105.066
106.275
107.532
108.847
110.226
111.677
113.206
114.82
116.525
118.324
120.223
122.224
124.331
126.545
128.867
131.298
133.837
136.483
139.235
142.089
145.043
148.094
151.236
154.466
157.778
161.168
164.63
168.159
171.749
175.394
179.089
182.828
186.604
190.409
194.237
198.077
100.558
101.677
102.811
103.968
105.155
106.383
107.658
108.99
110.385
111.852
113.396
115.023
116.739
118.55
120.458
122.468
124.582
126.801
129.128
131.562
134.103
136.75
139.501
142.354
145.305
148.351
151.487
154.709
158.011
161.39
164.838
168.351
171.923
175.549
179.223
182.939
186.691
190.472
194.274
198.09
100.569
101.711
102.867
104.045
105.254
106.502
107.797
109.148
110.561
112.044
113.603
115.245
116.974
118.796
120.714
122.733
124.854
127.079
129.41
131.847
134.39
137.037
139.786
142.636
145.583
148.623
151.753
154.966
158.259
161.625
165.059
168.556
172.11
175.715
179.367
183.058
186.784
190.539
194.315
198.103
100.581
101.748
102.929
104.131
105.363
106.633
107.95
109.321
110.754
112.255
113.831
115.487
117.23
119.064
120.993
123.02
125.148
127.379
129.714
132.153
134.697
137.343
140.091
142.937
145.879
148.913
152.034
155.238
158.52
161.874
165.294
168.774
172.309
175.893
179.52
183.186
186.885
190.611
194.359
198.118
100.595
101.789
102.996
104.225
105.482
106.778
108.118
109.512
110.965
112.485
114.079
115.752
117.509
119.356
121.295
123.331
125.467
127.703
130.042
132.483
135.026
137.671
140.416
143.258
146.194
149.22
152.333
155.527
158.796
162.136
165.541
169.004
172.519
176.081
179.684
183.323
186.993
190.689
194.406
198.133
100.61
101.834
103.071
104.328
105.614
106.936
108.303
109.72
111.197
112.738
114.351
116.041
117.813
119.673
121.624
123.669
125.812
128.053
130.395
132.838
135.381
138.024
140.765
143.602
146.531
149.548
152.651
155.833
159.089
162.415
165.802
169.247
172.741
176.28
179.858
183.469
187.109
190.773
194.456
198.15
100.627
101.884
103.153
104.442
105.759
107.111
108.505
109.95
111.45
113.014
114.648
116.356
118.145
120.019
121.982
124.036
126.186
128.433
130.778
133.222
135.765
138.405
141.141
143.971
146.892
149.9
152.991
156.16
159.402
162.71
166.08
169.504
172.977
176.492
180.043
183.624
187.232
190.862
194.51
198.168
100.645
101.938
103.244
104.568
105.919
107.303
108.728
110.201
111.729
113.317
114.973
116.701
118.508
120.396
122.371
124.436
126.594
128.846
131.194
133.639
136.18
138.817
141.548
144.371
147.282
150.279
153.357
156.511
159.737
163.027
166.377
169.779
173.228
176.716
180.239
183.79
187.364
190.958
194.568
198.187
100.665
101.999
103.344
104.706
106.094
107.514
108.973
110.477
112.034
113.65
115.329
117.079
118.904
120.809
122.797
124.873
127.038
129.296
131.647
134.093
136.632
139.265
141.99
144.804
147.705
150.69
153.753
156.891
160.098
163.368
166.696
170.074
173.496
176.957
180.449
183.967
187.505
191.06
194.631
198.208
100.687
102.065
103.454
104.859
106.288
107.747
109.242
110.781
112.37
114.014
115.72
117.493
119.338
121.26
123.262
125.349
127.524
129.787
132.141
134.587
137.125
139.754
142.472
145.277
148.166
151.137
154.185
157.304
160.491
163.739
167.041
170.393
173.786
177.215
180.674
184.157
187.657
191.171
194.698
198.23
100.712
102.139
103.576
105.028
106.501
108.003
109.54
111.116
112.74
114.415
116.15
117.947
119.814
121.754
123.772
125.871
128.054
130.324
132.682
135.128
137.664
140.287
142.998
145.793
148.67
151.626
154.655
157.755
160.919
164.142
167.418
170.74
174.101
177.496
180.918
184.362
187.821
191.291
194.771
198.254
100.739
102.221
103.71
105.214
106.738
108.287
109.867
111.485
113.147
114.857
116.622
118.447
120.337
122.297
124.331
126.443
128.636
130.912
133.273
135.72
138.253
140.871
143.574
146.358
149.221
152.16
155.171
158.249
161.389
164.584
167.83
171.119
174.446
177.803
181.185
184.586
187.999
191.422
194.851
198.281
100.77
102.311
103.86
105.421
106.999
108.6
110.23
111.893
113.595
115.343
117.141
118.995
120.911
122.892
124.944
127.07
129.273
131.556
133.921
136.368
138.898
141.511
144.204
146.977
149.825
152.747
155.737
158.791
161.904
165.07
168.283
171.537
174.824
178.14
181.477
184.83
188.194
191.564
194.939
198.31
100.803
102.412
104.026
105.65
107.289
108.948
110.631
112.343
114.091
115.879
117.713
119.599
121.541
123.546
125.616
127.757
129.971
132.262
134.63
137.078
139.605
142.211
144.895
147.655
150.488
153.39
156.358
159.387
162.471
165.605
168.782
171.997
175.242
178.511
181.799
185.1
188.409
191.721
195.035
198.342
100.841
102.524
104.211
105.905
107.612
109.333
111.075
112.841
114.638
116.47
118.343
120.263
122.235
124.264
126.354
128.511
130.736
133.035
135.407
137.855
140.379
142.979
145.653
148.399
151.215
154.097
157.041
160.043
163.096
166.194
169.333
172.505
175.704
178.923
182.156
185.399
188.646
191.894
195.142
198.377
100.883
102.648
104.417
106.19
107.97
109.761
111.567
113.393
115.243
117.122
119.038
120.994
122.997
125.052
127.163
129.336
131.574
133.881
136.257
138.706
141.226
143.819
146.482
149.215
152.013
154.874
157.792
160.764
163.784
166.846
169.943
173.068
176.216
179.38
182.553
185.732
188.911
192.087
195.261
198.417
100.929
102.788
104.647
106.507
108.37
110.238
112.115
114.004
115.912
117.843
119.803
121.798
123.834
125.916
128.05
130.241
132.491
134.806
137.187
139.635
142.153
144.738
147.39
150.108
152.887
155.726
158.618
161.559
164.543
167.565
170.617
173.693
176.785
179.888
182.996
186.103
189.206
192.303
195.393
198.461
100.982
102.946
104.906
106.863
108.817
110.77
112.724
114.683
116.653
118.639
120.646
122.682
124.753
126.864
129.021
131.23
133.494
135.817
138.202
140.651
143.164
145.742
148.383
151.085
153.845
156.66
159.524
162.433
165.38
168.36
171.364
174.386
177.419
180.456
183.491
186.519
189.538
192.545
195.542
198.51
101.042
103.123
105.198
107.264
109.319
111.364
113.402
115.437
117.473
119.517
121.575
123.654
125.761
127.902
130.083
132.31
134.588
136.92
139.309
141.758
144.267
146.837
149.466
152.152
154.893
157.683
160.519
163.394
166.303
169.237
172.191
175.156
178.125
181.09
184.046
186.987
189.912
192.819
195.709
198.566
101.11
103.325
105.528
107.716
109.883
112.031
114.16
116.276
118.383
120.488
122.598
124.722
126.866
129.037
131.243
133.489
135.78
138.12
140.514
142.963
145.468
148.03
150.647
153.317
156.037
158.803
161.609
164.45
167.318
170.207
173.108
176.012
178.912
181.8
184.67
187.516
190.335
193.129
195.899
198.63
101.187
103.555
105.905
108.229
110.521
112.78
115.008
117.209
119.391
121.56
123.724
125.893
128.075
130.277
132.507
134.771
137.076
139.425
141.823
144.272
146.773
149.326
151.931
154.584
157.284
160.025
162.802
165.608
168.436
171.277
174.123
176.965
179.793
182.598
185.374
188.114
190.817
193.484
196.116
198.704
101.277
103.821
106.338
108.815
111.245
113.625
115.958
118.25
120.508
122.742
124.962
127.177
129.396
131.628
133.882
136.165
138.482
140.84
143.241
145.69
148.186
150.732
153.324
155.962
158.642
161.358
164.106
166.877
169.665
172.458
175.249
178.025
180.778
183.496
186.171
188.796
191.368
193.891
196.365
198.789
101.382
104.131
106.841
109.49
112.071
114.581
117.025
119.411
121.748
124.047
126.321
128.581
130.836
133.098
135.375
137.675
140.005
142.37
144.775
147.223
149.715
152.252
154.833
157.456
160.116
162.809
165.528
168.266
171.013
173.76
176.495
179.207
181.882
184.51
187.078
189.579
192.007
194.365
196.657
198.89
101.508
104.5
107.432
110.276
113.021
115.669
118.227
120.707
123.122
125.485
127.811
130.113
132.403
134.693
136.991
139.307
141.648
144.02
146.428
148.876
151.364
153.893
156.463
159.071
161.713
164.384
167.076
169.782
172.492
175.194
177.876
180.524
183.123
185.659
188.116
190.484
192.752
194.926
197.005
199.014
101.663
104.95
108.14
111.2
114.121
116.911
119.583
122.155
124.644
127.067
129.442
131.783
134.105
136.419
138.736
141.066
143.417
145.796
148.206
150.652
153.136
155.659
158.219
160.813
163.439
166.089
168.758
171.435
174.111
176.772
179.405
181.993
184.52
186.965
189.311
191.539
193.635
195.6
197.428
199.165
101.863
105.516
109.008
112.302
115.404
118.334
121.115
123.771
126.327
128.804
131.222
133.597
135.946
138.281
140.615
142.957
145.316
147.7
150.112
152.558
155.038
157.554
160.106
162.689
165.3
167.934
170.582
173.234
175.88
178.506
181.097
183.633
186.094
188.457
190.696
192.786
194.7
196.431
197.955
199.353
102.138
106.265
110.096
113.631
116.908
119.966
122.843
125.573
128.186
130.707
133.159
135.562
137.933
140.285
142.632
144.984
147.35
149.737
152.151
154.596
157.074
159.585
162.13
164.704
167.305
169.925
172.557
175.19
177.813
180.411
182.967
185.462
187.87
190.165
192.313
194.277
196.012
197.489
198.643
199.608
102.6
107.313
111.485
115.245
118.674
121.837
124.789
127.575
130.23
132.785
135.263
137.686
140.073
142.437
144.794
147.152
149.523
151.914
154.329
156.774
159.25
161.759
164.299
166.868
169.461
172.072
174.693
177.313
179.92
182.499
185.032
187.498
189.869
192.116
194.198
196.069
197.659
198.9
199.638
200.042
103.452
108.907
113.359
117.27
120.792
124.014
127.006
129.821
132.498
135.069
137.56
139.994
142.388
144.759
147.12
149.483
151.856
154.248
156.664
159.108
161.584
164.09
166.628
169.193
171.782
174.388
177.003
179.617
182.216
184.785
187.305
189.754
192.104
194.323
196.368
198.188
199.696
200.803
201.254
201.085
)
;

boundaryField
{
    carasuperior
    {
        type            fixedGradient;
        gradient        uniform 100;
    }
    lateralizquierda
    {
        type            fixedValue;
        value           uniform 100;
    }
    lateralderecha
    {
        type            fixedValue;
        value           uniform 200;
    }
    carainferior
    {
        type            zeroGradient;
    }
    frontAndBack
    {
        type            empty;
    }
}


// ************************************************************************* //
