/*--------------------------------*- C++ -*----------------------------------*\
| =========                 |                                                 |
| \\      /  F ield         | OpenFOAM: The Open Source CFD Toolbox           |
|  \\    /   O peration     | Version:  2.4.0                                 |
|   \\  /    A nd           | Web:      www.OpenFOAM.org                      |
|    \\/     M anipulation  |                                                 |
\*---------------------------------------------------------------------------*/
FoamFile
{
    version     2.0;
    format      ascii;
    class       volScalarField;
    location    "1.04";
    object      T;
}
// * * * * * * * * * * * * * * * * * * * * * * * * * * * * * * * * * * * * * //

dimensions      [0 0 0 1 0 0 0];

internalField   nonuniform List<scalar> 
1600
(
101.414
104.24
107.064
109.884
112.697
115.502
118.298
121.081
123.852
126.607
129.345
132.065
134.765
137.444
140.101
142.734
145.342
147.925
150.481
153.011
155.514
157.99
160.439
162.861
165.257
167.627
169.974
172.296
174.597
176.877
179.138
181.381
183.609
185.823
188.024
190.216
192.399
194.575
196.747
198.916
101.415
104.243
107.069
109.89
112.705
115.512
118.309
121.095
123.867
126.623
129.363
132.085
134.786
137.466
140.124
142.758
145.367
147.95
150.507
153.038
155.541
158.016
160.465
162.886
165.281
167.651
169.996
172.318
174.617
176.896
179.155
181.397
183.623
185.835
188.035
190.224
192.406
194.58
196.75
198.917
101.416
104.248
107.078
109.903
112.721
115.532
118.332
121.121
123.896
126.656
129.399
132.123
134.827
137.51
140.17
142.805
145.416
148.001
150.559
153.089
155.593
158.068
160.516
162.937
165.331
167.699
170.042
172.362
174.658
176.934
179.19
181.429
183.651
185.86
188.056
190.242
192.419
194.59
196.756
198.919
101.419
104.256
107.091
109.921
112.745
115.561
118.366
121.16
123.94
126.704
129.451
132.18
134.888
137.574
140.237
142.875
145.488
148.075
150.634
153.166
155.67
158.145
160.593
163.012
165.405
167.771
170.111
172.427
174.72
176.991
179.243
181.477
183.694
185.897
188.088
190.268
192.439
194.604
196.764
198.922
101.423
104.267
107.109
109.946
112.777
115.599
118.411
121.212
123.998
126.768
129.521
132.255
134.967
137.658
140.325
142.967
145.583
148.172
150.734
153.267
155.771
158.247
160.693
163.112
165.502
167.865
170.202
172.513
174.802
177.068
179.313
181.54
183.751
185.947
188.13
190.303
192.467
194.624
196.776
198.926
101.427
104.28
107.131
109.976
112.816
115.647
118.467
121.275
124.069
126.847
129.607
132.347
135.066
137.762
140.434
143.081
145.701
148.293
150.857
153.391
155.897
158.372
160.818
163.235
165.622
167.982
170.314
172.621
174.903
177.163
179.401
181.62
183.822
186.009
188.184
190.347
192.501
194.648
196.791
198.931
101.432
104.296
107.157
110.013
112.862
115.703
118.534
121.351
124.154
126.94
129.708
132.456
135.183
137.885
140.563
143.215
145.839
148.435
151.002
153.539
156.045
158.521
160.966
163.381
165.765
168.121
170.449
172.75
175.025
177.276
179.506
181.716
183.908
186.085
188.248
190.4
192.542
194.678
196.809
198.937
101.438
104.314
107.187
110.055
112.917
115.769
118.611
121.439
124.252
127.049
129.826
132.583
135.317
138.028
140.712
143.37
146
148.6
151.17
153.709
156.216
158.692
161.137
163.549
165.931
168.282
170.605
172.899
175.166
177.409
179.629
181.828
184.008
186.172
188.323
190.461
192.591
194.713
196.83
198.944
101.445
104.335
107.222
110.103
112.978
115.844
118.698
121.539
124.364
127.172
129.96
132.727
135.47
138.189
140.881
143.546
146.181
148.786
151.359
153.901
156.41
158.886
161.33
163.74
166.118
168.465
170.781
173.068
175.327
177.56
179.769
181.955
184.123
186.273
188.409
190.532
192.646
194.752
196.853
198.951
101.453
104.358
107.26
110.158
113.048
115.928
118.796
121.651
124.489
127.309
130.109
132.887
135.641
138.369
141.069
143.741
146.383
148.993
151.57
154.114
156.625
159.102
161.544
163.952
166.327
168.669
170.978
173.257
175.507
177.729
179.926
182.099
184.252
186.386
188.506
190.612
192.709
194.797
196.88
198.96
101.462
104.384
107.304
110.218
113.125
116.021
118.906
121.775
124.628
127.462
130.275
133.065
135.83
138.568
141.277
143.956
146.605
149.22
151.802
154.349
156.861
159.338
161.779
164.185
166.556
168.892
171.195
173.466
175.705
177.916
180.099
182.258
184.395
186.513
188.614
190.702
192.779
194.847
196.911
198.971
101.471
104.413
107.352
110.285
113.21
116.124
119.026
121.912
124.781
127.63
130.457
133.26
136.036
138.785
141.504
144.192
146.847
149.468
152.054
154.604
157.118
159.595
162.035
164.438
166.805
169.136
171.431
173.693
175.922
178.12
180.29
182.433
184.553
186.652
188.733
190.8
192.856
194.903
196.944
198.982
101.482
104.445
107.404
110.358
113.303
116.237
119.158
122.062
124.948
127.814
130.655
133.472
136.262
139.022
141.751
144.447
147.11
149.736
152.327
154.88
157.395
159.872
162.311
164.711
167.073
169.398
171.686
173.938
176.156
178.342
180.497
182.623
184.725
186.804
188.864
190.909
192.941
194.964
196.981
198.994
101.494
104.479
107.462
110.438
113.406
116.361
119.302
122.226
125.131
128.014
130.872
133.703
136.506
139.278
142.018
144.724
147.393
150.026
152.621
155.177
157.694
160.171
162.607
165.004
167.361
169.68
171.959
174.202
176.408
178.58
180.72
182.829
184.912
186.97
189.007
191.027
193.034
195.031
197.021
199.007
101.506
104.517
107.525
110.526
113.518
116.496
119.46
122.405
125.33
128.231
131.107
133.954
136.771
139.556
142.307
145.022
147.7
150.339
152.938
155.497
158.015
160.491
162.925
165.319
167.67
169.981
172.252
174.484
176.678
178.836
180.959
183.051
185.113
187.148
189.161
191.156
193.135
195.103
197.065
199.022
101.52
104.559
107.594
110.622
113.64
116.644
119.632
122.6
125.546
128.468
131.362
134.226
137.059
139.857
142.619
145.344
148.03
150.675
153.279
155.841
158.359
160.835
163.267
165.656
168.002
170.305
172.566
174.786
176.967
179.11
181.216
183.288
185.329
187.341
189.328
191.295
193.244
195.182
197.113
199.038
101.536
104.605
107.67
110.727
113.773
116.805
119.819
122.812
125.782
128.725
131.639
134.521
137.37
140.183
142.957
145.693
148.387
151.039
153.647
156.211
158.731
161.206
163.635
166.019
168.358
170.653
172.903
175.111
177.277
179.403
181.491
183.542
185.56
187.548
189.508
191.445
193.363
195.268
197.164
199.055
101.552
104.655
107.753
110.842
113.919
116.981
120.023
123.043
126.038
129.004
131.94
134.842
137.708
140.536
143.323
146.07
148.773
151.432
154.045
156.612
159.133
161.606
164.032
166.411
168.743
171.028
173.267
175.461
177.612
179.72
181.787
183.816
185.809
187.77
189.701
191.607
193.491
195.36
197.22
199.073
101.571
104.709
107.843
110.968
114.079
117.173
120.246
123.296
126.318
129.309
132.268
135.191
138.075
140.919
143.721
146.479
149.192
151.858
154.476
157.047
159.568
162.04
164.463
166.836
169.16
171.434
173.661
175.84
177.973
180.061
182.107
184.111
186.078
188.01
189.91
191.782
193.63
195.461
197.281
199.093
101.591
104.77
107.943
111.105
114.254
117.383
120.491
123.572
126.623
129.642
132.626
135.571
138.475
141.337
144.154
146.924
149.647
152.321
154.945
157.519
160.041
162.512
164.931
167.297
169.612
171.876
174.089
176.251
178.365
180.432
182.453
184.431
186.368
188.268
190.135
191.971
193.78
195.57
197.348
199.115
101.613
104.836
108.052
111.257
114.446
117.615
120.759
123.874
126.958
130.007
133.017
135.986
138.912
141.792
144.625
147.41
150.143
152.826
155.456
158.033
160.557
163.026
165.44
167.8
170.105
172.357
174.554
176.699
178.792
180.836
182.83
184.779
186.684
188.55
190.379
192.175
193.943
195.689
197.42
199.139
101.637
104.909
108.173
111.424
114.658
117.869
121.054
124.207
127.326
130.406
133.446
136.441
139.39
142.29
145.141
147.939
150.685
153.377
156.013
158.594
161.118
163.586
165.996
168.348
170.643
172.881
175.062
177.188
179.259
181.276
183.242
185.159
187.029
188.856
190.645
192.398
194.121
195.818
197.498
199.165
101.664
104.989
108.306
111.609
114.892
118.15
121.378
124.573
127.73
130.845
133.916
136.939
139.913
142.836
145.705
148.519
151.277
153.978
156.622
159.207
161.732
164.197
166.602
168.946
171.23
173.454
175.618
177.722
179.768
181.758
183.693
185.575
187.407
189.192
190.936
192.642
194.314
195.959
197.585
199.194
101.694
105.079
108.454
111.813
115.15
118.46
121.737
124.977
128.175
131.328
134.433
137.487
140.487
143.433
146.322
149.153
151.925
154.636
157.287
159.875
162.402
164.865
167.264
169.6
171.872
174.08
176.225
178.307
180.327
182.286
184.187
186.031
187.821
189.561
191.255
192.909
194.527
196.114
197.68
199.225
101.727
105.178
108.618
112.04
115.437
118.803
122.134
125.422
128.666
131.86
135.002
138.088
141.118
144.088
146.998
149.847
152.633
155.355
158.013
160.606
163.133
165.594
167.988
170.315
172.574
174.765
176.89
178.947
180.939
182.866
184.73
186.532
188.277
189.967
191.607
193.203
194.76
196.284
197.784
199.26
101.764
105.289
108.801
112.292
115.755
119.184
122.573
125.916
129.208
132.447
135.628
138.75
141.81
144.807
147.739
150.607
153.407
156.141
158.807
161.405
163.933
166.391
168.779
171.095
173.341
175.515
177.617
179.649
181.61
183.502
185.326
187.085
188.78
190.415
191.996
193.529
195.018
196.472
197.9
199.298
101.806
105.412
109.004
112.573
116.11
119.608
123.061
126.462
129.808
133.094
136.318
139.477
142.57
145.595
148.551
151.438
154.255
157
159.674
162.276
164.805
167.26
169.641
171.948
174.179
176.334
178.414
180.418
182.347
184.202
185.983
187.693
189.335
190.911
192.427
193.89
195.305
196.681
198.028
199.341
101.852
105.551
109.233
112.888
116.506
120.08
123.602
127.068
130.471
133.809
137.078
140.277
143.405
146.459
149.44
152.348
155.18
157.938
160.62
163.226
165.756
168.208
170.583
172.878
175.094
177.23
179.286
181.261
183.156
184.97
186.706
188.365
189.948
191.46
192.906
194.291
195.624
196.914
198.17
199.388
101.904
105.707
109.489
113.24
116.949
120.607
124.206
127.74
131.205
134.598
137.916
141.157
144.321
147.406
150.413
153.341
156.19
158.96
161.651
164.262
166.792
169.241
171.608
173.892
176.093
178.209
180.239
182.184
184.043
185.816
187.503
189.106
190.628
192.07
193.438
194.739
195.981
197.174
198.33
199.441
101.964
105.883
109.778
113.637
117.446
121.196
124.878
128.488
132.019
135.47
138.839
142.124
145.325
148.443
151.476
154.425
157.291
160.074
162.773
165.388
167.919
170.364
172.724
174.996
177.181
179.276
181.281
183.194
185.016
186.745
188.381
189.926
191.381
192.748
194.032
195.241
196.381
197.467
198.509
199.501
102.031
106.083
110.106
114.085
118.006
121.856
125.629
129.319
132.921
136.433
139.855
143.186
146.426
149.575
152.635
155.607
158.49
161.285
163.992
166.611
169.142
171.584
173.936
176.197
178.365
180.439
182.418
184.299
186.083
187.766
189.35
190.833
192.217
193.504
194.697
195.803
196.832
197.797
198.711
199.569
102.108
106.311
110.48
114.594
118.638
122.599
126.47
130.245
133.921
137.497
140.973
144.35
147.629
150.811
153.898
156.891
159.791
162.598
165.314
167.937
170.468
172.907
175.251
177.5
179.652
181.705
183.657
185.507
187.251
188.889
190.418
191.838
193.147
194.348
195.443
196.438
197.343
198.173
198.94
199.647
102.197
106.575
110.91
115.176
119.356
123.437
127.412
131.276
135.029
138.67
142.202
145.625
148.943
152.158
155.271
158.285
161.201
164.02
166.743
169.371
171.902
174.337
176.674
178.911
181.047
183.08
185.006
186.824
188.531
190.122
191.596
192.951
194.183
195.294
196.284
197.159
197.926
198.603
199.203
199.737
102.302
106.883
111.409
115.846
120.176
124.386
128.47
132.427
136.258
139.964
143.551
147.02
150.375
153.621
156.76
159.794
162.725
165.556
168.287
170.918
173.449
175.88
178.21
180.436
182.558
184.571
186.473
188.26
189.929
191.476
192.896
194.185
195.34
196.357
197.237
197.981
198.597
199.101
199.51
199.843
102.427
107.25
111.996
116.626
121.118
125.464
129.661
133.711
137.619
141.389
145.028
148.541
151.932
155.207
158.37
161.423
164.369
167.21
169.948
172.582
175.114
177.542
179.865
182.082
184.189
186.184
188.063
189.822
191.457
192.961
194.33
195.556
196.633
197.556
198.321
198.927
199.377
199.687
199.873
199.971
102.58
107.696
112.699
117.542
122.208
126.694
131.004
135.145
139.126
142.956
146.644
150.197
153.621
156.923
160.107
163.177
166.136
168.987
171.731
174.369
176.901
179.326
181.644
183.852
185.947
187.926
189.785
191.52
193.123
194.589
195.91
197.077
198.082
198.914
199.564
200.025
200.296
200.389
200.313
200.128
102.779
108.259
113.559
118.634
123.478
128.102
132.519
136.744
140.791
144.675
148.406
151.994
155.447
158.772
161.975
165.06
168.031
170.89
173.64
176.281
178.814
181.238
183.551
185.752
187.837
189.804
191.646
193.36
194.937
196.371
197.651
198.767
199.707
200.455
200.996
201.315
201.396
201.247
200.857
200.323
103.052
109.002
114.638
119.95
124.966
129.715
134.226
138.523
142.628
146.556
150.323
153.94
157.417
160.762
163.98
167.078
170.058
172.925
175.68
178.325
180.859
183.282
185.592
187.788
189.867
191.824
193.654
195.352
196.909
198.317
199.566
200.642
201.529
202.209
202.657
202.847
202.745
202.334
201.563
200.584
103.512
110.042
116.013
121.546
126.71
131.563
136.148
140.501
144.648
148.611
152.405
156.044
159.539
162.898
166.129
169.236
172.225
175.098
177.857
180.505
183.041
185.464
187.774
189.968
192.042
193.994
195.816
197.504
199.048
200.44
201.667
202.715
203.566
204.198
204.58
204.675
204.424
203.771
202.575
201.023
104.359
111.626
117.872
123.554
128.81
133.721
138.346
142.728
146.897
150.877
154.686
158.337
161.841
165.209
168.446
171.559
174.552
177.429
180.191
182.841
185.378
187.801
190.111
192.303
194.376
196.324
198.142
199.825
201.362
202.745
203.96
204.994
205.824
206.429
206.773
206.816
206.482
205.693
204.205
202.073
)
;

boundaryField
{
    carasuperior
    {
        type            fixedGradient;
        gradient        uniform 100;
    }
    lateralizquierda
    {
        type            fixedValue;
        value           uniform 100;
    }
    lateralderecha
    {
        type            fixedValue;
        value           uniform 200;
    }
    carainferior
    {
        type            zeroGradient;
    }
    frontAndBack
    {
        type            empty;
    }
}


// ************************************************************************* //
