/*--------------------------------*- C++ -*----------------------------------*\
| =========                 |                                                 |
| \\      /  F ield         | OpenFOAM: The Open Source CFD Toolbox           |
|  \\    /   O peration     | Version:  2.4.0                                 |
|   \\  /    A nd           | Web:      www.OpenFOAM.org                      |
|    \\/     M anipulation  |                                                 |
\*---------------------------------------------------------------------------*/
FoamFile
{
    version     2.0;
    format      ascii;
    class       volScalarField;
    location    "0.0068";
    object      T;
}
// * * * * * * * * * * * * * * * * * * * * * * * * * * * * * * * * * * * * * //

dimensions      [0 0 0 1 0 0 0];

internalField   nonuniform List<scalar> 
4800
(
100.194
100.581
100.968
101.354
101.738
102.117
102.487
102.844
103.182
103.493
100.581
101.742
102.903
104.063
105.217
106.358
107.475
108.552
109.571
110.511
100.968
102.903
104.841
106.778
108.71
110.625
112.503
114.319
116.039
117.626
101.354
104.063
106.779
109.499
112.22
114.927
117.593
120.182
122.64
124.908
101.738
105.218
108.71
112.22
115.745
119.268
122.762
126.174
129.431
132.438
102.117
106.359
110.625
114.927
119.269
123.641
128.012
132.323
136.471
140.314
102.488
107.476
112.504
117.595
122.763
128.013
133.323
138.632
143.816
148.66
102.845
108.554
114.321
120.184
126.177
132.324
138.634
145.068
151.502
157.641
103.182
109.573
116.042
122.644
129.435
136.475
143.819
151.504
159.482
167.46
103.494
110.514
117.631
124.914
132.445
140.32
148.665
157.645
167.462
178.222
100.194
100.581
100.968
101.354
101.738
102.117
102.487
102.844
103.182
103.493
100.581
101.742
102.903
104.063
105.217
106.359
107.475
108.552
109.571
110.511
100.968
102.903
104.841
106.778
108.71
110.625
112.503
114.319
116.039
117.626
101.354
104.063
106.779
109.499
112.22
114.927
117.593
120.182
122.64
124.908
101.738
105.218
108.71
112.22
115.745
119.268
122.762
126.174
129.431
132.438
102.117
106.359
110.625
114.927
119.269
123.641
128.012
132.323
136.471
140.314
102.488
107.476
112.504
117.595
122.763
128.013
133.323
138.633
143.817
148.66
102.845
108.554
114.321
120.184
126.177
132.325
138.634
145.068
151.502
157.641
103.182
109.573
116.042
122.644
129.435
136.475
143.82
151.504
159.482
167.46
103.494
110.514
117.631
124.915
132.445
140.321
148.666
157.646
167.463
178.223
100.194
100.581
100.968
101.354
101.738
102.117
102.487
102.844
103.182
103.493
100.581
101.742
102.903
104.063
105.217
106.359
107.475
108.552
109.571
110.511
100.968
102.903
104.841
106.778
108.71
110.625
112.503
114.319
116.039
117.626
101.354
104.063
106.779
109.499
112.22
114.927
117.593
120.182
122.64
124.908
101.738
105.218
108.71
112.22
115.745
119.268
122.762
126.174
129.431
132.438
102.117
106.359
110.625
114.927
119.269
123.641
128.012
132.323
136.471
140.314
102.488
107.476
112.504
117.595
122.763
128.013
133.323
138.633
143.817
148.66
102.845
108.554
114.321
120.184
126.177
132.325
138.634
145.068
151.502
157.641
103.182
109.573
116.042
122.644
129.435
136.475
143.82
151.504
159.482
167.46
103.494
110.514
117.631
124.915
132.445
140.321
148.666
157.646
167.463
178.223
100.194
100.581
100.968
101.354
101.738
102.117
102.487
102.844
103.182
103.493
100.581
101.742
102.903
104.063
105.217
106.358
107.475
108.552
109.571
110.511
100.968
102.903
104.841
106.778
108.71
110.625
112.503
114.319
116.039
117.626
101.354
104.063
106.779
109.499
112.22
114.927
117.593
120.182
122.64
124.908
101.738
105.218
108.71
112.22
115.745
119.268
122.762
126.174
129.431
132.438
102.117
106.359
110.625
114.927
119.269
123.641
128.012
132.323
136.471
140.314
102.488
107.476
112.504
117.595
122.763
128.013
133.323
138.632
143.816
148.66
102.845
108.554
114.321
120.184
126.177
132.324
138.634
145.068
151.502
157.641
103.182
109.573
116.042
122.644
129.435
136.475
143.819
151.504
159.482
167.46
103.494
110.514
117.631
124.914
132.445
140.32
148.665
157.645
167.462
178.222
103.773
104.016
104.222
104.391
104.526
104.63
104.707
104.762
104.796
104.813
104.813
104.796
104.761
104.707
104.63
104.526
104.391
104.222
104.016
103.773
111.354
112.087
112.704
113.208
113.609
113.916
114.144
114.304
114.405
114.454
114.454
114.405
114.304
114.144
113.916
113.608
113.208
112.703
112.086
111.353
119.045
120.272
121.298
122.13
122.784
123.283
123.65
123.906
124.067
124.145
124.145
124.067
123.905
123.649
123.281
122.782
122.128
121.297
120.271
119.044
126.928
128.659
130.087
131.229
132.114
132.78
133.266
133.602
133.812
133.914
133.913
133.812
133.601
133.265
132.779
132.112
131.227
130.086
128.657
126.926
135.1
137.347
139.164
140.584
141.662
142.459
143.032
143.423
143.667
143.783
143.783
143.666
143.422
143.03
142.457
141.66
140.581
139.162
137.345
135.098
143.687
146.464
148.638
150.28
151.49
152.363
152.978
153.393
153.649
153.77
153.77
153.648
153.392
152.977
152.361
151.488
150.278
148.636
146.462
143.685
152.869
156.186
158.643
160.408
161.654
162.526
163.125
163.522
163.764
163.878
163.878
163.763
163.521
163.123
162.524
161.653
160.406
158.641
156.184
152.867
162.943
166.765
169.342
171.053
172.194
172.96
173.473
173.806
174.007
174.102
174.101
174.007
173.805
173.472
172.959
172.193
171.052
169.34
166.764
162.941
174.494
178.591
180.906
182.268
183.11
183.649
183.999
184.223
184.357
184.419
184.419
184.356
184.223
183.998
183.648
183.109
182.267
180.905
178.591
174.494
188.984
192.199
193.422
194.004
194.328
194.526
194.651
194.73
194.777
194.799
194.799
194.777
194.73
194.651
194.525
194.328
194.003
193.422
192.199
188.983
103.773
104.016
104.222
104.391
104.526
104.63
104.707
104.761
104.796
104.812
104.812
104.795
104.761
104.707
104.629
104.525
104.391
104.222
104.016
103.772
111.354
112.086
112.704
113.208
113.608
113.916
114.144
114.304
114.405
114.454
114.454
114.405
114.303
114.143
113.915
113.607
113.207
112.702
112.085
111.352
119.045
120.272
121.298
122.13
122.783
123.282
123.649
123.905
124.067
124.144
124.144
124.066
123.904
123.648
123.28
122.781
122.127
121.296
120.27
119.043
126.928
128.658
130.087
131.228
132.113
132.78
133.265
133.601
133.812
133.913
133.913
133.811
133.6
133.264
132.778
132.111
131.225
130.084
128.655
126.925
135.1
137.347
139.164
140.583
141.661
142.459
143.031
143.423
143.666
143.783
143.782
143.665
143.421
143.029
142.456
141.658
140.58
139.16
137.343
135.097
143.687
146.464
148.638
150.279
151.489
152.363
152.978
153.392
153.648
153.769
153.769
153.647
153.391
152.976
152.36
151.486
150.276
148.634
146.461
143.683
152.869
156.185
158.643
160.407
161.654
162.525
163.124
163.521
163.763
163.878
163.877
163.762
163.52
163.122
162.523
161.651
160.404
158.64
156.182
152.866
162.943
166.765
169.342
171.053
172.194
172.96
173.472
173.805
174.006
174.101
174.1
174.006
173.804
173.47
172.958
172.192
171.05
169.339
166.762
162.94
174.494
178.591
180.905
182.268
183.109
183.648
183.998
184.222
184.356
184.418
184.418
184.355
184.222
183.997
183.647
183.108
182.266
180.904
178.589
174.492
188.984
192.199
193.422
194.003
194.328
194.525
194.651
194.73
194.777
194.799
194.799
194.777
194.73
194.65
194.525
194.327
194.003
193.421
192.198
188.982
103.773
104.016
104.222
104.391
104.526
104.63
104.707
104.761
104.796
104.812
104.812
104.795
104.761
104.707
104.629
104.525
104.391
104.222
104.016
103.772
111.354
112.086
112.704
113.208
113.608
113.916
114.144
114.304
114.405
114.454
114.454
114.405
114.303
114.143
113.915
113.607
113.207
112.702
112.085
111.352
119.045
120.272
121.298
122.13
122.783
123.282
123.649
123.905
124.067
124.144
124.144
124.066
123.904
123.648
123.28
122.781
122.127
121.296
120.27
119.043
126.928
128.658
130.087
131.228
132.113
132.78
133.265
133.601
133.812
133.913
133.913
133.811
133.6
133.264
132.778
132.111
131.225
130.084
128.655
126.925
135.1
137.347
139.164
140.583
141.661
142.459
143.031
143.423
143.666
143.783
143.782
143.665
143.421
143.029
142.456
141.658
140.58
139.16
137.343
135.097
143.687
146.464
148.638
150.279
151.489
152.363
152.978
153.392
153.648
153.769
153.769
153.647
153.391
152.976
152.36
151.486
150.276
148.634
146.461
143.683
152.869
156.185
158.643
160.407
161.654
162.525
163.124
163.521
163.763
163.878
163.877
163.762
163.52
163.122
162.523
161.651
160.404
158.64
156.182
152.866
162.943
166.765
169.342
171.053
172.194
172.96
173.472
173.805
174.006
174.101
174.1
174.006
173.804
173.47
172.958
172.192
171.05
169.339
166.762
162.94
174.494
178.591
180.905
182.268
183.109
183.648
183.998
184.222
184.356
184.418
184.418
184.355
184.222
183.997
183.647
183.108
182.266
180.904
178.589
174.492
188.984
192.199
193.422
194.003
194.328
194.525
194.651
194.73
194.777
194.799
194.799
194.777
194.73
194.65
194.525
194.327
194.003
193.421
192.198
188.982
103.773
104.016
104.222
104.391
104.526
104.63
104.707
104.762
104.796
104.813
104.813
104.796
104.761
104.707
104.63
104.526
104.391
104.222
104.016
103.773
111.354
112.087
112.704
113.208
113.609
113.916
114.144
114.304
114.405
114.454
114.454
114.405
114.304
114.144
113.916
113.608
113.208
112.703
112.086
111.353
119.045
120.272
121.298
122.13
122.784
123.283
123.65
123.906
124.067
124.145
124.145
124.067
123.905
123.649
123.281
122.782
122.128
121.297
120.271
119.044
126.928
128.659
130.087
131.229
132.114
132.78
133.266
133.602
133.812
133.914
133.913
133.812
133.601
133.265
132.779
132.112
131.227
130.086
128.657
126.926
135.1
137.347
139.164
140.584
141.662
142.459
143.032
143.423
143.667
143.783
143.783
143.666
143.422
143.03
142.457
141.66
140.581
139.162
137.345
135.098
143.687
146.464
148.638
150.28
151.49
152.363
152.978
153.393
153.649
153.77
153.77
153.648
153.392
152.977
152.361
151.488
150.278
148.636
146.462
143.685
152.869
156.186
158.643
160.408
161.654
162.526
163.125
163.522
163.764
163.878
163.878
163.763
163.521
163.123
162.524
161.653
160.406
158.641
156.184
152.867
162.943
166.765
169.342
171.053
172.194
172.96
173.473
173.806
174.007
174.102
174.101
174.007
173.805
173.472
172.959
172.193
171.052
169.34
166.764
162.941
174.494
178.591
180.906
182.268
183.11
183.649
183.999
184.223
184.357
184.419
184.419
184.356
184.223
183.998
183.648
183.109
182.267
180.905
178.591
174.494
188.984
192.199
193.422
194.004
194.328
194.526
194.651
194.73
194.777
194.799
194.799
194.777
194.73
194.651
194.525
194.328
194.003
193.422
192.199
188.983
103.493
103.182
102.844
102.488
102.117
101.738
101.354
100.968
100.581
100.194
110.511
109.571
108.552
107.476
106.359
105.218
104.064
102.904
101.743
100.581
117.625
116.039
114.319
112.503
110.625
108.711
106.779
104.842
102.904
100.968
124.907
122.639
120.181
117.594
114.927
112.221
109.5
106.779
104.064
101.354
132.437
129.43
126.174
122.762
119.269
115.745
112.221
108.711
105.218
101.738
140.313
136.47
132.322
128.013
123.641
119.27
114.929
110.626
106.36
102.117
148.659
143.816
138.633
133.324
128.014
122.765
117.596
112.506
107.477
102.488
157.641
151.502
145.069
138.635
132.327
126.179
120.186
114.323
108.555
102.845
167.461
159.483
151.505
143.822
136.478
129.438
122.646
116.044
109.575
103.183
178.223
167.464
157.648
148.669
140.324
132.448
124.917
117.633
110.516
103.495
103.492
103.181
102.844
102.487
102.116
101.737
101.353
100.967
100.58
100.193
110.509
109.57
108.551
107.474
106.358
105.217
104.062
102.903
101.741
100.58
117.624
116.037
114.317
112.502
110.624
108.709
106.778
104.84
102.903
100.967
124.905
122.638
120.18
117.592
114.926
112.219
109.499
106.778
104.063
101.353
132.435
129.429
126.172
122.761
119.267
115.744
112.22
108.71
105.217
101.737
140.311
136.469
132.321
128.011
123.64
119.268
114.927
110.625
106.359
102.116
148.658
143.814
138.631
133.322
128.012
122.763
117.595
112.504
107.476
102.487
157.639
151.5
145.067
138.633
132.325
126.177
120.184
114.321
108.554
102.845
167.459
159.481
151.503
143.82
136.476
129.436
122.645
116.043
109.573
103.182
178.222
167.461
157.645
148.667
140.322
132.446
124.915
117.631
110.514
103.494
103.492
103.181
102.844
102.487
102.116
101.737
101.353
100.967
100.58
100.193
110.509
109.57
108.551
107.474
106.358
105.217
104.062
102.903
101.741
100.58
117.624
116.037
114.317
112.502
110.624
108.709
106.778
104.84
102.903
100.967
124.905
122.638
120.18
117.592
114.926
112.219
109.499
106.778
104.063
101.353
132.435
129.429
126.172
122.761
119.267
115.744
112.22
108.71
105.217
101.737
140.311
136.469
132.321
128.011
123.64
119.268
114.927
110.625
106.359
102.116
148.658
143.814
138.631
133.322
128.012
122.763
117.595
112.504
107.476
102.487
157.639
151.5
145.067
138.633
132.325
126.177
120.184
114.321
108.554
102.845
167.459
159.481
151.503
143.82
136.476
129.436
122.645
116.043
109.573
103.182
178.222
167.461
157.645
148.667
140.322
132.446
124.915
117.631
110.514
103.494
103.493
103.182
102.844
102.488
102.117
101.738
101.354
100.968
100.581
100.194
110.511
109.571
108.552
107.476
106.359
105.218
104.064
102.904
101.743
100.581
117.625
116.039
114.319
112.503
110.625
108.711
106.779
104.842
102.904
100.968
124.907
122.639
120.181
117.594
114.927
112.221
109.5
106.779
104.064
101.354
132.437
129.43
126.174
122.762
119.269
115.745
112.221
108.711
105.218
101.738
140.313
136.47
132.322
128.013
123.641
119.27
114.929
110.626
106.36
102.117
148.659
143.816
138.633
133.324
128.014
122.765
117.596
112.506
107.477
102.488
157.641
151.502
145.069
138.635
132.327
126.179
120.186
114.323
108.555
102.845
167.461
159.483
151.505
143.822
136.478
129.438
122.646
116.044
109.575
103.183
178.223
167.464
157.648
148.669
140.324
132.448
124.917
117.633
110.516
103.495
188.986
174.501
162.953
152.881
143.701
135.114
126.941
119.055
111.361
103.775
192.203
178.601
166.78
156.203
146.484
137.366
128.676
120.286
112.096
104.02
193.427
180.919
169.362
158.668
148.665
139.191
130.112
121.318
112.717
104.227
194.01
182.286
171.08
160.441
150.317
140.62
131.262
122.156
113.226
104.397
194.336
183.134
172.231
161.7
151.54
141.712
132.159
122.82
113.632
104.534
194.537
183.681
173.01
162.588
152.432
142.528
132.842
123.332
113.948
104.641
194.667
184.043
173.541
163.21
153.072
143.125
133.35
123.716
114.187
104.722
194.751
184.283
173.899
163.638
153.521
143.551
133.717
123.997
114.363
104.782
194.806
184.439
174.134
163.923
153.824
143.841
133.969
124.191
114.485
104.823
194.839
184.532
174.276
164.096
154.009
144.021
134.126
124.313
114.562
104.85
194.853
184.574
174.34
164.176
154.097
144.107
134.202
124.373
114.6
104.863
194.852
184.57
174.335
164.172
154.095
144.107
134.205
124.375
114.602
104.864
194.833
184.518
174.259
164.083
154.004
144.023
134.134
124.323
114.57
104.853
194.795
184.41
174.101
163.898
153.814
143.847
133.986
124.211
114.501
104.83
194.729
184.227
173.837
163.594
153.507
143.566
133.752
124.036
114.393
104.793
194.619
183.933
173.425
163.134
153.055
143.161
133.418
123.79
114.243
104.743
194.434
183.46
172.797
162.464
152.419
142.606
132.971
123.464
114.045
104.676
194.089
182.676
171.842
161.508
151.554
141.876
132.395
123.052
113.798
104.594
193.335
181.313
170.387
160.173
150.414
140.951
131.685
122.551
113.5
104.495
191.272
178.857
168.224
158.388
148.981
139.831
130.846
121.968
113.157
104.382
188.984
174.499
162.95
152.879
143.699
135.112
126.939
119.053
111.359
103.774
192.201
178.598
166.777
156.201
146.482
137.364
128.674
120.284
112.094
104.019
193.425
180.916
169.359
158.665
148.663
139.189
130.11
121.316
112.715
104.226
194.008
182.283
171.077
160.439
150.314
140.618
131.26
122.154
113.224
104.396
194.335
183.131
172.228
161.697
151.538
141.709
132.157
122.818
113.63
104.533
194.535
183.678
173.007
162.585
152.429
142.525
132.84
123.329
113.946
104.64
194.665
184.04
173.537
163.207
153.069
143.123
133.348
123.714
114.185
104.721
194.749
184.28
173.896
163.635
153.518
143.548
133.714
123.994
114.361
104.781
194.804
184.436
174.131
163.92
153.821
143.838
133.966
124.188
114.483
104.822
194.836
184.529
174.272
164.093
154.006
144.018
134.123
124.31
114.56
104.849
194.851
184.571
174.337
164.173
154.094
144.104
134.2
124.37
114.598
104.862
194.849
184.567
174.332
164.169
154.092
144.104
134.202
124.373
114.6
104.862
194.831
184.515
174.256
164.08
154
144.02
134.131
124.32
114.567
104.851
194.792
184.407
174.097
163.894
153.81
143.844
133.983
124.209
114.499
104.828
194.726
184.223
173.833
163.59
153.504
143.563
133.749
124.034
114.391
104.792
194.617
183.929
173.421
163.13
153.052
143.158
133.415
123.787
114.241
104.741
194.432
183.456
172.793
162.46
152.416
142.603
132.968
123.461
114.043
104.675
194.087
182.672
171.838
161.504
151.55
141.872
132.392
123.049
113.795
104.593
193.332
181.309
170.383
160.17
150.41
140.947
131.682
122.548
113.497
104.494
191.269
178.853
168.22
158.384
148.977
139.827
130.843
121.965
113.154
104.38
188.984
174.499
162.95
152.879
143.699
135.112
126.939
119.053
111.359
103.774
192.201
178.598
166.777
156.201
146.482
137.364
128.674
120.284
112.094
104.019
193.425
180.916
169.359
158.665
148.663
139.189
130.11
121.316
112.715
104.226
194.008
182.283
171.077
160.439
150.314
140.618
131.26
122.154
113.224
104.396
194.335
183.131
172.228
161.697
151.538
141.709
132.157
122.818
113.63
104.533
194.535
183.678
173.007
162.585
152.429
142.525
132.84
123.329
113.946
104.64
194.665
184.04
173.537
163.207
153.069
143.123
133.348
123.714
114.185
104.721
194.749
184.28
173.896
163.635
153.518
143.548
133.714
123.994
114.361
104.781
194.804
184.436
174.131
163.92
153.821
143.838
133.966
124.188
114.483
104.822
194.836
184.529
174.272
164.093
154.006
144.018
134.123
124.31
114.56
104.849
194.851
184.571
174.337
164.173
154.094
144.104
134.2
124.37
114.598
104.862
194.849
184.567
174.332
164.169
154.092
144.104
134.202
124.373
114.6
104.862
194.831
184.515
174.256
164.08
154
144.02
134.131
124.32
114.567
104.851
194.792
184.407
174.097
163.894
153.81
143.844
133.983
124.209
114.499
104.828
194.726
184.223
173.833
163.59
153.504
143.563
133.749
124.034
114.391
104.792
194.617
183.929
173.421
163.13
153.052
143.158
133.415
123.787
114.241
104.741
194.432
183.456
172.793
162.46
152.416
142.603
132.968
123.461
114.043
104.675
194.087
182.672
171.838
161.504
151.55
141.872
132.392
123.049
113.795
104.593
193.332
181.309
170.383
160.17
150.41
140.947
131.682
122.548
113.497
104.494
191.269
178.853
168.22
158.384
148.977
139.827
130.843
121.965
113.154
104.38
188.986
174.501
162.953
152.881
143.701
135.114
126.941
119.055
111.361
103.775
192.203
178.601
166.78
156.203
146.484
137.366
128.676
120.286
112.096
104.02
193.427
180.919
169.362
158.668
148.665
139.191
130.112
121.318
112.717
104.227
194.01
182.286
171.08
160.441
150.317
140.62
131.262
122.156
113.226
104.397
194.336
183.134
172.231
161.7
151.54
141.712
132.159
122.82
113.632
104.534
194.537
183.681
173.01
162.588
152.432
142.528
132.842
123.332
113.948
104.641
194.667
184.043
173.541
163.21
153.072
143.125
133.35
123.716
114.187
104.722
194.751
184.283
173.899
163.638
153.521
143.551
133.717
123.997
114.363
104.782
194.806
184.439
174.134
163.923
153.824
143.841
133.969
124.191
114.485
104.823
194.839
184.532
174.276
164.096
154.009
144.021
134.126
124.313
114.562
104.85
194.853
184.574
174.34
164.176
154.097
144.107
134.202
124.373
114.6
104.863
194.852
184.57
174.335
164.172
154.095
144.107
134.205
124.375
114.602
104.864
194.833
184.518
174.259
164.083
154.004
144.023
134.134
124.323
114.57
104.853
194.795
184.41
174.101
163.898
153.814
143.847
133.986
124.211
114.501
104.83
194.729
184.227
173.837
163.594
153.507
143.566
133.752
124.036
114.393
104.793
194.619
183.933
173.425
163.134
153.055
143.161
133.418
123.79
114.243
104.743
194.434
183.46
172.797
162.464
152.419
142.606
132.971
123.464
114.045
104.676
194.089
182.676
171.842
161.508
151.554
141.876
132.395
123.052
113.798
104.594
193.335
181.313
170.388
160.173
150.414
140.951
131.685
122.551
113.5
104.495
191.272
178.857
168.224
158.388
148.981
139.831
130.846
121.968
113.157
104.382
184.165
174.621
165.267
156.179
147.294
138.55
129.903
121.32
112.778
104.257
177.924
170.202
162.05
153.772
145.471
137.178
128.9
120.634
112.378
104.126
172.892
166.221
158.967
151.394
143.645
135.797
127.888
119.943
111.975
103.993
168.87
162.83
156.21
149.199
141.927
134.482
126.919
119.278
111.586
103.865
165.663
160.027
153.854
147.273
140.391
133.291
126.034
118.668
111.229
103.748
163.134
157.772
151.915
145.656
139.081
132.264
125.264
118.134
110.915
103.644
161.195
156.02
150.387
144.364
138.022
131.426
124.632
117.693
110.655
103.559
159.785
154.737
149.257
143.4
137.225
130.791
124.151
117.357
110.456
103.493
158.864
153.897
148.513
142.762
136.695
130.366
123.828
117.131
110.321
103.449
158.41
153.481
148.144
142.444
136.43
130.154
123.667
117.018
110.255
103.431
184.161
174.617
165.263
156.175
147.29
138.547
129.9
121.317
112.775
104.256
177.92
170.199
162.047
153.768
145.467
137.174
128.896
120.631
112.375
104.124
172.889
166.217
158.963
151.39
143.642
135.793
127.885
119.94
111.972
103.992
168.867
162.827
156.207
149.196
141.924
134.478
126.916
119.275
111.583
103.864
165.66
160.024
153.851
147.27
140.388
133.287
126.03
118.664
111.226
103.746
163.132
157.769
151.912
145.653
139.078
132.26
125.261
118.13
110.912
103.642
161.192
156.018
150.384
144.361
138.019
131.422
124.628
117.689
110.651
103.556
159.782
154.735
149.255
143.397
137.222
130.787
124.146
117.352
110.451
103.49
158.862
153.894
148.51
142.759
136.691
130.362
123.824
117.126
110.315
103.444
158.408
153.479
148.141
142.441
136.426
130.15
123.662
117.013
110.248
103.425
184.161
174.617
165.263
156.175
147.29
138.547
129.9
121.317
112.775
104.256
177.92
170.199
162.047
153.768
145.467
137.174
128.896
120.631
112.375
104.124
172.889
166.217
158.963
151.39
143.642
135.793
127.885
119.94
111.972
103.992
168.867
162.827
156.207
149.196
141.924
134.478
126.916
119.275
111.583
103.864
165.66
160.024
153.851
147.27
140.388
133.287
126.03
118.664
111.226
103.746
163.132
157.769
151.912
145.653
139.078
132.26
125.261
118.13
110.912
103.642
161.192
156.018
150.384
144.361
138.019
131.422
124.628
117.689
110.651
103.556
159.782
154.735
149.255
143.397
137.222
130.787
124.146
117.352
110.451
103.49
158.862
153.894
148.51
142.758
136.691
130.362
123.824
117.126
110.315
103.444
158.407
153.479
148.141
142.441
136.426
130.15
123.662
117.013
110.248
103.425
184.165
174.621
165.267
156.179
147.294
138.55
129.903
121.32
112.778
104.257
177.924
170.202
162.05
153.772
145.471
137.178
128.9
120.634
112.378
104.126
172.892
166.221
158.967
151.394
143.645
135.797
127.888
119.943
111.975
103.993
168.87
162.83
156.21
149.199
141.927
134.482
126.919
119.278
111.586
103.865
165.663
160.027
153.854
147.273
140.391
133.291
126.034
118.668
111.229
103.748
163.134
157.772
151.915
145.656
139.081
132.264
125.264
118.134
110.915
103.644
161.195
156.02
150.387
144.364
138.022
131.426
124.632
117.693
110.655
103.559
159.784
154.737
149.257
143.4
137.225
130.79
124.151
117.357
110.456
103.493
158.864
153.897
148.513
142.762
136.695
130.366
123.828
117.131
110.321
103.449
158.41
153.481
148.144
142.444
136.43
130.154
123.667
117.018
110.255
103.431
192.842
195.612
196.787
197.424
197.828
198.105
198.3
198.433
198.517
198.557
198.558
198.517
198.434
198.302
198.108
197.831
197.427
196.79
195.615
192.844
184.436
188.436
190.899
192.508
193.615
194.401
194.962
195.35
195.595
195.714
195.715
195.597
195.353
194.967
194.407
193.622
192.515
190.907
188.442
184.441
178.55
182.8
185.871
188.096
189.727
190.927
191.801
192.413
192.803
192.993
192.994
192.807
192.419
191.809
190.937
189.738
188.108
185.883
182.811
178.56
174.086
178.347
181.695
184.286
186.275
187.786
188.909
189.706
190.218
190.469
190.471
190.223
189.715
188.92
187.8
186.291
184.304
181.714
178.365
174.104
170.602
174.815
178.285
181.087
183.31
185.043
186.353
187.294
187.903
188.204
188.206
187.91
187.305
186.368
185.061
183.332
181.111
178.312
174.842
170.629
167.88
172.035
175.555
178.475
180.848
182.732
184.178
185.226
185.91
186.248
186.251
185.919
185.241
184.197
182.757
180.878
178.508
175.591
172.073
167.919
165.799
169.901
173.437
176.423
178.889
180.873
182.412
183.538
184.275
184.642
184.645
184.286
183.556
182.437
180.905
178.927
176.466
173.484
169.951
165.851
164.287
168.346
171.884
174.905
177.427
179.475
181.076
182.253
183.028
183.414
183.418
183.041
182.275
181.106
179.513
177.473
174.957
171.942
168.409
164.352
163.298
167.329
170.864
173.903
176.457
178.542
180.179
181.389
182.186
182.585
182.59
182.201
181.413
180.213
178.585
176.508
173.963
170.931
167.402
163.375
162.81
166.826
170.359
173.405
175.972
178.075
179.729
180.954
181.763
182.167
182.172
181.779
180.98
179.766
178.121
176.028
173.469
170.431
166.905
162.893
192.844
195.614
196.788
197.425
197.83
198.106
198.3
198.433
198.517
198.557
198.557
198.517
198.434
198.301
198.107
197.83
197.426
196.788
195.613
192.842
184.439
188.439
190.902
192.51
193.617
194.403
194.963
195.35
195.595
195.714
195.714
195.596
195.352
194.966
194.406
193.62
192.513
190.904
188.44
184.438
178.553
182.803
185.874
188.099
189.729
190.929
191.802
192.414
192.803
192.993
192.994
192.806
192.418
191.808
190.935
189.736
188.106
185.881
182.808
178.557
174.09
178.35
181.698
184.289
186.277
187.788
188.911
189.707
190.218
190.469
190.47
190.222
189.714
188.919
187.798
186.289
184.302
181.711
178.363
174.101
170.605
174.818
178.288
181.089
183.312
185.044
186.354
187.295
187.904
188.203
188.205
187.909
187.304
186.367
185.06
183.331
181.109
178.31
174.84
170.627
167.883
172.038
175.558
178.477
180.85
182.734
184.179
185.227
185.91
186.248
186.251
185.918
185.24
184.196
182.755
180.876
178.506
175.589
172.071
167.917
165.802
169.904
173.44
176.425
178.891
180.875
182.413
183.539
184.276
184.642
184.645
184.286
183.555
182.436
180.903
178.925
176.464
173.482
169.949
165.849
164.29
168.349
171.887
174.908
177.429
179.477
181.077
182.254
183.028
183.414
183.418
183.04
182.274
181.104
179.512
177.471
174.955
171.94
168.406
164.35
163.301
167.332
170.867
173.905
176.458
178.543
180.18
181.389
182.187
182.585
182.589
182.201
181.412
180.212
178.583
176.507
173.961
170.929
167.399
163.373
162.812
166.829
170.361
173.407
175.974
178.076
179.73
180.954
181.763
182.167
182.172
181.778
180.979
179.765
178.12
176.026
173.467
170.429
166.903
162.891
192.844
195.614
196.788
197.425
197.83
198.106
198.3
198.433
198.517
198.557
198.557
198.517
198.434
198.301
198.107
197.83
197.426
196.788
195.613
192.842
184.439
188.439
190.902
192.51
193.617
194.403
194.963
195.35
195.595
195.714
195.714
195.596
195.352
194.966
194.406
193.62
192.513
190.904
188.44
184.438
178.553
182.803
185.874
188.099
189.729
190.929
191.802
192.414
192.803
192.993
192.994
192.806
192.418
191.808
190.935
189.736
188.106
185.881
182.808
178.557
174.09
178.35
181.698
184.289
186.277
187.788
188.911
189.707
190.218
190.469
190.47
190.222
189.714
188.919
187.798
186.289
184.302
181.711
178.363
174.101
170.605
174.818
178.288
181.089
183.312
185.044
186.354
187.295
187.904
188.203
188.205
187.909
187.304
186.367
185.06
183.331
181.109
178.31
174.84
170.627
167.883
172.038
175.558
178.477
180.85
182.734
184.179
185.227
185.91
186.248
186.25
185.918
185.24
184.196
182.755
180.876
178.506
175.589
172.071
167.917
165.802
169.904
173.44
176.425
178.891
180.875
182.413
183.539
184.276
184.642
184.645
184.286
183.555
182.436
180.903
178.925
176.464
173.482
169.949
165.849
164.29
168.349
171.887
174.908
177.429
179.477
181.077
182.254
183.028
183.414
183.418
183.04
182.274
181.104
179.511
177.471
174.955
171.94
168.406
164.349
163.301
167.332
170.867
173.905
176.458
178.543
180.18
181.389
182.186
182.584
182.589
182.2
181.412
180.212
178.583
176.506
173.961
170.929
167.399
163.373
162.812
166.829
170.361
173.407
175.974
178.076
179.73
180.954
181.763
182.167
182.172
181.778
180.979
179.765
178.119
176.026
173.467
170.429
166.902
162.891
192.842
195.612
196.787
197.424
197.828
198.105
198.3
198.433
198.517
198.557
198.558
198.518
198.434
198.302
198.108
197.831
197.427
196.79
195.615
192.844
184.436
188.436
190.899
192.508
193.615
194.401
194.962
195.35
195.595
195.714
195.715
195.597
195.353
194.967
194.407
193.622
192.515
190.907
188.442
184.441
178.55
182.8
185.871
188.097
189.727
190.927
191.801
192.413
192.803
192.993
192.995
192.807
192.419
191.809
190.937
189.738
188.108
185.883
182.811
178.56
174.086
178.347
181.696
184.286
186.275
187.786
188.91
189.707
190.218
190.469
190.471
190.223
189.715
188.921
187.8
186.291
184.304
181.714
178.365
174.104
170.602
174.815
178.285
181.087
183.311
185.043
186.353
187.294
187.904
188.204
188.206
187.91
187.305
186.368
185.062
183.333
181.111
178.312
174.842
170.629
167.88
172.035
175.555
178.475
180.849
182.732
184.178
185.227
185.91
186.248
186.251
185.919
185.241
184.197
182.757
180.878
178.508
175.591
172.073
167.919
165.799
169.901
173.437
176.423
178.889
180.873
182.412
183.538
184.275
184.642
184.645
184.286
183.556
182.437
180.905
178.927
176.466
173.484
169.951
165.851
164.286
168.346
171.884
174.905
177.427
179.475
181.076
182.253
183.028
183.414
183.418
183.041
182.275
181.105
179.513
177.472
174.957
171.942
168.408
164.352
163.298
167.329
170.864
173.903
176.456
178.542
180.179
181.388
182.186
182.584
182.589
182.201
181.413
180.213
178.585
176.508
173.963
170.931
167.402
163.375
162.81
166.826
170.359
173.405
175.972
178.074
179.729
180.954
181.762
182.167
182.172
181.778
180.98
179.766
178.121
176.028
173.469
170.431
166.905
162.893
104.257
112.779
121.323
129.908
138.557
147.3
156.185
165.272
174.623
184.163
104.125
112.378
120.637
128.904
137.183
145.475
153.775
162.052
170.202
177.92
103.992
111.974
119.943
127.89
135.798
143.646
151.393
158.964
166.215
172.883
103.864
111.584
119.275
126.916
134.478
141.921
149.191
156.199
162.816
168.854
103.745
111.224
118.661
126.025
133.279
140.376
147.254
153.832
160.003
165.636
103.641
110.906
118.121
125.247
132.242
139.055
145.625
151.88
157.734
163.095
103.553
110.643
117.674
124.605
131.392
137.982
144.319
150.337
155.968
161.142
103.486
110.439
117.329
124.113
130.743
137.17
143.339
149.192
154.67
159.717
103.44
110.301
117.094
123.778
130.306
136.626
142.687
148.435
153.817
158.785
103.412
110.231
116.975