/*--------------------------------*- C++ -*----------------------------------*\
| =========                 |                                                 |
| \\      /  F ield         | OpenFOAM: The Open Source CFD Toolbox           |
|  \\    /   O peration     | Version:  2.4.0                                 |
|   \\  /    A nd           | Web:      www.OpenFOAM.org                      |
|    \\/     M anipulation  |                                                 |
\*---------------------------------------------------------------------------*/
FoamFile
{
    version     2.0;
    format      ascii;
    class       volScalarField;
    location    "0.37";
    object      T;
}
// * * * * * * * * * * * * * * * * * * * * * * * * * * * * * * * * * * * * * //

dimensions      [0 0 0 1 0 0 0];

internalField   nonuniform List<scalar> 
1600
(
101.202
103.608
106.015
108.423
110.835
113.25
115.67
118.094
120.524
122.959
125.4
127.848
130.303
132.764
135.232
137.706
140.188
142.675
145.17
147.67
150.177
152.689
155.207
157.73
160.258
162.791
165.33
167.873
170.421
172.974
175.531
178.092
180.658
183.228
185.802
188.378
190.958
193.54
196.123
198.708
101.203
103.61
106.019
108.429
110.843
113.26
115.681
118.107
120.538
122.975
125.418
127.867
130.323
132.785
135.254
137.73
140.212
142.701
145.196
147.696
150.203
152.715
155.233
157.755
160.283
162.815
165.353
167.895
170.441
172.993
175.548
178.108
180.673
183.241
185.812
188.387
190.965
193.545
196.126
198.709
101.205
103.616
106.028
108.442
110.859
113.279
115.704
118.133
120.567
123.007
125.453
127.905
130.363
132.828
135.299
137.777
140.261
142.751
145.247
147.748
150.255
152.767
155.285
157.807
160.333
162.864
165.4
167.939
170.483
173.032
175.584
178.141
180.702
183.266
185.834
188.405
190.979
193.555
196.132
198.711
101.208
103.623
106.041
108.46
110.882
113.307
115.737
118.171
120.61
123.054
125.505
127.961
130.423
132.891
135.366
137.846
140.332
142.824
145.322
147.825
150.332
152.845
155.361
157.882
160.407
162.936
165.469
168.006
170.546
173.09
175.638
178.19
180.745
183.304
185.866
188.432
191
193.57
196.141
198.714
101.211
103.634
106.058
108.484
110.913
113.345
115.781
118.221
120.666
123.117
125.573
128.034
130.501
132.974
135.453
137.937
140.426
142.921
145.421
147.925
150.433
152.946
155.462
157.982
160.505
163.031
165.561
168.093
170.629
173.168
175.71
178.255
180.803
183.355
185.91
188.467
191.027
193.589
196.153
198.718
101.215
103.647
106.079
108.514
110.951
113.391
115.835
118.284
120.736
123.194
125.657
128.125
130.598
133.077
135.56
138.049
140.542
143.04
145.543
148.049
150.559
153.071
155.587
158.106
160.626
163.15
165.675
168.202
170.732
173.264
175.799
178.336
180.876
183.419
185.964
188.512
191.062
193.614
196.168
198.723
101.221
103.662
106.105
108.55
110.997
113.447
115.901
118.358
120.82
123.286
125.757
128.233
130.713
133.198
135.688
138.182
140.68
143.182
145.687
148.196
150.707
153.22
155.735
158.252
160.771
163.29
165.811
168.333
170.856
173.38
175.906
178.434
180.963
183.495
186.029
188.566
191.104
193.645
196.186
198.729
101.227
103.68
106.135
108.591
111.05
113.512
115.976
118.445
120.917
123.393
125.873
128.358
130.846
133.339
135.835
138.336
140.839
143.345
145.854
148.365
150.878
153.392
155.907
158.422
160.937
163.453
165.968
168.483
170.999
173.514
176.03
178.547
181.065
183.585
186.106
188.629
191.154
193.68
196.207
198.736
101.233
103.7
106.169
108.639
111.111
113.585
116.063
118.543
121.027
123.514
126.005
128.499
130.997
133.498
136.003
138.509
141.019
143.53
146.043
148.557
151.071
153.586
156.1
158.613
161.126
163.637
166.146
168.655
171.162
173.667
176.172
178.677
181.182
183.687
186.193
188.701
191.21
193.72
196.232
198.744
101.241
103.723
106.207
108.692
111.179
113.669
116.16
118.654
121.151
123.651
126.153
128.658
131.166
133.677
136.189
138.703
141.219
143.736
146.253
148.769
151.286
153.801
156.314
158.826
161.335
163.841
166.345
168.845
171.343
173.838
176.331
178.822
181.312
183.802
186.292
188.782
191.273
193.766
196.259
198.753
101.25
103.749
106.25
108.752
111.256
113.761
116.268
118.777
121.288
123.802
126.317
128.834
131.353
133.873
136.395
138.917
141.439
143.962
146.483
149.003
151.521
154.037
156.55
159.059
161.565
164.066
166.563
169.055
171.543
174.027
176.507
178.984
181.458
183.93
186.401
188.873
191.344
193.817
196.29
198.763
101.259
103.778
106.298
108.818
111.34
113.863
116.388
118.913
121.44
123.968
126.497
129.028
131.558
134.089
136.62
139.151
141.68
144.208
146.734
149.257
151.777
154.293
156.805
159.312
161.814
164.31
166.8
169.283
171.761
174.233
176.699
179.16
181.617
184.071
186.522
188.973
191.422
193.873
196.323
198.774
101.27
103.809
106.35
108.891
111.433
113.976
116.519
119.063
121.606
124.151
126.695
129.239
131.782
134.325
136.866
139.405
141.942
144.475
147.006
149.532
152.053
154.569
157.08
159.584
162.082
164.572
167.054
169.529
171.996
174.455
176.907
179.352
181.79
184.224
186.654
189.082
191.508
193.934
196.361
198.787
101.282
103.844
106.408
108.972
111.535
114.099
116.663
119.226
121.788
124.35
126.91
129.469
132.026
134.58
137.132
139.68
142.224
144.764
147.298
149.827
152.35
154.866
157.375
159.876
162.369
164.853
167.327
169.792
172.248
174.694
177.13
179.558
181.978
184.391
186.798
189.201
191.602
194.001
196.401
198.8
101.294
103.882
106.471
109.059
111.647
114.234
116.82
119.404
121.987
124.567
127.144
129.719
132.29
134.857
137.42
139.977
142.529
145.075
147.614
150.145
152.669
155.185
157.691
160.189
162.676
165.153
167.619
170.074
172.517
174.949
177.37
179.779
182.179
184.57
186.953
189.33
191.703
194.074
196.445
198.815
101.308
103.924
106.54
109.155
111.769
114.381
116.991
119.599
122.203
124.803
127.399
129.991
132.577
135.157
137.731
140.298
142.858
145.41
147.953
150.487
153.012
155.527
158.031
160.524
163.005
165.474
167.931
170.374
172.805
175.221
177.625
180.016
182.395
184.762
187.119
189.469
191.813
194.153
196.493
198.83
101.323
103.97
106.616
109.26
111.903
114.542
117.179
119.811
122.438
125.06
127.676
130.285
132.888
135.482
138.068
140.645
143.213
145.772
148.319
150.856
153.381
155.895
158.396
160.884
163.358
165.819
168.265
170.696
173.112
175.513
177.898
180.269
182.625
184.968
187.298
189.619
191.931
194.238
196.544
198.848
101.34
104.02
106.699
109.375
112.049
114.719
117.383
120.042
122.695
125.34
127.977
130.606
133.225
135.835
138.434
141.022
143.598
146.163
148.715
151.255
153.781
156.293
158.79
161.272
163.739
166.19
168.625
171.042
173.443
175.826
178.191
180.54
182.872
185.188
187.49
189.78
192.059
194.331
196.6
198.866
101.358
104.074
106.789
109.501
112.209
114.911
117.607
120.296
122.975
125.646
128.306
130.955
133.593
136.218
138.831
141.43
144.016
146.588
149.145
151.687
154.213
156.723
159.217
161.693
164.151
166.592
169.013
171.416
173.799
176.163
178.507
180.831
183.137
185.425
187.697
189.953
192.196
194.43
196.661
198.886
101.379
104.135
106.889
109.64
112.385
115.123
117.852
120.573
123.282
125.98
128.664
131.336
133.993
136.636
139.263
141.875
144.471
147.05
149.612
152.156
154.683
157.191
159.68
162.15
164.599
167.028
169.435
171.821
174.186
176.528
178.848
181.146
183.424
185.681
187.919
190.14
192.345
194.538
196.726
198.908
101.401
104.201
106.999
109.792
112.578
115.355
118.122
120.877
123.618
126.345
129.057
131.752
134.431
137.092
139.735
142.36
144.966
147.553
150.12
152.668
155.195
157.7
160.185
162.647
165.086
167.502
169.894
172.263
174.606
176.925
179.219
181.489
183.734
185.958
188.159
190.342
192.506
194.656
196.797
198.931
101.425
104.275
107.12
109.96
112.791
115.611
118.418
121.21
123.987
126.746
129.487
132.208
134.91
137.591
140.251
142.89
145.507
148.102
150.675
153.226
155.753
158.256
160.735
163.189
165.617
168.02
170.395
172.744
175.065
177.358
179.624
181.862
184.073
186.259
188.421
190.561
192.681
194.783
196.875
198.957
101.452
104.356
107.254
110.145
113.026
115.893
118.744
121.578
124.393
127.187
129.959
132.708
135.434
138.137
140.815
143.469
146.098
148.702
151.281
153.835
156.362
158.863
161.336
163.781
166.198
168.585
170.943
173.27
175.567
177.832
180.067
182.271
184.444
186.589
188.707
190.8
192.871
194.922
196.96
198.985
101.483
104.446
107.403
110.351
113.285
116.204
119.104
121.983
124.84
127.671
130.477
133.257
136.01
138.735
141.433
144.102
146.744
149.358
151.944
154.501
157.028
159.526
161.993
164.429
166.833
169.204
171.542
173.847
176.117
178.352
180.553
182.719
184.851
186.951
189.021
191.063
193.08
195.074
197.053
199.016
101.516
104.545
107.568
110.578
113.573
116.549
119.503
122.431
125.333
128.205
131.048
133.86
136.641
139.391
142.109
144.796
147.452
150.076
152.668
155.228
157.756
160.25
162.711
165.136
167.527
169.881
172.198
174.478
176.72
178.922
181.086
183.212
185.299
187.35
189.367
191.352
193.309
195.242
197.156
199.05
101.553
104.656
107.751
110.832
113.893
116.932
119.944
122.926
125.877
128.794
131.676
134.523
137.335
140.111
142.851
145.556
148.226
150.86
153.46
156.023
158.551
161.041
163.495
165.91
168.286
170.622
172.917
175.171
177.382
179.549
181.674
183.755
185.794
187.791
189.749
191.672
193.563
195.427
197.27
199.088
101.595
104.781
107.956
111.114
114.249
117.357
120.433
123.475
126.479
129.443
132.368
135.253
138.097
140.9
143.664
146.388
149.072
151.718
154.324
156.891
159.419
161.906
164.352
166.756
169.117
171.433
173.705
175.93
178.108
180.239
182.321
184.354
186.34
188.279
190.173
192.027
193.845
195.632
197.396
199.13
101.641
104.92
108.185
111.429
114.647
117.831
120.977
124.082
127.144
130.16
133.131
136.055
138.933
141.766
144.554
147.297
149.997
152.654
155.268
157.838
160.365
162.848
165.287
167.679
170.024
172.32
174.567
176.763
178.907
180.997
183.034
185.016
186.944
188.819
190.644
192.423
194.16
195.861
197.537
199.177
101.694
105.076
108.442
111.783
115.091
118.359
121.582
124.757
127.881
130.952
133.971
136.937
139.851
142.714
145.527
148.291
151.007
153.675
156.297
158.871
161.397
163.876
166.306
168.686
171.014
173.29
175.511
177.676
179.784
181.832
183.82
185.747
187.613
189.42
191.169
192.864
194.511
196.118
197.694
199.229
101.753
105.252
108.732
112.181
115.59
118.95
122.257
125.507
128.697
131.827
134.896
137.906
140.858
143.752
146.591
149.376
152.108
154.788
157.416
159.994
162.52
164.994
167.415
169.783
172.094
174.348
176.543
178.676
180.746
182.75
184.687
186.556
188.356
190.088
191.754
193.358
194.906
196.406
197.87
199.288
101.82
105.453
109.061
112.631
116.151
119.613
123.01
126.34
129.601
132.792
135.915
138.97
141.96
144.886
147.752
150.557
153.306
155.997
158.633
161.214
163.739
166.209
168.622
170.976
173.27
175.503
177.67
179.771
181.802
183.761
185.645
187.453
189.182
190.834
192.41
193.913
195.351
196.733
198.069
199.355
101.898
105.682
109.436
113.141
116.785
120.357
123.853
127.269
130.604
133.859
137.036
140.137
143.166
146.124
149.016
151.843
154.607
157.31
159.953
162.537
165.062
167.526
169.93
172.272
174.549
176.76
178.9
180.968
182.96
184.872
186.702
188.446
190.102
191.669
193.147
194.54
195.855
197.104
198.296
199.432
101.987
105.946
109.866
113.724
117.505
121.197
124.797
128.303
131.715
135.035
138.267
141.415
144.482
147.473
150.39
153.237
156.017
158.731
161.381
163.968
166.492
168.952
171.348
173.677
175.937
178.126
180.24
182.276
184.229
186.094
187.869
189.548
191.127
192.604
193.979
195.252
196.431
197.529
198.557
199.521
102.092
106.255
110.366
114.396
118.326
122.148
125.858
129.457
132.946
136.332
139.619
142.812
145.917
148.938
151.881
154.747
157.542
160.267
162.923
165.513
168.036
170.492
172.879
175.196
177.44
179.608
181.697
183.701
185.617
187.437
189.157
190.771
192.272
193.657
194.921
196.066
197.095
198.022
198.86
199.626
102.217
106.622
110.955
115.177
119.271
123.229
127.052
130.744
134.311
137.761
141.1
144.337
147.477
150.527
153.493
156.378
159.186
161.921
164.584
167.176
169.698
172.149
174.529
176.835
179.064
181.214
183.279
185.254
187.134
188.911
190.579
192.13
193.554
194.845
195.996
197.003
197.867
198.602
199.22
199.753
102.371
107.069
111.659
116.095
120.363
124.462
128.398
132.181
135.822
139.332
142.72
145.996
149.169
152.246
155.232
158.134
160.955
163.698
166.366
168.961
171.482
173.93
176.303
178.6
180.816
182.948
184.992
186.942
188.79
190.528
192.148
193.64
194.991
196.191
197.227
198.092
198.778
199.298
199.656
199.909
102.57
107.633
112.521
117.189
121.636
125.874
129.917
133.784
137.492
141.055
144.487
147.798
151
154.099
157.104
160.02
162.851
165.603
168.276
170.872
173.394
175.839
178.207
180.495
182.701
184.819
186.846
188.773
190.594
192.3
193.879
195.319
196.605
197.721
198.649
199.372
199.871
200.15
200.196
200.102
102.843
108.377
113.602
118.509
123.128
127.492
131.63
135.57
139.334
142.941
146.409
149.749
152.974
156.092
159.112
162.04
164.881
167.638
170.316
172.915
175.437
177.88
180.244
182.527
184.725
186.833
188.846
190.757
192.558
194.237
195.784
197.183
198.417
199.465
200.3
200.895
201.211
201.23
200.898
200.362
103.304
109.419
114.98
120.108
124.877
129.344
133.557
137.553
141.36
145.001
148.496
151.858
155.1
158.232
161.264
164.201
167.049
169.812
172.494
175.095
177.618
180.061
182.423
184.703
186.896
188.998
191.003
192.903
194.689
196.352
197.877
199.248
200.446
201.446
202.215
202.715
202.883
202.661
201.906
200.8
104.152
111.006
116.843
122.121
126.981
131.507
135.759
139.784
143.613
147.272
150.78
154.154
157.405
160.546
163.583
166.526
169.378
172.144
174.828
177.431
179.954
182.397
184.759
187.036
189.227
191.325
193.325
195.22
197
198.653
200.166
201.522
202.699
203.671
204.403
204.851
204.936
204.579
203.533
201.848
)
;

boundaryField
{
    carasuperior
    {
        type            fixedGradient;
        gradient        uniform 100;
    }
    lateralizquierda
    {
        type            fixedValue;
        value           uniform 100;
    }
    lateralderecha
    {
        type            fixedValue;
        value           uniform 200;
    }
    carainferior
    {
        type            zeroGradient;
    }
    frontAndBack
    {
        type            empty;
    }
}


// ************************************************************************* //
