/*--------------------------------*- C++ -*----------------------------------*\
| =========                 |                                                 |
| \\      /  F ield         | OpenFOAM: The Open Source CFD Toolbox           |
|  \\    /   O peration     | Version:  2.4.0                                 |
|   \\  /    A nd           | Web:      www.OpenFOAM.org                      |
|    \\/     M anipulation  |                                                 |
\*---------------------------------------------------------------------------*/
FoamFile
{
    version     2.0;
    format      ascii;
    class       volScalarField;
    location    "4.7";
    object      p;
}
// * * * * * * * * * * * * * * * * * * * * * * * * * * * * * * * * * * * * * //

dimensions      [0 2 -2 0 0 0 0];

internalField   nonuniform List<scalar> 
4800
(
2.501e-06
-0.0015988
-0.00328431
-0.00453481
-0.00502537
-0.00460439
-0.00322454
-0.000889419
0.0023563
0.00641693
0.00160093
-3.2854e-05
-0.00123067
-0.00194558
-0.00205377
-0.00144497
-7.14517e-05
0.00208345
0.00501027
0.0086626
0.00332604
0.00111508
-9.07214e-05
-0.000649796
-0.000631564
2.25e-05
0.00134405
0.00336045
0.00609397
0.00954171
0.00449591
0.00162706
0.000246386
-0.000328142
-0.000325464
0.000268755
0.0014747
0.00333832
0.00592647
0.00929649
0.00455658
0.00116546
-0.000400935
-0.00106528
-0.00117268
-0.000734992
0.000274323
0.00194026
0.00440226
0.00782554
0.00313945
-0.000563202
-0.00228229
-0.0030874
-0.00339307
-0.00321764
-0.00250565
-0.00110583
0.00123576
0.00489736
6.53195e-05
-0.00370765
-0.005524
-0.00650606
-0.00709436
-0.00729846
-0.00701341
-0.00599551
-0.00382992
0.000294203
-0.00466853
-0.00827144
-0.0101208
-0.0113046
-0.0122541
-0.0129651
-0.0132733
-0.0128311
-0.0110471
-0.00626162
-0.010898
-0.0141173
-0.0159338
-0.0173271
-0.0186943
-0.0200261
-0.021105
-0.0214843
-0.0204762
-0.0148583
-0.0183077
-0.0209846
-0.0227042
-0.0242846
-0.02608
-0.0281109
-0.030175
-0.0318299
-0.0328343
-0.0284543
2.5848e-06
-0.00161989
-0.00331581
-0.00457524
-0.00507114
-0.00465237
-0.00327266
-0.000935657
0.00231431
0.00638181
0.00161854
-3.75412e-05
-0.00121335
-0.00191807
-0.00202114
-0.00140914
-3.55043e-05
0.00211687
0.00503958
0.00868788
0.0033565
0.00108895
-9.19589e-05
-0.000648734
-0.000632941
2.12147e-05
0.00134263
0.00335835
0.00609108
0.00953993
0.00454028
0.00159028
0.000246578
-0.000324847
-0.00032642
0.000267306
0.00147277
0.00333516
0.00592099
0.00929166
0.00461091
0.00112224
-0.000395909
-0.00105452
-0.00116615
-0.000728764
0.000279884
0.00194354
0.00439882
0.00781877
0.00319887
-0.000610991
-0.00227569
-0.0030737
-0.00338355
-0.0032082
-0.00249642
-0.0010984
0.00122982
0.00487847
0.000125616
-0.00375658
-0.00551692
-0.00649106
-0.00708292
-0.00728661
-0.00700029
-0.0059798
-0.00383772
0.000246193
-0.00461361
-0.00831852
-0.0101143
-0.01129
-0.0122422
-0.012953
-0.0132596
-0.0128068
-0.0110701
-0.00642875
-0.0108524
-0.01416
-0.0159294
-0.0173149
-0.0186831
-0.020014
-0.0210888
-0.0214277
-0.0204593
-0.0152335
-0.0182746
-0.0210216
-0.0227033
-0.0242776
-0.0260726
-0.0281001
-0.0301522
-0.0316891
-0.0325048
-0.0285676
2.70507e-06
-0.00161981
-0.00331575
-0.00457519
-0.0050711
-0.00465234
-0.00327264
-0.00093564
0.00231432
0.00638182
0.00161861
-3.74803e-05
-0.00121329
-0.00191802
-0.00202111
-0.00140911
-3.54816e-05
0.00211689
0.0050396
0.0086879
0.00335656
0.00108901
-9.19078e-05
-0.000648691
-0.000632907
2.12421e-05
0.00134265
0.00335836
0.00609109
0.00953994
0.00454033
0.00159033
0.000246619
-0.000324812
-0.00032639
0.000267331
0.00147279
0.00333518
0.005921
0.00929167
0.00461094
0.00112228
-0.000395876
-0.00105449
-0.00116613
-0.000728742
0.000279903
0.00194355
0.00439883
0.00781878
0.0031989
-0.000610965
-0.00227566
-0.00307368
-0.00338353
-0.00320818
-0.0024964
-0.00109839
0.00122984
0.00487848
0.000125638
-0.00375656
-0.0055169
-0.00649104
-0.0070829
-0.00728659
-0.00700028
-0.00597979
-0.00383771
0.000246202
-0.0046136
-0.0083185
-0.0101143
-0.01129
-0.0122422
-0.012953
-0.0132596
-0.0128068
-0.0110701
-0.00642874
-0.0108524
-0.01416
-0.0159294
-0.0173149
-0.0186831
-0.020014
-0.0210888
-0.0214277
-0.0204593
-0.0152335
-0.0182746
-0.0210215
-0.0227033
-0.0242776
-0.0260726
-0.0281001
-0.0301522
-0.0316891
-0.0325048
-0.0285676
3.88825e-06
-0.0015984
-0.0032841
-0.00453467
-0.00502527
-0.00460432
-0.00322449
-0.000889375
0.00235634
0.00641695
0.00160133
-3.26144e-05
-0.00123049
-0.00194544
-0.00205366
-0.00144489
-7.13929e-05
0.0020835
0.00501031
0.00866263
0.00332624
0.00111525
-9.05732e-05
-0.000649679
-0.000631473
2.25717e-05
0.0013441
0.00336049
0.00609401
0.00954174
0.00449605
0.00162719
0.0002465
-0.000328047
-0.000325385
0.000268819
0.00147475
0.00333837
0.0059265
0.00929652
0.00455667
0.00116556
-0.000400848
-0.00106521
-0.00117262
-0.000734936
0.00027437
0.0019403
0.00440229
0.00782557
0.00313951
-0.000563134
-0.00228222
-0.00308734
-0.00339302
-0.00321759
-0.00250561
-0.00110579
0.00123579
0.00489738
6.53672e-05
-0.0037076
-0.00552395
-0.00650601
-0.00709432
-0.00729842
-0.00701337
-0.00599548
-0.00382989
0.000294227
-0.0046685
-0.0082714
-0.0101207
-0.0113046
-0.0122541
-0.0129651
-0.0132732
-0.012831
-0.011047
-0.0062616
-0.010898
-0.0141173
-0.0159338
-0.0173271
-0.0186943
-0.020026
-0.021105
-0.0214843
-0.0204762
-0.0148583
-0.0183077
-0.0209846
-0.0227041
-0.0242845
-0.0260799
-0.0281109
-0.030175
-0.0318299
-0.0328343
-0.0284543
0.0111395
0.0163368
0.0218393
0.0275193
0.0332918
0.0391073
0.044942
0.0507904
0.0566605
0.0625725
0.068559
0.0746661
0.0809534
0.0874921
0.0943589
0.101623
0.109323
0.117441
0.125859
0.134338
0.0129439
0.0177162
0.0228498
0.028237
0.0337949
0.0394657
0.0452131
0.0510187
0.0568787
0.0628027
0.0688119
0.0749392
0.0812272
0.0877252
0.0944839
0.101544
0.108923
0.116588
0.124441
0.132288
0.0136388
0.0182468
0.0232426
0.0285232
0.0340041
0.0396235
0.0453394
0.0511272
0.0569772
0.0628917
0.0688842
0.0749781
0.0812051
0.0876028
0.0942111
0.101066
0.108187
0.115562
0.123126
0.130732
0.0134085
0.0180609
0.0231076
0.0284369
0.0339593
0.0396108
0.0453496
0.0511504
0.0570014
0.0629008
0.0688557
0.0748809
0.0809983
0.0872365
0.0936307
0.100221
0.107047
0.11414
0.121494
0.129039
0.0122093
0.0171556
0.022462
0.0280033
0.0336855
0.0394506
0.0452652
0.0511107
0.0569779
0.0628641
0.0687708
0.0747038
0.0806742
0.0866997
0.0928095
0.0990509
0.105491
0.112221
0.119333
0.126897
0.0099908
0.0155846
0.0213974
0.0273165
0.0332628
0.0392041
0.0451308
0.0510408
0.0569338
0.0628083
0.0686616
0.0744897
0.0802899
0.086065
0.0918325
0.0976396
0.103582
0.109815
0.116571
0.124194
0.00688467
0.013616
0.0201858
0.0266023
0.0328578
0.0389857
0.0450224
0.0509921
0.056907
0.0627686
0.0685689
0.0742929
0.0799208
0.0854346
0.0908287
0.0961341
0.101461
0.107025
0.11322
0.120903
0.00330755
0.011779
0.01926
0.0261708
0.0326728
0.0389198
0.0450148
0.051011
0.0569307
0.0627752
0.0685298
0.0741657
0.0796438
0.0849187
0.0899496
0.0947311
0.099368
0.104087
0.109412
0.117009
0.00131098
0.0117594
0.0195631
0.0265041
0.0329457
0.0391225
0.0451682
0.0511359
0.0570395
0.0628704
0.068602
0.0741899
0.0795719
0.0846674
0.0893815
0.0936364
0.0974824
0.100938
0.104357
0.11066
0.00586233
0.0170943
0.0227414
0.0282745
0.0339386
0.0396977
0.0455328
0.0514073
0.0572843
0.0631269
0.0688889
0.0745065
0.0798887
0.0849044
0.0893661
0.0930109
0.0954836
0.0964892
0.0952223
0.0967531
0.0111131
0.0163183
0.0218271
0.0275116
0.033287
0.0391043
0.04494
0.0507886
0.0566586
0.0625701
0.0685559
0.0746621
0.0809483
0.0874861
0.0943525
0.101617
0.109319
0.117442
0.125867
0.134357
0.0129662
0.0177349
0.0228646
0.0282483
0.0338034
0.0394721
0.0452182
0.0510231
0.056883
0.0628072
0.0688169
0.0749447
0.0812329
0.0877304
0.0944873
0.101544
0.108918
0.116575
0.124419
0.132258
0.0136415
0.0182516
0.0232479
0.0285282
0.0340084
0.0396269
0.045342
0.0511293
0.0569788
0.0628929
0.0688853
0.074979
0.0812057
0.087603
0.0942108
0.101064
0.108184
0.115557
0.12312
0.130727
0.0134129
0.018068
0.0231146
0.0284432
0.0339642
0.0396145
0.0453522
0.0511523
0.0570026
0.0629016
0.0688563
0.0748813
0.0809986
0.0872368
0.0936306
0.10022
0.107046
0.114137
0.121488
0.129034
0.0122213
0.0171689
0.0224729
0.0280118
0.0336915
0.0394545
0.0452677
0.0511123
0.056979
0.0628648
0.0687714
0.0747045
0.080675
0.0867006
0.0928104
0.099051
0.105491
0.112218
0.119322
0.126883
0.0100162
0.0156063
0.0214111
0.0273257
0.0332682
0.0392069
0.0451322
0.0510414
0.056934
0.0628085
0.0686618
0.07449
0.0802904
0.0860659
0.0918336
0.0976402
0.103582
0.109814
0.116553
0.124156
0.00695232
0.0136608
0.0202065
0.0266131
0.0328624
0.0389871
0.0450225
0.0509918
0.0569067
0.0627684
0.068569
0.0742932
0.0799216
0.0854359
0.0908305
0.096135
0.10146
0.107019
0.113176
0.120799
0.00342243
0.0118258
0.0192696
0.0261744
0.0326723
0.0389179
0.045013
0.0510095
0.0569294
0.0627742
0.0685288
0.074165
0.0796434
0.0849191
0.0899511
0.0947316
0.0993665
0.104093
0.109374
0.116844
0.00145447
0.0116958
0.0194918
0.0264736
0.0329299
0.0391129
0.0451622
0.0511313
0.057035
0.0628654
0.068596
0.0741828
0.0795638
0.0846598
0.0893771
0.0936374
0.0975016
0.101027
0.104477
0.110482
0.00670339
0.0172378
0.0227519
0.0282976
0.0339536
0.0397047
0.0455368
0.0514101
0.0572869
0.0631297
0.0688923
0.0745109
0.079894
0.0849102
0.0893705
0.0930084
0.0954742
0.0965203
0.0951606
0.0956881
0.0111131
0.0163183
0.0218271
0.0275116
0.033287
0.0391043
0.04494
0.0507886
0.0566586
0.0625701
0.0685559
0.0746621
0.0809483
0.0874861
0.0943525
0.101617
0.109319
0.117442
0.125867
0.134357
0.0129662
0.0177349
0.0228646
0.0282483
0.0338034
0.0394721
0.0452182
0.0510231
0.056883
0.0628072
0.0688169
0.0749447
0.0812329
0.0877304
0.0944873
0.101544
0.108918
0.116575
0.124419
0.132258
0.0136415
0.0182516
0.0232479
0.0285282
0.0340085
0.0396269
0.045342
0.0511293
0.0569788
0.0628929
0.0688853
0.074979
0.0812057
0.087603
0.0942108
0.101064
0.108184
0.115558
0.12312
0.130727
0.0134129
0.018068
0.0231146
0.0284432
0.0339643
0.0396145
0.0453522
0.0511523
0.0570026
0.0629016
0.0688563
0.0748813
0.0809986
0.0872368
0.0936306
0.10022
0.107046
0.114137
0.121488
0.129034
0.0122213
0.017169
0.0224729
0.0280118
0.0336915
0.0394546
0.0452677
0.0511123
0.056979
0.0628648
0.0687714
0.0747045
0.080675
0.0867006
0.0928104
0.099051
0.105491
0.112218
0.119322
0.126883
0.0100163
0.0156063
0.0214111
0.0273257
0.0332682
0.0392069
0.0451322
0.0510414
0.056934
0.0628085
0.0686618
0.07449
0.0802904
0.0860659
0.0918336
0.0976402
0.103582
0.109814
0.116553
0.124156
0.00695233
0.0136608
0.0202065
0.0266131
0.0328624
0.0389871
0.0450225
0.0509918
0.0569067
0.0627684
0.068569
0.0742932
0.0799216
0.0854359
0.0908305
0.096135
0.10146
0.107019
0.113176
0.120799
0.00342244
0.0118258
0.0192696
0.0261744
0.0326723
0.0389179
0.045013
0.0510095
0.0569294
0.0627742
0.0685288
0.074165
0.0796434
0.0849191
0.0899511
0.0947316
0.0993665
0.104093
0.109374
0.116844
0.00145448
0.0116958
0.0194918
0.0264736
0.0329299
0.0391129
0.0451622
0.0511313
0.057035
0.0628654
0.068596
0.0741828
0.0795638
0.0846598
0.0893771
0.0936374
0.0975016
0.101027
0.104477
0.110482
0.0067034
0.0172378
0.0227519
0.0282976
0.0339536
0.0397047
0.0455368
0.0514101
0.0572869
0.0631297
0.0688923
0.0745109
0.079894
0.0849102
0.0893705
0.0930084
0.0954742
0.0965203
0.0951606
0.095688
0.0111396
0.0163368
0.0218394
0.0275193
0.0332918
0.0391073
0.044942
0.0507904
0.0566605
0.0625725
0.068559
0.0746661
0.0809534
0.0874921
0.0943589
0.101623
0.109323
0.117441
0.125859
0.134338
0.0129439
0.0177162
0.0228498
0.028237
0.0337949
0.0394657
0.0452131
0.0510187
0.0568787
0.0628027
0.0688119
0.0749392
0.0812272
0.0877252
0.0944839
0.101544
0.108923
0.116588
0.124441
0.132288
0.0136388
0.0182468
0.0232427
0.0285232
0.0340042
0.0396235
0.0453394
0.0511273
0.0569772
0.0628917
0.0688842
0.0749781
0.0812051
0.0876028
0.0942111
0.101066
0.108187
0.115562
0.123126
0.130732
0.0134086
0.0180609
0.0231076
0.0284369
0.0339593
0.0396108
0.0453496
0.0511505
0.0570014
0.0629008
0.0688557
0.0748809
0.0809983
0.0872365
0.0936307
0.100221
0.107047
0.11414
0.121494
0.129039
0.0122094
0.0171556
0.022462
0.0280033
0.0336855
0.0394506
0.0452652
0.0511107
0.0569779
0.0628641
0.0687708
0.0747039
0.0806742
0.0866997
0.0928095
0.0990509
0.105491
0.112221
0.119333
0.126897
0.00999082
0.0155846
0.0213974
0.0273165
0.0332628
0.0392041
0.0451308
0.0510408
0.0569338
0.0628083
0.0686616
0.0744897
0.0802899
0.086065
0.0918325
0.0976396
0.103582
0.109815
0.116571
0.124194
0.00688469
0.0136161
0.0201858
0.0266023
0.0328578
0.0389857
0.0450224
0.0509921
0.056907
0.0627686
0.0685689
0.0742929
0.0799208
0.0854346
0.0908287
0.0961341
0.101461
0.107025
0.11322
0.120903
0.00330757
0.011779
0.0192601
0.0261708
0.0326728
0.0389198
0.0450148
0.051011
0.0569307
0.0627752
0.0685298
0.0741657
0.0796438
0.0849187
0.0899496
0.0947311
0.099368
0.104087
0.109412
0.117009
0.001311
0.0117594
0.0195631
0.0265041
0.0329457
0.0391225
0.0451682
0.0511359
0.0570395
0.0628704
0.068602
0.0741899
0.0795719
0.0846674
0.0893815
0.0936364
0.0974824
0.100938
0.104357
0.11066
0.00586235
0.0170943
0.0227414
0.0282745
0.0339386
0.0396977
0.0455328
0.0514073
0.0572843
0.0631269
0.0688889
0.0745065
0.0798887
0.0849044
0.0893661
0.0930109
0.0954836
0.0964892
0.0952223
0.0967531
0.142507
0.149918
0.156151
0.160888
0.163966
0.165387
0.165329
0.16416
0.162434
0.160835
0.139832
0.1467
0.152549
0.157115
0.160263
0.161995
0.162458
0.161947
0.160799
0.159231
0.138113
0.144884
0.150699
0.155299
0.158544
0.160428
0.161077
0.160741
0.159601
0.157545
0.136532
0.14349
0.149515
0.154316
0.157738
0.159764
0.160503
0.160183
0.158886
0.156294
0.134736
0.142122
0.148564
0.153727
0.157432
0.159657
0.160507
0.160203
0.15878
0.155805
0.132705
0.140788
0.147851
0.153521
0.157607
0.160095
0.161104
0.16086
0.159392
0.156229
0.13064
0.139707
0.147539
0.153804
0.158318
0.161106
0.162313
0.162187
0.160772
0.157614
0.128983
0.139323
0.147977
0.154818
0.159717
0.162774
0.164181
0.16421
0.162936
0.159959
0.127977
0.140325
0.149754
0.156979
0.162057
0.165238
0.166776
0.166954
0.165876
0.163219
0.132351
0.14593
0.154527
0.161095
0.165717
0.168665
0.170156
0.170417
0.169547
0.167302
0.14254
0.149964
0.156205
0.160948
0.164025
0.165441
0.165373
0.16419
0.162452
0.160834
0.139795
0.146658
0.152501
0.157066
0.160215
0.161951
0.162421
0.161921
0.160794
0.15921
0.138114
0.144888
0.150706
0.155306
0.15855
0.160433
0.161078
0.16074
0.159618
0.157513
0.136539
0.143502
0.149529
0.154331
0.157752
0.159775
0.160507
0.160184
0.158914
0.156253
0.134744
0.142133
0.148576
0.153738
0.157442
0.159663
0.160506
0.160202
0.158813
0.155759
0.132715
0.1408
0.147863
0.153533
0.157617
0.160102
0.161102
0.160859
0.159428
0.156181
0.130662
0.139723
0.147553
0.153817
0.158327
0.161111
0.162311
0.162185
0.160808
0.157566
0.129124
0.13938
0.148001
0.154834
0.159724
0.162777
0.164178
0.164208
0.162969
0.159912
0.128306
0.140342
0.149731
0.156971
0.162051
0.165235
0.166771
0.166951
0.165905
0.163177
0.132238
0.145555
0.15436
0.161047
0.165698
0.168659
0.170151
0.170415
0.169572
0.167267
0.14254
0.149964
0.156205
0.160948
0.164025
0.165441
0.165373
0.16419
0.162452
0.160834
0.139795
0.146658
0.152501
0.157066
0.160215
0.161951
0.162421
0.161921
0.160794
0.15921
0.138114
0.144888
0.150706
0.155306
0.15855
0.160433
0.161078
0.16074
0.159618
0.157513
0.136539
0.143502
0.149529
0.154331
0.157752
0.159775
0.160507
0.160184
0.158914
0.156253
0.134744
0.142133
0.148576
0.153738
0.157442
0.159663
0.160506
0.160202
0.158813
0.155759
0.132715
0.1408
0.147863
0.153533
0.157617
0.160102
0.161102
0.160859
0.159428
0.156181
0.130662
0.139723
0.147553
0.153817
0.158327
0.161111
0.162311
0.162185
0.160808
0.157566
0.129124
0.13938
0.148001
0.154834
0.159724
0.162777
0.164178
0.164208
0.162969
0.159912
0.128306
0.140342
0.149731
0.156971
0.162051
0.165235
0.166771
0.166951
0.165905
0.163177
0.132238
0.145555
0.15436
0.161047
0.165698
0.168659
0.170151
0.170415
0.169572
0.167267
0.142507
0.149918
0.156151
0.160888
0.163966
0.165387
0.165329
0.16416
0.162434
0.160835
0.139832
0.1467
0.152549
0.157115
0.160263
0.161995
0.162458
0.161947
0.160799
0.159231
0.138113
0.144884
0.150699
0.155299
0.158544
0.160428
0.161077
0.160741
0.159601
0.157545
0.136532
0.14349
0.149515
0.154316
0.157738
0.159764
0.160503
0.160183
0.158886
0.156294
0.134736
0.142122
0.148564
0.153727
0.157432
0.159657
0.160507
0.160203
0.15878
0.155805
0.132705
0.140788
0.147851
0.153521
0.157607
0.160095
0.161104
0.16086
0.159392
0.156229
0.13064
0.139707
0.147539
0.153804
0.158318
0.161106
0.162313
0.162187
0.160772
0.157614
0.128983
0.139323
0.147977
0.154818
0.159717
0.162774
0.164181
0.16421
0.162936
0.159959
0.127977
0.140325
0.149754
0.156979
0.162057
0.165238
0.166776
0.166954
0.165876
0.163219
0.132351
0.14593
0.154527
0.161095
0.165717
0.168665
0.170156
0.170417
0.169547
0.167302
0.166619
0.162067
0.164074
0.167673
0.170806
0.173054
0.17428
0.174533
0.173853
0.172057
0.17779
0.172474
0.172518
0.174388
0.176395
0.178006
0.178948
0.179164
0.178658
0.177298
0.183371
0.180232
0.179968
0.180939
0.182203
0.183319
0.184011
0.184187
0.18383
0.182857
0.188832
0.187127
0.186849
0.187339
0.188116
0.188866
0.189357
0.189494
0.189259
0.188604
0.194418
0.193528
0.193329
0.193583
0.19406
0.194551
0.19489
0.194996
0.194854
0.194451
0.200107
0.199683
0.199573
0.199713
0.200002
0.200316
0.20054
0.200618
0.200546
0.200335
0.205899
0.205744
0.205702
0.205777
0.205939
0.20612
0.206253
0.206302
0.206278
0.206212
0.211782
0.211804
0.211795
0.211816
0.211875
0.211941
0.211987
0.211998
0.211999
0.212048
0.217785
0.217914
0.217911
0.217866
0.217815
0.217761
0.217707
0.217661
0.217664
0.217795
0.223945
0.224136
0.224101
0.223958
0.223768
0.223565
0.223381
0.223248
0.223223
0.223404
0.230328
0.230529
0.230414
0.230123
0.229743
0.22934
0.228979
0.228716
0.228622
0.228811
0.237027
0.23716
0.236896
0.236386
0.235745
0.235072
0.234471
0.234021
0.233806
0.233939
0.244158
0.2441
0.243588
0.242769
0.241776
0.24075
0.239832
0.239128
0.238721
0.238705
0.251865
0.251407
0.250513
0.249274
0.24783
0.246363
0.245048
0.244013
0.243326
0.243023
0.260326
0.259091
0.257646
0.255869
0.253881
0.251899
0.250122
0.248684
0.247612
0.246823
0.269653
0.267121
0.264871
0.262446
0.25986
0.257342
0.255081
0.253188
0.251613
0.250092
0.279903
0.275165
0.271846
0.268738
0.265607
0.262647
0.259975
0.257639
0.255448
0.252876
0.290752
0.282461
0.277865
0.274225
0.270805
0.267702
0.264873
0.262222
0.259348
0.255347
0.302193
0.288025
0.281758
0.27796
0.274843
0.272244
0.269816
0.267204
0.263687
0.257853
0.313171
0.288271
0.280326
0.277774
0.276462
0.275705
0.274761
0.272928
0.269035
0.260999
0.16746
0.16221
0.164189
0.16774
0.170832
0.173066
0.174285
0.174535
0.173876
0.17203
0.177933
0.17241
0.172564
0.174432
0.176417
0.178019
0.178955
0.179169
0.178676
0.177279
0.183382
0.180161
0.179977
0.18096
0.182216
0.183329
0.184018
0.184192
0.183844
0.182845
0.188854
0.187097
0.186852
0.18735
0.188126
0.188874
0.189363
0.189499
0.189269
0.188597
0.194433
0.193514
0.193329
0.193588
0.194065
0.194557
0.194895
0.195
0.194861
0.194447
0.200112
0.199676
0.199572
0.199715
0.200005
0.200319
0.200543
0.200621
0.20055
0.200333
0.205901
0.205742
0.205701
0.205777
0.205941
0.206123
0.206255
0.206304
0.206279
0.206213
0.211782
0.211805
0.211795
0.211816
0.211875
0.211943
0.211988
0.211999
0.211998
0.212049
0.217783
0.217917
0.217911
0.217865
0.217815
0.217762
0.217708
0.217662
0.217661
0.217797
0.223942
0.22414
0.224101
0.223957
0.223768
0.223565
0.223382
0.223249
0.223219
0.223407
0.230323
0.230534
0.230414
0.230122
0.229743
0.229339
0.228979
0.228716
0.228617
0.228815
0.237021
0.237165
0.236895
0.236385
0.235744
0.235072
0.234471
0.234022
0.233802
0.233944
0.244152
0.244101
0.243586
0.242767
0.241775
0.240749
0.239832
0.239129
0.238719
0.23871
0.25186
0.251402
0.250509
0.249271
0.247828
0.246362
0.245048
0.244015
0.243328
0.243027
0.260326
0.259072
0.257639
0.255865
0.253877
0.251898
0.250122
0.248687
0.247622
0.246825
0.269666
0.267083
0.264864
0.262443
0.259856
0.257341
0.255081
0.253193
0.251634
0.250087
0.279954
0.275095
0.271839
0.268737
0.265602
0.262645
0.259976
0.257647
0.255487
0.252861
0.290817
0.282287
0.277841
0.274223
0.270798
0.267702
0.264875
0.262235
0.259412
0.255318
0.302307
0.287702
0.281764
0.278003
0.274857
0.272257
0.269825
0.267226
0.263785
0.257804
0.314501
0.288379
0.280621
0.277958
0.27653
0.275738
0.274777
0.272958
0.269177
0.260922
0.16746
0.16221
0.164189
0.16774
0.170832
0.173066
0.174285
0.174535
0.173876
0.17203
0.177933
0.17241
0.172564
0.174432
0.176417
0.178019
0.178955
0.179169
0.178676
0.177279
0.183382
0.180161
0.179977
0.18096
0.182216
0.183329
0.184018
0.184192
0.183844
0.182845
0.188854
0.187097
0.186852
0.18735
0.188126
0.188874
0.189363
0.189499
0.189269
0.188597
0.194433
0.193514
0.193329
0.193588
0.194065
0.194557
0.194895
0.195
0.194861
0.194447
0.200112
0.199676
0.199572
0.199715
0.200005
0.200319
0.200543
0.200621
0.20055
0.200333
0.205901
0.205742
0.205701
0.205777
0.205941
0.206123
0.206255
0.206304
0.206279
0.206213
0.211782
0.211805
0.211795
0.211816
0.211875
0.211943
0.211988
0.211999
0.211998
0.212049
0.217783
0.217917
0.217911
0.217865
0.217815
0.217762
0.217708
0.217662
0.217661
0.217797
0.223942
0.22414
0.224101
0.223957
0.223768
0.223565
0.223382
0.223249
0.223219
0.223407
0.230323
0.230534
0.230414
0.230122
0.229743
0.229339
0.228979
0.228716
0.228617
0.228815
0.237021
0.237165
0.236895
0.236385
0.235744
0.235072
0.234471
0.234022
0.233802
0.233944
0.244152
0.244101
0.243586
0.242767
0.241775
0.240749
0.239832
0.239129
0.238719
0.23871
0.25186
0.251402
0.250509
0.249271
0.247828
0.246362
0.245048
0.244015
0.243328
0.243027
0.260326
0.259072
0.257639
0.255865
0.253877
0.251898
0.250122
0.248687
0.247622
0.246825
0.269666
0.267083
0.264864
0.262443
0.259856
0.257341
0.255081
0.253193
0.251634
0.250087
0.279954
0.275095
0.271839
0.268737
0.265602
0.262645
0.259976
0.257647
0.255487
0.252861
0.290817
0.282287
0.277841
0.274223
0.270798
0.267702
0.264875
0.262235
0.259412
0.255318
0.302307
0.287702
0.281764
0.278003
0.274857
0.272257
0.269825
0.267226
0.263785
0.257804
0.314501
0.288379
0.280621
0.277958
0.27653
0.275738
0.274777
0.272958
0.269177
0.260922
0.166619
0.162067
0.164074
0.167673
0.170806
0.173054
0.17428
0.174533
0.173853
0.172057
0.17779
0.172474
0.172518
0.174388
0.176395
0.178006
0.178948
0.179164
0.178658
0.177298
0.183371
0.180232
0.179968
0.180939
0.182203
0.183319
0.184011
0.184187
0.18383
0.182857
0.188832
0.187127
0.186849
0.187339
0.188116
0.188866
0.189357
0.189494
0.189259
0.188604
0.194418
0.193528
0.193329
0.193583
0.19406
0.194551
0.19489
0.194996
0.194854
0.194451
0.200107
0.199683
0.199573
0.199713
0.200002
0.200316
0.20054
0.200618
0.200546
0.200335
0.205899
0.205744
0.205702
0.205777
0.205939
0.20612
0.206253
0.206302
0.206278
0.206212
0.211782
0.211804
0.211795
0.211816
0.211875
0.211941
0.211987
0.211998
0.211999
0.212048
0.217785
0.217914
0.217911
0.217866
0.217815
0.217761
0.217707
0.217661
0.217664
0.217795
0.223945
0.224136
0.224101
0.223958
0.223768
0.223565
0.223381
0.223248
0.223223
0.223404
0.230328
0.230529
0.230414
0.230123
0.229743
0.22934
0.228979
0.228716
0.228622
0.228811
0.237027
0.23716
0.236896
0.236386
0.235745
0.235072
0.234471
0.234021
0.233806
0.233939
0.244158
0.2441
0.243588
0.242769
0.241776
0.24075
0.239832
0.239128
0.238721
0.238705
0.251865
0.251407
0.250513
0.249274
0.24783
0.246363
0.245048
0.244013
0.243326
0.243023
0.260326
0.259091
0.257646
0.255869
0.253881
0.251899
0.250122
0.248684
0.247612
0.246823
0.269653
0.267121
0.264871
0.262446
0.25986
0.257342
0.255081
0.253188
0.251613
0.250092
0.279903
0.275165
0.271846
0.268738
0.265607
0.262647
0.259975
0.257639
0.255448
0.252876
0.290752
0.282461
0.277865
0.274225
0.270805
0.267702
0.264873
0.262222
0.259348
0.255347
0.302193
0.288025
0.281758
0.27796
0.274843
0.272244
0.269816
0.267204
0.263687
0.257853
0.313171
0.288271
0.280326
0.277774
0.276462
0.275705
0.274761
0.272928
0.269035
0.260999
0.252752
0.261358
0.26658
0.270678
0.274238
0.277486
0.279701
0.279884
0.276245
0.265773
0.223627
0.239428
0.250648
0.260197
0.269283
0.277939
0.285022
0.288862
0.286586
0.273749
0.206147
0.221467
0.234826
0.24833
0.262799
0.277778
0.291434
0.301021
0.301894
0.287383
0.192638
0.206476
0.220675
0.237109
0.256558
0.278393
0.300251
0.318125
0.324865
0.31062
0.182814
0.195476
0.210161
0.228936
0.25295
0.281921
0.313522
0.34275
0.359476
0.349921
0.176924
0.18928
0.204803
0.225907
0.254374
0.29078
0.333725
0.378186
0.411312
0.415393
0.174779
0.187884
0.205003
0.228924
0.262188
0.306663
0.362915
0.427637
0.486871
0.521351
0.17549
0.190078
0.20936
0.236515
0.274998
0.328447
0.400526
0.491312
0.591095
0.694961
0.177433
0.193139
0.213859
0.243062
0.285165
0.346063
0.434063
0.557392
0.726233
1.00609
0.178783
0.193997
0.213529
0.240752
0.280356
0.339691
0.432749
0.58705
0.873415
1.49054
0.253092
0.260896
0.266453
0.270668
0.274236
0.277495
0.279706
0.279917
0.276441
0.265661
0.224046
0.239353
0.250583
0.260163
0.26926
0.277933
0.285014
0.288899
0.286849
0.273596
0.206402
0.221485
0.234794
0.248289
0.262758
0.277751
0.291403
0.301055
0.302234
0.287188
0.192728
0.20646
0.220623
0.237041
0.256484
0.278326
0.300176
0.318141
0.325275
0.310381
0.18284
0.195443
0.210091
0.228839
0.252836
0.281799
0.313383
0.342726
0.359909
0.349667
0.176932
0.189243
0.204724
0.225787
0.254215
0.290581
0.333483
0.378068
0.411667
0.415346
0.174794
0.187862
0.204936
0.228801
0.261991
0.306351
0.362484
0.427301
0.486849
0.521841
0.175534
0.190112
0.209381
0.236515
0.274946
0.328246
0.400147
0.490964
0.5898
0.694643
0.177501
0.193252
0.214043
0.243352
0.285596
0.346623
0.434805
0.557994
0.723002
1.0038
0.178833
0.194036
0.213548
0.240755
0.280369
0.339766
0.433105
0.587483
0.869726
1.49979
0.253092
0.260896
0.266453
0.270668
0.274236
0.277495
0.279706
0.279917
0.276441
0.265661
0.224046
0.239353
0.250583
0.260163
0.26926
0.277933
0.285014
0.288899
0.286849
0.273596
0.206402
0.221485
0.234794
0.248289
0.262758
0.277751
0.291403
0.301055
0.302234
0.287188
0.192728
0.20646
0.220623
0.237041
0.256484
0.278326
0.300176
0.318141
0.325275
0.310381
0.18284
0.195443
0.210091
0.228839
0.252836
0.281799
0.313383
0.342726
0.359909
0.349667
0.176932
0.189243
0.204724
0.225787
0.254215
0.290581
0.333483
0.378068
0.411667
0.415346
0.174794
0.187862
0.204936
0.228801
0.261991
0.306351
0.362484
0.427301
0.486849
0.521841
0.175534
0.190112
0.209381
0.236515
0.274946
0.328246
0.400147
0.490964
0.5898
0.694643
0.177501
0.193252
0.214043
0.243352
0.285596
0.346623
0.434805
0.557994
0.723002
1.0038
0.178833
0.194036
0.213548
0.240755
0.280369
0.339766
0.433105
0.587483
0.869726
1.49979
0.252752
0.261358
0.26658
0.270678
0.274238
0.277486
0.279701
0.279884
0.276245
0.265773
0.223627
0.239428
0.250648
0.260197
0.269283
0.277939
0.285022
0.288862
0.286586
0.273749
0.206147
0.221467
0.234826
0.24833
0.262799
0.277778
0.291434
0.301021
0.301894
0.287383
0.192638
0.206476
0.220675
0.237109
0.256558
0.278393
0.300251
0.318125
0.324865
0.31062
0.182814
0.195476
0.210161
0.228936
0.25295
0.281921
0.313522
0.34275
0.359476
0.349921
0.176924
0.18928
0.204803
0.225907
0.254374
0.29078
0.333725
0.378186
0.411312
0.415393
0.174779
0.187884
0.205003
0.228924
0.262188
0.306663
0.362915
0.427637
0.486871
0.521351
0.17549
0.190078
0.20936
0.236515
0.274998
0.328447
0.400526
0.491312
0.591095
0.694961
0.177433
0.193139
0.213859
0.243062
0.285165
0.346063
0.434063
0.557392
0.726233
1.00609
0.178783
0.193997
0.213529
0.240752
0.280356
0.339691
0.432749
0.58705
0.873415
1.49054
-0.153796
-0.133125
-0.115078
-0.0984346
-0.081816
-0.0650147
-0.048022
-0.030873
-0.013628
0.00364201
0.0208607
0.037956
0.0548622
0.0715306
0.0879882
0.104423
0.121319
0.139715
0.162913
0.200678
-0.139826
-0.126342
-0.111819
-0.0965671
-0.0806353
-0.0642339
-0.047498
-0.0305246
-0.013398
0.00380723
0.0210259
0.0381998
0.0552892
0.0722977
0.0892972
0.106494
0.124286
0.143294
0.165027
0.192931
-0.136611
-0.124619
-0.110919
-0.0960605
-0.0803643
-0.0640947
-0.0474247
-0.0304767
-0.0133443
0.00389752
0.0211881
0.0384785
0.0557356
0.0729527
0.0901686
0.1075
0.12516
0.143441
0.162897
0.18443
-0.137798
-0.125498
-0.111622
-0.0966308
-0.0808317
-0.0644655
-0.0477018
-0.030661
-0.0134309
0.00392165
0.0213436
0.0387899
0.0562202
0.0735991
0.0908992
0.108109
0.125229
0.14226
0.159259
0.176327
-0.140489
-0.127515
-0.11315
-0.0977797
-0.0816886
-0.065093
-0.0481451
-0.0309497
-0.01358
0.00391035
0.0214776
0.0390781
0.0566596
0.0741511
0.091454
0.108442
0.124936
0.140735
0.155668
0.169695
-0.142912
-0.129323
-0.114492
-0.0987601
-0.0823939
-0.0655889
-0.0484791
-0.0311534
-0.0136712
0.00392457
0.0215958
0.0392968
0.0569609
0.0744841
0.0917086
0.108447
0.124387
0.139261
0.152857
0.165236
-0.143406
-0.12958
-0.114615
-0.0988062
-0.0823949
-0.0655622
-0.048433
-0.0310902
-0.0135895
0.00402767
0.0217208
0.0394371
0.0570957
0.0745712
0.0916785
0.108173
0.123753
0.13814
0.151193
0.16313
-0.141097
-0.127629
-0.113049
-0.0975909
-0.0814741
-0.064875
-0.0479239
-0.0307135
-0.0133104
0.00423264
0.021864
0.0395184
0.0571027
0.0744804
0.0914601
0.107799
0.123226
0.137523
0.150657
0.162985
-0.135996
-0.123662
-0.110059
-0.0953934
-0.0798903
-0.0637506
-0.0471355
-0.0301675
-0.0129399
0.00447353
0.0220056
0.0395756
0.0570811
0.0743843
0.0913011
0.107608
0.123072
0.137531
0.151021
0.163972
-0.127732
-0.117696
-0.105853
-0.09249
-0.0779235
-0.0624404
-0.0462766
-0.0296149
-0.0125928
0.0046834
0.0221235
0.0396451
0.0571453
0.0744884
0.0915005
0.107969
0.123668
0.138423
0.152221
0.165386
-0.154179
-0.133008
-0.115063
-0.098457
-0.0818288
-0.0650223
-0.0480273
-0.0308763
-0.0136297
0.00364164
0.0208613
0.0379567
0.0548621
0.0715276
0.0879784
0.104403
0.121296
0.139666
0.162583
0.200079
-0.139769
-0.126171
-0.111742
-0.0965302
-0.0806088
-0.0642154
-0.0474854
-0.0305161
-0.0133925
0.00381064
0.0210283
0.0382026
0.0552945
0.0723085
0.0893165
0.106527
0.124345
0.143365
0.164927
0.192674
-0.136672
-0.124593
-0.110894
-0.0960422
-0.0803495
-0.064084
-0.0474174
-0.0304715
-0.0133407
0.00389992
0.0211896
0.0384795
0.0557363