/*--------------------------------*- C++ -*----------------------------------*\
| =========                 |                                                 |
| \\      /  F ield         | OpenFOAM: The Open Source CFD Toolbox           |
|  \\    /   O peration     | Version:  2.4.0                                 |
|   \\  /    A nd           | Web:      www.OpenFOAM.org                      |
|    \\/     M anipulation  |                                                 |
\*---------------------------------------------------------------------------*/
FoamFile
{
    version     2.0;
    format      ascii;
    class       surfaceScalarField;
    location    "4.7";
    object      phi;
}
// * * * * * * * * * * * * * * * * * * * * * * * * * * * * * * * * * * * * * //

dimensions      [0 3 -1 0 0 0 0];

internalField   nonuniform List<scalar> 
12720
(
1.55287e-07
-1.5589e-07
-6.55067e-12
-5.40147e-07
6.937e-07
1.73494e-09
-2.06846e-06
1.52572e-06
2.59216e-09
-4.18248e-06
2.1107e-06
3.32689e-09
-6.64561e-06
2.45937e-06
3.76627e-09
-9.26285e-06
2.61329e-06
3.94818e-09
-1.18736e-05
2.60681e-06
3.96021e-09
-1.43388e-05
2.46138e-06
3.80507e-09
-1.65369e-05
2.19464e-06
3.45623e-09
1.83542e-06
2.89004e-09
-1.83752e-05
-7.25523e-07
5.71082e-07
-1.44946e-09
-3.2974e-06
3.26517e-06
4.07189e-10
-7.50504e-06
5.73487e-06
-1.50469e-09
-1.29238e-05
7.53179e-06
-2.38973e-09
-1.91043e-05
8.64275e-06
-2.83383e-09
-2.56269e-05
9.13898e-06
-3.11296e-09
-3.21109e-05
9.094e-06
-3.12284e-09
-3.82133e-05
8.56664e-06
-2.90333e-09
-4.36381e-05
7.62199e-06
-2.54634e-09
6.36862e-06
-2.1968e-09
-4.81691e-05
-1.69466e-06
2.26825e-06
-2.5066e-09
-6.13897e-06
7.7072e-06
2.26963e-09
-1.2737e-05
1.23328e-05
1.07501e-10
-2.08922e-05
1.56871e-05
-9.22651e-11
-3.0017e-05
1.77674e-05
1.19628e-10
-3.95518e-05
1.86737e-05
1.11658e-10
-4.89679e-05
1.851e-05
1.23423e-10
-5.77708e-05
1.73693e-05
1.82788e-10
-6.55248e-05
1.53758e-05
2.51646e-10
1.27532e-05
1.55007e-10
-7.19095e-05
-2.49172e-06
4.76362e-06
-3.65092e-09
-8.52277e-06
1.37351e-05
3.19498e-09
-1.71064e-05
2.09164e-05
-1.66217e-11
-2.74567e-05
2.60377e-05
-2.86255e-10
-3.88714e-05
2.9182e-05
8.30877e-11
-5.06938e-05
3.0496e-05
1.25849e-10
-6.22888e-05
3.01048e-05
1.67252e-10
-7.30395e-05
2.81198e-05
2.74479e-10
-8.23778e-05
2.47136e-05
4.76023e-10
2.02411e-05
4.19879e-10
-8.98661e-05
-3.05603e-06
7.82413e-06
-4.47088e-09
-1.02482e-05
2.09234e-05
3.75466e-09
-2.02851e-05
3.09538e-05
-4.36607e-10
-3.22221e-05
3.79756e-05
-9.34795e-10
-4.52671e-05
4.22276e-05
-5.67068e-10
-5.86954e-05
4.39248e-05
-5.41052e-10
-7.1794e-05
4.32039e-05
-4.83124e-10
-8.38384e-05
4.01644e-05
-2.85013e-10
-9.41137e-05
3.49886e-05
2.98513e-10
2.81384e-05
5.88692e-10
-0.000102012
-3.36297e-06
1.1192e-05
-4.89028e-09
-1.12081e-05
2.87644e-05
4.15153e-09
-2.20698e-05
4.18161e-05
-5.73294e-10
-3.49045e-05
5.08115e-05
-1.19034e-09
-4.88664e-05
5.61904e-05
-8.26931e-10
-6.31939e-05
5.82531e-05
-8.20623e-10
-7.71259e-05
5.71366e-05
-8.01826e-10
-8.98474e-05
5.28866e-05
-6.45485e-10
-0.000100475
4.56152e-05
5.159e-10
3.57825e-05
1.64092e-09
-0.00010812
-3.40309e-06
1.45997e-05
-4.60318e-09
-1.13515e-05
3.67085e-05
4.25072e-09
-2.23453e-05
5.28106e-05
-6.15237e-10
-3.5313e-05
6.37804e-05
-1.30335e-09
-4.93951e-05
7.02735e-05
-9.93992e-10
-6.38279e-05
7.26869e-05
-1.02968e-09
-7.78425e-05
7.11524e-05
-1.13942e-09
-9.05736e-05
6.56191e-05
-1.36452e-09
-0.000100971
5.60121e-05
6.77636e-10
4.25152e-05
4.17076e-09
-0.000107708
-3.18273e-06
1.77869e-05
-4.5199e-09
-1.06841e-05
4.42058e-05
4.09007e-09
-2.10961e-05
6.32231e-05
-5.60511e-10
-3.33798e-05
7.60654e-05
-1.26653e-09
-4.66918e-05
8.35865e-05
-1.0357e-09
-6.0291e-05
8.62872e-05
-1.05189e-09
-7.34436e-05
8.43062e-05
-1.19043e-09
-8.53066e-05
7.74842e-05
-2.10859e-09
-9.47512e-05
6.54547e-05
2.00396e-09
4.75816e-05
1.45185e-08
-9.98321e-05
-2.73309e-06
2.05238e-05
-3.7553e-09
-9.29111e-06
5.07601e-05
3.71146e-09
-1.84521e-05
7.23845e-05
-3.88429e-10
-2.92446e-05
8.6859e-05
-1.06015e-09
-4.08393e-05
9.51822e-05
-9.71398e-10
-5.25013e-05
9.79501e-05
-1.04956e-09
-6.35311e-05
9.53374e-05
-1.40706e-09
-7.31614e-05
8.71194e-05
-4.92152e-09
-8.04043e-05
7.2699e-05
-1.4674e-09
4.98838e-05
3.25919e-08
-8.27391e-05
-2.1187e-06
-2.7227e-09
2.26452e-05
-7.36243e-06
3.20692e-09
5.60006e-05
-1.47474e-05
-7.24918e-11
7.97695e-05
-2.33737e-05
-6.0568e-10
9.54859e-05
-3.23818e-05
-6.4089e-10
0.000104191
-4.09396e-05
-9.35012e-10
0.000106509
-4.82232e-05
-1.98037e-09
0.000102623
-5.33109e-05
-1.22372e-08
9.22194e-05
-5.50905e-05
-2.86297e-08
7.45073e-05
9.84625e-09
-5.23895e-05
4.71729e-05
1.56808e-07
-1.56806e-07
-9.16666e-12
-5.40718e-07
6.99267e-07
-5.2437e-12
-2.06918e-06
1.53106e-06
-4.54897e-12
-4.18259e-06
2.11675e-06
-3.87999e-12
-6.64547e-06
2.46664e-06
-3.05171e-12
-9.2627e-06
2.62118e-06
-2.40222e-12
-1.18736e-05
2.61485e-06
-1.90274e-12
-1.43389e-05
2.46917e-06
-1.52164e-12
-1.65373e-05
2.20181e-06
-1.2206e-12
1.84143e-06
-9.76289e-13
-1.83758e-05
-7.30167e-07
5.71917e-07
-5.1793e-12
-3.303e-06
3.27251e-06
-4.36985e-12
-7.51003e-06
5.73658e-06
-4.649e-12
-1.29272e-05
7.53153e-06
-4.16549e-12
-1.9106e-05
8.64258e-06
-3.37088e-12
-2.5627e-05
9.13911e-06
-2.69039e-12
-3.21098e-05
9.09455e-06
-2.1388e-12
-3.82113e-05
8.56777e-06
-1.70834e-12
-4.36358e-05
7.62374e-06
-1.3672e-12
6.37023e-06
-1.09269e-12
-4.81668e-05
-1.70006e-06
2.26948e-06
-4.47905e-12
-6.13971e-06
7.71444e-06
-4.60237e-12
-1.27378e-05
1.23348e-05
-4.46481e-12
-2.08932e-05
1.56869e-05
-3.83086e-12
-3.00175e-05
1.7767e-05
-3.15811e-12
-3.95519e-05
1.86736e-05
-2.57025e-12
-4.89676e-05
1.85104e-05
-2.07387e-12
-5.77702e-05
1.73706e-05
-1.67535e-12
-6.55245e-05
1.53783e-05
-1.35207e-12
1.27555e-05
-1.08748e-12
-7.19096e-05
-2.49856e-06
4.76439e-06
-3.88226e-12
-8.52162e-06
1.37407e-05
-4.06673e-12
-1.71052e-05
2.09183e-05
-3.78835e-12
-2.74564e-05
2.60379e-05
-3.28925e-12
-3.88714e-05
2.9182e-05
-2.79433e-12
-5.06938e-05
3.04961e-05
-2.33772e-12
-6.22887e-05
3.01054e-05
-1.93138e-12
-7.30393e-05
2.81216e-05
-1.59074e-12
-8.23783e-05
2.47177e-05
-1.30321e-12
2.02451e-05
-1.06033e-12
-8.98675e-05
-3.06456e-06
7.82448e-06
-3.04722e-12
-1.02467e-05
2.09266e-05
-3.19372e-12
-2.02835e-05
3.09547e-05
-3.03807e-12
-3.22217e-05
3.79751e-05
-2.71938e-12
-4.52671e-05
4.22269e-05
-2.38453e-12
-5.86956e-05
4.3924e-05
-2.0535e-12
-7.1794e-05
4.32034e-05
-1.74075e-12
-8.3838e-05
4.01653e-05
-1.46519e-12
-9.41141e-05
3.49941e-05
-1.22275e-12
2.81456e-05
-1.01156e-12
-0.000102014
-3.37236e-06
1.11919e-05
-2.4227e-12
-1.12065e-05
2.87649e-05
-2.47821e-12
-2.20681e-05
4.18157e-05
-2.41088e-12
-3.49044e-05
5.08102e-05
-2.22882e-12
-4.8867e-05
5.61886e-05
-2.00963e-12
-6.31948e-05
5.82511e-05
-1.77492e-12
-7.71266e-05
5.71343e-05
-1.54104e-12
-8.9847e-05
5.28851e-05
-1.32524e-12
-0.000100475
4.56224e-05
-1.13003e-12
3.57971e-05
-9.57799e-13
-0.000108125
-3.41244e-06
1.45998e-05
-2.02882e-12
-1.13499e-05
3.67066e-05
-1.90781e-12
-2.23439e-05
5.28091e-05
-1.89845e-12
-3.53135e-05
6.37785e-05
-1.81278e-12
-4.93967e-05
7.02708e-05
-1.68314e-12
-6.38303e-05
7.26836e-05
-1.52284e-12
-7.78449e-05
7.11478e-05
-1.35038e-12
-9.05738e-05
6.56126e-05
-1.18262e-12
-0.00010097
5.60195e-05
-1.03207e-12
4.25477e-05
-9.05988e-13
-0.000107717
-3.19152e-06
1.77868e-05
-1.33266e-12
-1.06827e-05
4.42019e-05
-1.4217e-12
-2.1095e-05
6.32208e-05
-1.50221e-12
-3.3381e-05
7.60633e-05
-1.47774e-12
-4.66946e-05
8.35834e-05
-1.40456e-12
-6.02951e-05
8.62831e-05
-1.29468e-12
-7.34482e-05
8.42997e-05
-1.16397e-12
-8.53069e-05
7.74693e-05
-1.02823e-12
-9.47387e-05
6.54532e-05
-9.1925e-13
4.76646e-05
-8.62592e-13
-9.9841e-05
-2.74052e-06
2.05235e-05
-1.01231e-12
-9.28977e-06
5.07548e-05
-1.16083e-12
-1.84513e-05
7.2382e-05
-1.2335e-12
-2.92465e-05
8.68574e-05
-1.22087e-12
-4.08441e-05
9.51801e-05
-1.17299e-12
-5.25098e-05
9.79477e-05
-1.08982e-12
-6.35456e-05
9.53341e-05
-9.76934e-13
-7.31813e-05
8.71e-05
-8.46577e-13
-8.03804e-05
7.26509e-05
-7.62196e-13
5.00017e-05
-8.05449e-13
-8.26849e-05
-2.12411e-06
-8.73937e-13
2.26449e-05
-7.36082e-06
-9.95298e-13
5.59948e-05
-1.4746e-05
-1.03392e-12
7.97671e-05
-2.33746e-05
-1.01903e-12
9.54853e-05
-3.23866e-05
-9.81984e-13
0.000104191
-4.09516e-05
-9.10416e-13
0.000106512
-4.82521e-05
-7.98415e-13
0.000102633
-5.33996e-05
-6.33025e-13
9.22353e-05
-5.5232e-05
-5.02371e-13
7.44547e-05
-6.29729e-13
-5.21604e-05
4.69399e-05
1.56849e-07
-1.56765e-07
-9.24942e-11
-5.40686e-07
6.99293e-07
-1.76231e-09
-2.06916e-06
1.53107e-06
-2.60433e-09
-4.18258e-06
2.11676e-06
-3.33464e-09
-6.64546e-06
2.46664e-06
-3.7715e-09
-9.26269e-06
2.62119e-06
-3.95193e-09
-1.18736e-05
2.61485e-06
-3.96305e-09
-1.43389e-05
2.46917e-06
-3.80728e-09
-1.65373e-05
2.20181e-06
-3.45799e-09
1.84143e-06
-2.89144e-09
-1.83758e-05
-7.30141e-07
5.71949e-07
1.42236e-09
-3.30297e-06
3.27254e-06
-4.22713e-10
-7.51e-06
5.7366e-06
1.49397e-09
-1.29272e-05
7.53154e-06
2.38203e-09
-1.91059e-05
8.64259e-06
2.82831e-09
-2.5627e-05
9.13912e-06
3.10887e-09
-3.21098e-05
9.09456e-06
3.1197e-09
-3.82113e-05
8.56777e-06
2.90087e-09
-4.36358e-05
7.62374e-06
2.5444e-09
6.37024e-06
2.19525e-09
-4.81668e-05
-1.70005e-06
2.2695e-06
2.4947e-09
-6.13969e-06
7.71446e-06
-2.28012e-09
-1.27378e-05
1.23348e-05
-1.15937e-10
-2.08932e-05
1.56869e-05
8.57793e-11
-3.00175e-05
1.7767e-05
-1.24583e-10
-3.95519e-05
1.86736e-05
-1.15501e-10
-4.89676e-05
1.85104e-05
-1.26445e-10
-5.77702e-05
1.73706e-05
-1.85192e-10
-6.55245e-05
1.53783e-05
-2.53573e-10
1.27555e-05
-1.56557e-10
-7.19096e-05
-2.49855e-06
4.7644e-06
3.64359e-09
-8.52161e-06
1.37407e-05
-3.2023e-09
-1.71051e-05
2.09183e-05
1.03121e-11
-2.74564e-05
2.60379e-05
2.81074e-10
-3.88714e-05
2.9182e-05
-8.72982e-11
-5.06938e-05
3.04961e-05
-1.29275e-10
-6.22887e-05
3.01054e-05
-1.70041e-10
-7.30393e-05
2.81216e-05
-2.76757e-10
-8.23783e-05
2.47177e-05
-4.77883e-10
2.02451e-05
-4.21394e-10
-8.98675e-05
-3.06456e-06
7.82449e-06
4.46611e-09
-1.02467e-05
2.09266e-05
-3.75975e-09
-2.02835e-05
3.09547e-05
4.31921e-10
-3.22217e-05
3.79751e-05
9.30708e-10
-4.52671e-05
4.22269e-05
5.63565e-10
-5.86956e-05
4.3924e-05
5.38073e-10
-7.1794e-05
4.32034e-05
4.80613e-10
-8.3838e-05
4.01653e-05
2.82903e-10
-9.41141e-05
3.49941e-05
-3.00276e-10
2.81456e-05
-5.90153e-10
-0.000102014
-3.37235e-06
1.1192e-05
4.88706e-09
-1.12065e-05
2.87649e-05
-4.1552e-09
-2.20681e-05
4.18157e-05
5.69746e-10
-3.49044e-05
5.08102e-05
1.1871e-09
-4.8867e-05
5.61886e-05
8.24035e-10
-6.31948e-05
5.82511e-05
8.18064e-10
-7.71266e-05
5.71343e-05
7.99597e-10
-8.9847e-05
5.28851e-05
6.43559e-10
-0.000100475
4.56224e-05
-5.17547e-10
3.57971e-05
-1.64231e-09
-0.000108125
-3.41244e-06
1.45998e-05
4.59918e-09
-1.13499e-05
3.67066e-05
-4.25347e-09
-2.23439e-05
5.28091e-05
6.12454e-10
-3.53135e-05
6.37785e-05
1.30073e-09
-4.93966e-05
7.02708e-05
9.91577e-10
-6.38303e-05
7.26836e-05
1.02748e-09
-7.78449e-05
7.11478e-05
1.13745e-09
-9.05738e-05
6.56126e-05
1.36278e-09
-0.00010097
5.60195e-05
-6.79143e-10
4.25477e-05
-4.17204e-09
-0.000107717
-3.19152e-06
1.77868e-05
4.51801e-09
-1.06827e-05
4.42019e-05
-4.09228e-09
-2.1095e-05
6.32208e-05
5.58248e-10
-3.3381e-05
7.60633e-05
1.26436e-09
-4.66946e-05
8.35834e-05
1.03366e-09
-6.02951e-05
8.62831e-05
1.04999e-09
-7.34482e-05
8.42997e-05
1.18869e-09
-8.53069e-05
7.74693e-05
2.10704e-09
-9.47387e-05
6.54532e-05
-2.00529e-09
4.76646e-05
-1.45196e-08
-9.9841e-05
-2.74052e-06
2.05236e-05
3.75373e-09
-9.28977e-06
5.07549e-05
-3.71328e-09
-1.84513e-05
7.2382e-05
3.86558e-10
-2.92465e-05
8.68574e-05
1.05834e-09
-4.08441e-05
9.51801e-05
9.69664e-10
-5.25098e-05
9.79477e-05
1.04792e-09
-6.35456e-05
9.53341e-05
1.40554e-09
-7.31813e-05
8.71e-05
4.92014e-09
-8.03804e-05
7.26509e-05
1.46622e-09
5.00017e-05
-3.25928e-08
-8.26849e-05
-2.12411e-06
2.72139e-09
2.26449e-05
-7.36082e-06
-3.20843e-09
5.59948e-05
-1.4746e-05
7.0938e-11
7.97671e-05
-2.33746e-05
6.04163e-10
9.54853e-05
-3.23866e-05
6.39415e-10
0.000104191
-4.09516e-05
9.33609e-10
0.000106512
-4.82521e-05
1.97905e-09
0.000102633
-5.33996e-05
1.22359e-08
9.22353e-05
-5.5232e-05
2.86286e-08
7.44547e-05
-9.84718e-09
-5.21604e-05
4.69399e-05
1.55542e-07
-1.55634e-07
-5.40026e-07
6.93807e-07
-2.06839e-06
1.52576e-06
-4.18244e-06
2.11072e-06
-6.64559e-06
2.45938e-06
-9.26283e-06
2.61329e-06
-1.18736e-05
2.60681e-06
-1.43388e-05
2.46138e-06
-1.65369e-05
2.19464e-06
1.83542e-06
-1.83752e-05
-7.25416e-07
5.71204e-07
-3.2973e-06
3.26526e-06
-7.50497e-06
5.73493e-06
-1.29237e-05
7.53183e-06
-1.91043e-05
8.64277e-06
-2.56269e-05
9.13899e-06
-3.21109e-05
9.094e-06
-3.82133e-05
8.56664e-06
-4.36381e-05
7.622e-06
6.36862e-06
-4.81691e-05
-1.69462e-06
2.26832e-06
-6.13891e-06
7.70728e-06
-1.2737e-05
1.23329e-05
-2.08922e-05
1.56871e-05
-3.00169e-05
1.77674e-05
-3.95518e-05
1.86737e-05
-4.89679e-05
1.851e-05
-5.77708e-05
1.73694e-05
-6.55248e-05
1.53758e-05
1.27532e-05
-7.19095e-05
-2.4917e-06
4.76366e-06
-8.52273e-06
1.37351e-05
-1.71063e-05
2.09165e-05
-2.74566e-05
2.60377e-05
-3.88714e-05
2.91821e-05
-5.06938e-05
3.0496e-05
-6.22888e-05
3.01048e-05
-7.30395e-05
2.81198e-05
-8.23778e-05
2.47136e-05
2.02411e-05
-8.98661e-05
-3.05602e-06
7.82415e-06
-1.02481e-05
2.09235e-05
-2.02851e-05
3.09539e-05
-3.22221e-05
3.79756e-05
-4.52671e-05
4.22277e-05
-5.86954e-05
4.39248e-05
-7.1794e-05
4.32039e-05
-8.38384e-05
4.01644e-05
-9.41137e-05
3.49886e-05
2.81384e-05
-0.000102012
-3.36296e-06
1.1192e-05
-1.12081e-05
2.87644e-05
-2.20698e-05
4.18162e-05
-3.49045e-05
5.08115e-05
-4.88664e-05
5.61904e-05
-6.31939e-05
5.82531e-05
-7.71259e-05
5.71367e-05
-8.98474e-05
5.28866e-05
-0.000100475
4.56152e-05
3.57825e-05
-0.00010812
-3.40309e-06
1.45997e-05
-1.13515e-05
3.67086e-05
-2.23453e-05
5.28106e-05
-3.5313e-05
6.37804e-05
-4.93951e-05
7.02735e-05
-6.38279e-05
7.2687e-05
-7.78425e-05
7.11524e-05
-9.05736e-05
6.56191e-05
-0.000100971
5.60121e-05
4.25152e-05
-0.000107708
-3.18273e-06
1.77869e-05
-1.06841e-05
4.42058e-05
-2.10961e-05
6.32232e-05
-3.33798e-05
7.60654e-05
-4.66918e-05
8.35865e-05
-6.0291e-05
8.62872e-05
-7.34436e-05
8.43062e-05
-8.53066e-05
7.74842e-05
-9.47512e-05
6.54547e-05
4.75816e-05
-9.98321e-05
-2.73309e-06
2.05238e-05
-9.2911e-06
5.07601e-05
-1.84521e-05
7.23845e-05
-2.92446e-05
8.6859e-05
-4.08393e-05
9.51822e-05
-5.25013e-05
9.79501e-05
-6.35311e-05
9.53374e-05
-7.31614e-05
8.71194e-05
-8.04043e-05
7.2699e-05
4.98838e-05
-8.2739e-05
-2.1187e-06
2.26452e-05
-7.36243e-06
5.60007e-05
-1.47474e-05
7.97696e-05
-2.33737e-05
9.54859e-05
-3.23818e-05
0.000104191
-4.09396e-05
0.000106509
-4.82232e-05
0.000102623
-5.33109e-05
9.22194e-05
-5.50905e-05
7.45073e-05
-5.23895e-05
4.71729e-05
-1.9812e-05
1.43463e-06
2.17554e-09
-2.08686e-05
1.05502e-06
1.52389e-09
-2.16077e-05
7.38136e-07
1.01056e-09
-2.21067e-05
4.98405e-07
6.39533e-10
-2.24392e-05
3.32036e-07
3.93894e-10
-2.26664e-05
2.26927e-07
2.45941e-10
-2.28362e-05
1.69691e-07
1.69071e-10
-2.29854e-05
1.49078e-07
1.4311e-10
-2.31423e-05
1.56678e-07
1.54377e-10
-2.33285e-05
1.86078e-07
1.94166e-10
-2.35601e-05
2.31258e-07
2.56343e-10
-2.3845e-05
2.84582e-07
3.34423e-10
-2.418e-05
3.34602e-07
4.18575e-10
-2.45444e-05
3.6393e-07
4.92517e-10
-2.48927e-05
3.47746e-07
5.2926e-10
-2.51472e-05
2.54028e-07
4.85208e-10
-2.51957e-05
4.82107e-08
3.05791e-10
-2.4893e-05
-3.02623e-07
-4.29022e-11
-2.40861e-05
-8.06264e-07
-6.56405e-10
-1.43711e-06
-1.5803e-09
-2.26474e-05
-5.17175e-05
4.98495e-06
-1.94338e-09
-5.43433e-05
3.68245e-06
-1.62309e-09
-5.62009e-05
2.59698e-06
-1.28491e-09
-5.74749e-05
1.77346e-06
-9.83087e-10
-5.83395e-05
1.19736e-06
-7.36811e-10
-5.89396e-05
8.27521e-07
-5.55721e-10
-5.9388e-05
6.18575e-07
-4.39462e-10
-5.97702e-05
5.31655e-07
-3.80642e-10
-6.01497e-05
5.36511e-07
-3.6885e-10
-6.05721e-05
6.08889e-07
-3.91894e-10
-6.10659e-05
7.25521e-07
-4.34875e-10
-6.16389e-05
8.58012e-07
-4.78107e-10
-6.22701e-05
9.6634e-07
-4.94763e-10
-6.28987e-05
9.92946e-07
-4.49275e-10
-6.34098e-05
8.59213e-07
-2.97854e-10
-6.36234e-05
4.67542e-07
5.36816e-12
-6.32894e-05
-2.86192e-07
4.90355e-10
-6.21066e-05
-1.48665e-06
1.14613e-09
-5.97606e-05
-3.15415e-06
1.93173e-09
-5.19393e-06
2.67074e-09
-5.60065e-05
-7.68073e-05
9.88293e-06
-2.39239e-10
-8.03502e-05
7.22578e-06
-4.17362e-10
-8.28044e-05
5.05165e-06
-4.58432e-10
-8.44585e-05
3.42796e-06
-4.36512e-10
-8.55655e-05
2.30477e-06
-3.73656e-10
-8.63246e-05
1.58696e-06
-2.98994e-10
-8.68839e-05
1.17802e-06
-2.31172e-10
-8.73503e-05
9.98288e-07
-1.77401e-10
-8.78005e-05
9.86816e-07
-1.38627e-10
-8.82867e-05
1.09517e-06
-1.12324e-10
-8.88386e-05
1.27754e-06
-9.40097e-11
-8.94598e-05
1.47934e-06
-7.79825e-11
-9.01188e-05
1.62536e-06
-5.74594e-11
-9.07348e-05
1.60897e-06
-2.40377e-11
-9.11609e-05
1.28533e-06
3.34908e-11
-9.11676e-05
4.74108e-07
1.24557e-10
-9.04345e-05
-1.0196e-06
2.44002e-10
-8.85635e-05
-3.358e-06
3.83963e-10
-8.51283e-05
-6.58989e-06
5.28213e-10
-1.05448e-05
4.49432e-10
-7.97778e-05
-9.53586e-05
1.53757e-05
-3.81318e-10
-9.9124e-05
1.09918e-05
-6.14949e-10
-0.000101594
7.52274e-06
-6.11691e-10
-0.000103177
5.01104e-06
-5.44452e-10
-0.000104189
3.31738e-06
-4.33949e-10
-0.000104856
2.25437e-06
-3.21646e-10
-0.000105331
1.65298e-06
-2.28311e-10
-0.000105716
1.38303e-06
-1.57488e-10
-0.000106079
1.34983e-06
-1.07024e-10
-0.000106464
1.48116e-06
-7.29517e-11
-0.000106898
1.71108e-06
-5.1075e-11
-0.000107381
1.96269e-06
-3.75823e-11
-0.000107886
2.13056e-06
-2.88813e-11
-0.000108341
2.06385e-06
-1.93204e-11
-0.000108609
1.55348e-06
5.27435e-12
-0.000108465
3.29893e-07
6.05788e-11
-0.000107572
-1.91335e-06
1.29679e-10
-0.000105471
-5.45918e-06
2.60039e-10
-0.000101618
-1.04436e-05
5.09691e-10
-1.66675e-05
4.50151e-10
-9.54953e-05
-0.000107322
2.06875e-05
-1.0365e-09
-0.000110576
1.42468e-05
-1.16286e-09
-0.000112464
9.41134e-06
-9.43644e-10
-0.000113529
6.07658e-06
-7.38587e-10
-0.000114129
3.91795e-06
-5.20662e-10
-0.000114479
2.60502e-06
-3.42759e-10
-0.000114703
1.87703e-06
-2.19291e-10
-0.00011487
1.55087e-06
-1.3945e-10
-0.000115023
1.50283e-06
-9.1359e-11
-0.000115187
1.64458e-06
-6.57484e-11
-0.000115375
1.8998e-06
-5.6158e-11
-0.000115594
2.1816e-06
-5.83125e-11
-0.000115833
2.36985e-06
-6.90725e-11
-0.000116057
2.28775e-06
-8.21596e-11
-0.000116183
1.67926e-06
-7.30973e-11
-0.000116045
1.92449e-07
-7.40272e-12
-0.000115351
-2.6076e-06
6.2249e-11
-0.000113622
-7.18865e-06
2.56197e-10
-0.000110173
-1.38939e-05
8.97976e-10
-2.26419e-05
1.28939e-09
-0.0001042
-0.000112389
2.49583e-05
-2.21041e-09
-0.000114338
1.61974e-05
-1.88946e-09
-0.000115058
1.01327e-05
-1.18638e-09
-0.000115223
6.24244e-06
-7.95087e-10
-0.000115176
3.8711e-06
-4.68239e-10
-0.000115066
2.49531e-06
-2.47402e-10
-0.000114947
1.75826e-06
-1.22776e-10
-0.000114831
1.43563e-06
-5.66049e-11
-0.000114718
1.38949e-06
-2.42749e-11
-0.000114603
1.52976e-06
-1.19127e-11
-0.000114488
1.78429e-06
-1.26478e-11
-0.00011438
2.07347e-06
-2.40478e-11
-0.000114295
2.28505e-06
-4.63012e-11
-0.000114253
2.2458e-06
-7.85133e-11
-0.000114261
1.68778e-06
-9.77213e-11
-0.000114277
2.0809e-07
-5.91356e-11
-0.000114131
-2.75345e-06
-3.22494e-11
-0.000113407
-7.9127e-06
1.41149e-10
-0.000111291
-1.60112e-05
1.5464e-09
-2.74215e-05
3.27703e-09
-0.000106515
-0.000109879
2.71355e-05
-5.87679e-09
-0.000109668
1.59899e-05
-3.88698e-09
-0.000108731
9.19767e-06
-1.80012e-09
-0.000107774
5.28674e-06
-9.38947e-10
-0.000107005
3.10187e-06
-3.99366e-10
-0.000106428
1.91825e-06
-1.23893e-10
-0.000105986
1.31667e-06
-1.55141e-11
-0.000105616
1.06605e-06
2.01342e-11
-0.000105267
1.03979e-06
2.45704e-11
-0.000104901
1.16409e-06
1.46753e-11
-0.000104502
1.38565e-06
-3.84656e-12
-0.000104077
1.64814e-06
-3.04346e-11
-0.000103662
1.86958e-06
-6.64288e-11
-0.00010333
1.9146e-06
-1.15139e-10
-0.000103196
1.55406e-06
-1.52021e-10
-0.00010339
4.01624e-07
-7.74632e-11
-0.000103974
-2.16967e-06
9.31874e-11
-0.000104761
-7.12545e-06
4.67408e-10
-0.000104952
-1.58246e-05
3.74125e-09
-2.97587e-05
9.00669e-09
-0.000102624
-9.84255e-05
2.57389e-05
-9.97981e-09
-9.52481e-05
1.28166e-05
-4.06353e-09
-9.24803e-05
6.43063e-06
-8.28323e-10
-9.05138e-05
3.32058e-06
-3.14313e-10
-8.92081e-05
1.79611e-06
4.06162e-11
-8.83413e-05
1.05127e-06
1.65449e-10
-8.77275e-05
7.02693e-07
1.56643e-10
-8.72325e-05
5.70914e-07
1.28972e-10
-8.6764e-05
5.71217e-07
1.06982e-10
-8.62611e-05
6.61106e-07
9.15578e-11
-8.56897e-05
8.14206e-07
7.88999e-11
-8.50461e-05
1.00443e-06
6.29904e-11
-8.43684e-05
1.19185e-06
3.43978e-11
-8.37572e-05
1.30348e-06
-3.32434e-11
-8.34027e-05
1.19963e-06
-1.32036e-10
-8.36066e-05
6.05561e-07
-4.24473e-11
-8.47463e-05
-1.03001e-06
1.24994e-10
-8.71378e-05
-4.73355e-06
-4.64009e-10
-9.04477e-05
-1.2518e-05
3.30525e-09
-2.80078e-05
1.43847e-08
-9.22129e-05
-7.51641e-05
1.81764e-05
-1.2465e-08
-6.88382e-05
6.48515e-06
5.52476e-09
-6.49424e-05
2.52872e-06
6.19287e-09
-6.26966e-05
1.07211e-06
2.64964e-09
-6.14017e-05
4.998e-07
1.37298e-09
-6.06195e-05
2.68261e-07
8.3454e-10
-6.00944e-05
1.77019e-07
5.26083e-10
-5.96753e-05
1.51425e-07
3.99656e-10
-5.92682e-05
1.63789e-07
3.84623e-10
-5.88112e-05
2.03625e-07
4.32941e-10
-5.82639e-05
2.66412e-07
5.19418e-10
-5.76086e-05
3.48497e-07
6.22191e-10
-5.68606e-05
4.43206e-07
7.02987e-10
-5.60926e-05
5.34777e-07
6.63516e-10
-5.54781e-05
5.84743e-07
3.7823e-10
-5.53763e-05
5.0387e-07
-8.7113e-11
-5.63721e-05
-3.25949e-08
-1.66466e-09
-5.95103e-05
-1.58764e-06
-7.69803e-09
-6.58861e-05
-6.13172e-06
-1.04607e-08
-1.94168e-05
1.55321e-08
-7.44927e-05
-3.41439e-05
-6.92142e-08
-2.76469e-05
-1.18067e-08
-2.51173e-05
-8.63857e-10
-2.40433e-05
-1.89669e-09
-2.35423e-05
-1.23348e-09
-2.32734e-05
-5.81009e-10
-2.30961e-05
-3.29855e-10
-2.29444e-05
-2.34661e-10
-2.27804e-05
-2.08558e-10
-2.25766e-05
-2.29623e-10
-2.23099e-05
-2.84044e-10
-2.1961e-05
-3.5832e-10
-2.15174e-05
-4.33274e-10
-2.09821e-05
-4.75163e-10
-2.0397e-05
-3.67433e-10
-1.98934e-05
2.06748e-10
-1.99267e-05
7.71954e-10
-2.15118e-05
-2.56468e-09
-2.76486e-05
5.07834e-09
8.76475e-08
-4.7153e-05
-1.98126e-05
1.43897e-06
-7.77606e-13
-2.08691e-05
1.05796e-06
-6.2064e-13
-2.16081e-05
7.40033e-07
-4.98952e-13
-2.2107e-05
4.9957e-07
-4.07884e-13
-2.24393e-05
3.32736e-07
-3.43809e-13
-2.26665e-05
2.27364e-07
-2.98145e-13
-2.28363e-05
1.70008e-07
-2.59425e-13
-2.29855e-05
1.49373e-07
-2.21879e-13
-2.31424e-05
1.5702e-07
-1.79666e-13
-2.33287e-05
1.86518e-07
-1.29247e-13
-2.35603e-05
2.3183e-07
-7.41139e-14
-2.38453e-05
2.85304e-07
-2.65889e-14
-2.41803e-05
3.35467e-07
1.5072e-14
-2.45447e-05
3.64893e-07
3.24052e-14
-2.48929e-05
3.48716e-07
4.28919e-14
-2.51473e-05
2.54864e-07
3.95646e-14
-2.51954e-05
4.84642e-08
2.94157e-14
-2.48926e-05
-3.02837e-07
1.39533e-14
-2.40857e-05
-8.07579e-07
-3.10818e-15
-1.44015e-06
-2.01689e-14
-2.26471e-05
-5.1715e-05
4.98524e-06
-8.71903e-13
-5.43408e-05
3.68212e-06
-6.99482e-13
-5.61986e-05
2.59654e-06
-5.68649e-13
-5.74731e-05
1.77306e-06
-4.71408e-13
-5.83381e-05
1.19707e-06
-4.01573e-13
-5.89387e-05
8.27328e-07
-3.47215e-13
-5.93875e-05
6.18455e-07
-2.93374e-13
-5.97701e-05
5.31571e-07
-2.4075e-13
-6.01499e-05
5.36426e-07
-1.85991e-13
-6.05725e-05
6.08764e-07
-1.27805e-13
-6.10665e-05
7.25318e-07
-6.86621e-14
-6.16393e-05
8.57694e-07
-1.90768e-14
-6.22702e-05
9.65881e-07
1.49504e-14
-6.28981e-05
9.92357e-07
2.8233e-14
-6.34083e-05
8.58573e-07
2.29711e-14
-6.36204e-05
4.67025e-07
5.76811e-15
-6.32852e-05
-2.86343e-07
-1.21067e-14
-6.2101e-05
-1.48588e-06
-3.33982e-14
-5.97545e-05
-3.15215e-06
-5.34433e-14
-5.19138e-06
-6.71644e-14
-5.60006e-05
-7.68066e-05
9.88205e-06
-8.72968e-13
-8.03488e-05
7.22393e-06
-7.0589e-13
-8.28028e-05
5.05001e-06
-5.80554e-13
-8.44569e-05
3.42674e-06
-4.85192e-13
-8.55642e-05
2.30398e-06
-4.16051e-13
-8.63236e-05
1.5865e-06
-3.60815e-13
-8.68832e-05
1.17779e-06
-2.97476e-13
-8.735e-05
9.98167e-07
-2.36813e-13
-8.78004e-05
9.86718e-07
-1.76864e-13
-8.82868e-05
1.09502e-06
-1.16055e-13
-8.88388e-05
1.27726e-06
-5.63293e-14
-8.94601e-05
1.47887e-06
-1.02431e-14
-9.01189e-05
1.62464e-06
1.31341e-14
-9.07345e-05
1.60798e-06
1.35834e-14
-9.11601e-05
1.28418e-06
-2.08517e-15
-9.1166e-05
4.73071e-07
-2.49292e-14
-9.0432e-05
-1.02011e-06
-4.80518e-14
-8.85604e-05
-3.35715e-06
-7.03956e-14
-8.51252e-05
-6.58678e-06
-8.38476e-14
-1.05408e-05
-8.84644e-14
-7.97754e-05
-9.53584e-05
1.53725e-05
-8.58045e-13
-9.91225e-05
1.09874e-05
-6.98394e-13
-0.000101593
7.51941e-06
-5.8026e-13
-0.000103175
5.0088e-06
-4.82962e-13
-0.000104188
3.31605e-06
-4.13835e-13
-0.000104855
2.25368e-06
-3.65262e-13
-0.00010533
1.65267e-06
-2.9779e-13
-0.000105715
1.38291e-06
-2.31424e-13
-0.000106078
1.34977e-06
-1.71223e-13
-0.000106464
1.48106e-06
-1.17437e-13
-0.000106898
1.71084e-06
-6.63943e-14
-0.000107381
1.96223e-06
-2.85244e-14
-0.000107887
2.12977e-06
-1.24509e-14
-0.000108341
2.06269e-06
-1.59166e-14
-0.000108609
1.55202e-06
-3.13477e-14
-0.000108465
3.28515e-07
-5.01088e-14
-0.00010757
-1.91437e-06
-6.79987e-14
-0.000105469
-5.45846e-06
-8.00727e-14
-0.000101616
-1.04391e-05
-8.52715e-14
-1.66613e-05
-8.35892e-14
-9.54947e-05
-0.000107321
2.06789e-05
-8.27991e-13
-0.000110573
1.4238e-05
-6.79276e-13
-0.000112461
9.40591e-06
-5.78219e-13
-0.000113526
6.07338e-06
-4.74565e-13
-0.000114127
3.91627e-06
-3.92771e-13
-0.000114478
2.60427e-06
-3.52073e-13
-0.000114702
1.87676e-06
-2.81755e-13
-0.00011487
1.55082e-06
-2.15111e-13
-0.000115023
1.50283e-06
-1.58643e-13
-0.000115187
1.64453e-06
-1.14434e-13
-0.000115375
1.8996e-06
-7.61366e-14
-0.000115594
2.18114e-06
-4.78962e-14
-0.000115834
2.369e-06
-3.68475e-14
-0.000116057
2.28641e-06
-4.19026e-14
-0.000116183
1.67743e-06
-5.61996e-14
-0.000116045
1.90775e-07
-7.24064e-14
-0.00011535
-2.60943e-06
-8.50367e-14
-0.00011362
-7.18849e-06
-8.94548e-14
-0.000110171
-1.38872e-05
-8.83208e-14
-2.26308e-05
-7.93155e-14
-0.0001042
-0.000112386
2.4938e-05
-7.94566e-13
-0.000114332
1.61821e-05
-6.51615e-13
-0.000115053
1.01258e-05
-5.87355e-13
-0.00011522
6.23917e-06
-4.93313e-13
-0.000115174
3.86975e-06
-4.04827e-13
-0.000115064
2.49492e-06
-3.70205e-13
-0.000114946
1.75825e-06
-2.95315e-13
-0.000114831
1.43574e-06
-2.21303e-13
-0.000114718
1.38959e-06
-1.62405e-13
-0.000114603
1.52978e-06
-1.21735e-13
-0.000114488
1.78416e-06
-9.21027e-14
-0.00011438
2.07308e-06
-7.14368e-14
-0.000114295
2.28426e-06
-6.32376e-14
-0.000114253
2.24444e-06
-6.67815e-14
-0.000114261
1.68572e-06
-7.72119e-14
-0.000114277
2.0604e-07
-8.75453e-14
-0.00011413
-2.75648e-06
-8.9437e-14
-0.000113404
-7.91407e-06
-8.11076e-14
-0.000111289
-1.60011e-05
-6.4623e-14
-2.73985e-05
-4.84888e-14
-0.000106518
-0.000109872
2.70876e-05
-7.53132e-13
-0.000109658
1.59639e-05
-5.7402e-13
-0.000108724
9.19069e-06
-5.25402e-13
-0.000107771
5.28481e-06
-4.53013e-13
-0.000107003
3.10159e-06
-3.53244e-13
-0.000106427
1.91853e-06
-3.45517e-13
-0.000105986
1.31699e-06
-2.97019e-13
-0.000105616
1.06629e-06
-2.32221e-13
-0.000105267
1.03994e-06
-1.77825e-13
-0.000104901
1.16412e-06
-1.40632e-13
-0.000104502
1.38553e-06
-1.15701e-13
-0.000104077
1.64777e-06
-9.96195e-14
-0.000103662
1.86883e-06
-9.17957e-14
-0.000103331
1.91323e-06
-9.1027e-14
-0.000103197
1.55185e-06
-9.43987e-14
-0.00010339
3.98947e-07
-8.9466e-14
-0.000103972
-2.1738e-06
-6.54407e-14
-0.000104757
-7.12865e-06
-2.87733e-14
-0.000104948
-1.58072e-05
6.83244e-16
-2.97037e-05
7.5881e-15
-0.000102633
-9.84111e-05
2.56477e-05
-7.30587e-13
-9.52378e-05
1.27866e-05
-5.30956e-13
-9.24769e-05
6.42903e-06
-4.90545e-13
-9.05137e-05
3.32127e-06
-4.42117e-13
-8.92088e-05
1.79674e-06
-3.33242e-13
-8.83419e-05
1.05182e-06
-3.13377e-13
-8.77278e-05
7.03044e-07
-2.80886e-13
-8.72325e-05
5.71105e-07
-2.33872e-13
-8.67638e-05
5.7131e-07
-1.91709e-13
-8.62607e-05
6.61125e-07
-1.61681e-13
-8.56892e-05
8.14144e-07
-1.4083e-13
-8.50457e-05
1.00426e-06
-1.25919e-13
-8.43683e-05
1.19147e-06
-1.17931e-13
-8.37578e-05
1.30271e-06
-1.13398e-13
-8.34042e-05
1.19815e-06
-1.04064e-13
-8.36086e-05
6.03339e-07
-6.95045e-14
-8.47501e-05
-1.0322e-06
-1.4826e-14
-8.71406e-05
-4.73862e-06
5.51761e-14
-9.04455e-05
-1.2499e-05
7.2678e-14
-2.79061e-05
4.57535e-14
-9.22288e-05
-7.51455e-05
1.80958e-05
-7.21718e-13
-6.88458e-05
6.49237e-06
-5.68416e-13
-6.49513e-05
2.5407e-06
-4.41636e-13
-6.27032e-05
1.07576e-06
-4.34388e-13
-6.14056e-05
5.0052e-07
-3.5603e-13
-6.06214e-05
2.68506e-07
-3.20105e-13
-6.00951e-05
1.77222e-07
-2.83535e-13
-5.96752e-05
1.51678e-07
-2.43165e-13
-5.92677e-05
1.64148e-07
-2.10031e-13
-5.88103e-05
2.04145e-07
-1.86304e-13
-5.82628e-05
2.67157e-07
-1.68226e-13
-5.76074e-05
3.49546e-07
-1.53787e-13
-5.68599e-05
4.44652e-07
-1.43936e-13
-5.60933e-05
5.36739e-07
-1.32286e-13
-5.54819e-05
5.87176e-07
-1.05146e-13
-5.53828e-05
5.04117e-07
-2.88517e-14
-5.63873e-05
-2.93328e-08
6.11709e-14
-5.9537e-05
-1.59667e-06
1.50928e-13
-6.59023e-05
-6.14409e-06
1.51771e-13
-1.93527e-05
1.39072e-13
-7.44402e-05
-3.41338e-05
-6.83139e-13
-2.76532e-05
-5.31022e-13
-2.51134e-05
-3.51162e-13
-2.40395e-05
-3.18968e-13
-2.35402e-05
-2.93737e-13
-2.32723e-05
-2.83446e-13
-2.30954e-05
-2.63877e-13
-2.2944e-05
-2.36455e-13
-2.278e-05
-2.1191e-13
-2.25761e-05
-1.92537e-13
-2.23093e-05
-1.76179e-13
-2.19601e-05
-1.6285e-13
-2.15158e-05
-1.4966e-13
-2.09796e-05
-1.29052e-13
-2.03928e-05
-7.93739e-14
-1.98884e-05
9.66144e-15
-1.9917e-05
1.28966e-13
-2.15162e-05
2.07435e-13
-2.76553e-05
1.70798e-13
6.75106e-14
-4.69203e-05
-1.98126e-05
1.43897e-06
-2.17666e-09
-2.08691e-05
1.05796e-06
-1.5248e-09
-2.16081e-05
7.40033e-07
-1.01131e-09
-2.2107e-05
4.9957e-07
-6.40159e-10
-2.24393e-05
3.32736e-07
-3.94434e-10
-2.26665e-05
2.27364e-07
-2.46419e-10
-2.28363e-05
1.70008e-07
-1.69498e-10
-2.29855e-05
1.49373e-07
-1.43485e-10
-2.31424e-05
1.5702e-07
-1.54692e-10
-2.33287e-05
1.86518e-07
-1.94411e-10
-2.35603e-05
2.3183e-07
-2.56512e-10
-2.38453e-05
2.85304e-07
-3.34524e-10
-2.41803e-05
3.35467e-07
-4.1862e-10
-2.45447e-05
3.64893e-07
-4.92514e-10
-2.48929e-05
3.48716e-07
-5.29221e-10
-2.51473e-05
2.54864e-07
-4.85148e-10
-2.51954e-05
4.84642e-08
-3.05724e-10
-2.48926e-05
-3.02837e-07
4.29647e-11
-2.40857e-05
-8.07579e-07
6.56461e-10
-1.44015e-06
1.58035e-09
-2.26471e-05
-5.1715e-05
4.98524e-06
1.94214e-09
-5.43408e-05
3.68212e-06
1.62208e-09
-5.61986e-05
2.59654e-06
1.28408e-09
-5.74731e-05