/*--------------------------------*- C++ -*----------------------------------*\
| =========                 |                                                 |
| \\      /  F ield         | OpenFOAM: The Open Source CFD Toolbox           |
|  \\    /   O peration     | Version:  2.4.0                                 |
|   \\  /    A nd           | Web:      www.OpenFOAM.org                      |
|    \\/     M anipulation  |                                                 |
\*---------------------------------------------------------------------------*/
FoamFile
{
    version     2.0;
    format      ascii;
    class       volVectorField;
    location    "4.7";
    object      U;
}
// * * * * * * * * * * * * * * * * * * * * * * * * * * * * * * * * * * * * * //

dimensions      [0 1 -1 0 0 0 0];

internalField   nonuniform List<vector> 
4800
(
(0.000307228 -0.000311076 -3.26013e-07)
(1.8948e-05 0.000156655 0.000217479)
(-0.00184428 0.000665306 0.000445955)
(-0.00484108 0.00100922 0.000615544)
(-0.00857428 0.00120445 0.000682197)
(-0.0127015 0.00128879 0.000625457)
(-0.0169388 0.00128989 0.000439)
(-0.0210474 0.00122165 0.000123316)
(-0.0248168 0.00109147 -0.000315582)
(-0.0280694 0.000911444 -0.000864779)
(-0.00018232 -2.07207e-05 -0.000217532)
(-0.00248566 0.00239497 5.02822e-06)
(-0.00807771 0.00475219 0.000174573)
(-0.0159693 0.00645258 0.000275975)
(-0.0254142 0.00748989 0.000291065)
(-0.0357315 0.00795716 0.000203865)
(-0.0462787 0.00794124 7.63972e-06)
(-0.0564739 0.00750254 -0.000300023)
(-0.065797 0.00669687 -0.000717847)
(-0.0738208 0.00561427 -0.00123932)
(-0.000780054 0.0019726 -0.000451523)
(-0.00522543 0.00810735 -0.00015743)
(-0.0143307 0.0135718 1.30486e-05)
(-0.0264105 0.01757 9.27521e-05)
(-0.0404593 0.0200596 9.03218e-05)
(-0.0556029 0.0211711 -3.12248e-06)
(-0.0709697 0.0210474 -0.000191905)
(-0.0857332 0.0198124 -0.000479914)
(-0.0991327 0.0176144 -0.000870361)
(-0.110531 0.0147052 -0.00136297)
(-0.00126011 0.00539763 -0.000610554)
(-0.00751415 0.0166394 -0.000229811)
(-0.0195908 0.0259385 -3.52117e-05)
(-0.0350925 0.0326499 4.66421e-05)
(-0.0527724 0.0368053 4.65631e-05)
(-0.0716212 0.038592 -3.829e-05)
(-0.0906105 0.038196 -0.000210533)
(-0.10873 0.0357887 -0.000476678)
(-0.12501 0.0316144 -0.000846247)
(-0.138589 0.0261303 -0.00132772)
(-0.00158969 0.00992196 -0.000619425)
(-0.00915223 0.0273858 -0.000163407)
(-0.0234152 0.0410563 5.69174e-05)
(-0.0414113 0.0507272 0.000151415)
(-0.0616964 0.0566322 0.00016706)
(-0.083165 0.0590522 0.000104554)
(-0.104682 0.0582014 -3.95863e-05)
(-0.125094 0.0542625 -0.000277414)
(-0.14323 0.0475403 -0.000628648)
(-0.157934 0.038699 -0.00111745)
(-0.00176237 0.0151525 -0.000428265)
(-0.01005 0.0396063 8.38709e-05)
(-0.0255533 0.0580275 0.000325569)
(-0.0449668 0.0708225 0.000440079)
(-0.0667231 0.0785232 0.000484044)
(-0.0896634 0.0815369 0.000458989)
(-0.112595 0.0800881 0.00035729)
(-0.134271 0.0743126 0.000157445)
(-0.153335 0.0644873 -0.000176113)
(-0.168212 0.0513982 -0.000698273)
(-0.00177818 0.0206625 -1.29011e-05)
(-0.0101709 0.0524408 0.000533159)
(-0.0258784 0.0757828 0.000788637)
(-0.045517 0.09177 0.000928366)
(-0.0674822 0.10128 0.00101266)
(-0.0906083 0.10487 0.00104179)
(-0.113702 0.102755 0.00100098)
(-0.135498 0.0949501 0.000855379)
(-0.15454 0.0815443 0.000547689)
(-0.168695 0.063175 -3.85997e-05)
(-0.00164395 0.0260224 0.000627172)
(-0.00953044 0.0649923 0.001185)
(-0.0243919 0.0931765 0.00144536)
(-0.0430082 0.112288 0.0016139)
(-0.0638083 0.12355 0.00174974)
(-0.0856465 0.12768 0.00185129)
(-0.107371 0.124887 0.0018952)
(-0.127796 0.114999 0.00183128)
(-0.145599 0.0977096 0.0015798)
(-0.158049 0.0728955 0.000906455)
(-0.00138013 0.0308303 0.00146962)
(-0.00821813 0.0764013 0.00201981)
(-0.0212734 0.109073 0.00227594)
(-0.0376744 0.131049 0.00247443)
(-0.0559107 0.143843 0.00266982)
(-0.0748295 0.148346 0.00286)
(-0.0932861 0.144809 0.00301385)
(-0.110185 0.132919 0.00306514)
(-0.12473 0.111924 0.00292396)
(-0.134028 0.0800964 0.00214941)
(-0.00102648 0.0347584 0.00247178)
(-0.00642084 0.0859448 0.00300044)
(-0.0169386 0.122471 0.00324339)
(-0.0301649 0.1468 0.00346872)
(-0.0446258 0.160618 0.00372518)
(-0.0590464 0.164946 0.00401508)
(-0.0720708 0.160129 0.00430908)
(-0.0823037 0.145849 0.00453707)
(-0.0894548 0.121221 0.00466708)
(-0.0925152 0.0835414 0.00407299)
(0.000312394 -0.000315427 -1.24429e-08)
(2.63328e-05 0.000150835 1.3468e-06)
(-0.00184044 0.000651323 2.01513e-06)
(-0.00483843 0.000989454 2.58836e-06)
(-0.00857277 0.0011815 2.93142e-06)
(-0.012701 0.0012643 3.07365e-06)
(-0.016939 0.00126533 3.08341e-06)
(-0.0210485 0.0011984 2.96285e-06)
(-0.0248191 0.00107064 2.69134e-06)
(-0.0280728 0.000893683 2.25048e-06)
(-0.000174856 -2.78174e-05 -1.1336e-06)
(-0.0024825 0.00239309 3.12589e-07)
(-0.00808519 0.00474099 -1.17425e-06)
(-0.015974 0.00643621 -1.86188e-06)
(-0.0254166 0.00747167 -2.20658e-06)
(-0.0357322 0.00793809 -2.42314e-06)
(-0.0462778 0.0079223 -2.43041e-06)
(-0.0564719 0.00748478 -2.25937e-06)
(-0.065795 0.00668116 -1.98146e-06)
(-0.0738197 0.00560069 -1.7094e-06)
(-0.000763984 0.00196708 -1.95644e-06)
(-0.0052141 0.00811399 1.76142e-06)
(-0.0143376 0.013575 8.01614e-08)
(-0.0264127 0.0175733 -7.46163e-08)
(-0.0404594 0.0200648 9.07363e-08)
(-0.0556028 0.0211773 8.49904e-08)
(-0.0709689 0.0210541 9.45095e-08)
(-0.085732 0.0198192 1.40973e-07)
(-0.0991325 0.0176213 1.94764e-07)
(-0.110533 0.0147109 1.19792e-07)
(-0.00123705 0.00539274 -2.84687e-06)
(-0.00749773 0.0166435 2.4819e-06)
(-0.0196 0.0259376 -1.573e-08)
(-0.0350944 0.0326472 -2.25046e-07)
(-0.0527714 0.036803 6.26012e-08)
(-0.0716204 0.0385902 9.62034e-08)
(-0.0906091 0.0381947 1.28704e-07)
(-0.108729 0.0357884 2.12351e-07)
(-0.12501 0.0316162 3.69315e-07)
(-0.138593 0.0261324 3.25823e-07)
(-0.00156202 0.00991879 -3.48481e-06)
(-0.00913356 0.0273882 2.91794e-06)
(-0.0234278 0.0410543 -3.41788e-07)
(-0.0414144 0.050723 -7.2903e-07)
(-0.0616955 0.0566276 -4.4277e-07)
(-0.0831639 0.0590476 -4.2229e-07)
(-0.104679 0.0581969 -3.77006e-07)
(-0.12509 0.0542593 -2.22721e-07)
(-0.143228 0.0475416 2.31308e-07)
(-0.157941 0.0387025 4.57156e-07)
(-0.0017321 0.0151514 -3.81098e-06)
(-0.0100302 0.0396076 3.22718e-06)
(-0.0255683 0.0580264 -4.4762e-07)
(-0.044971 0.0708201 -9.27418e-07)
(-0.0667225 0.0785201 -6.4461e-07)
(-0.0896625 0.0815333 -6.39533e-07)
(-0.112592 0.0800839 -6.24743e-07)
(-0.134264 0.074309 -5.0299e-07)
(-0.153328 0.0644919 4.0045e-07)
(-0.168226 0.0514102 1.27559e-06)
(-0.00174746 0.0206637 -3.86659e-06)
(-0.0101513 0.052441 3.30473e-06)
(-0.0258944 0.0757827 -4.79884e-07)
(-0.045522 0.0917693 -1.01501e-06)
(-0.0674823 0.101279 -7.74312e-07)
(-0.0906082 0.104868 -8.01954e-07)
(-0.1137 0.102752 -8.87178e-07)
(-0.135485 0.0949454 -1.06214e-06)
(-0.154522 0.0815551 5.26312e-07)
(-0.168724 0.0632136 3.24329e-06)
(-0.00161522 0.0260259 -3.52175e-06)
(-0.00951246 0.0649917 3.18011e-06)
(-0.0244078 0.0931775 -4.37042e-07)
(-0.0430138 0.11229 -9.8614e-07)
(-0.0638091 0.123551 -8.06554e-07)
(-0.0856475 0.12768 -8.19065e-07)
(-0.107371 0.124883 -9.26722e-07)
(-0.127773 0.114983 -1.64075e-06)
(-0.145546 0.0977056 1.55798e-06)
(-0.158096 0.072957 1.12916e-05)
(-0.00135517 0.0308355 -2.92594e-06)
(-0.00820277 0.0764003 2.88584e-06)
(-0.0212879 0.109075 -3.03006e-07)
(-0.0376801 0.131053 -8.25442e-07)
(-0.0559128 0.143847 -7.56379e-07)
(-0.074834 0.148349 -8.17111e-07)
(-0.0932972 0.144806 -1.09509e-06)
(-0.110168 0.132886 -3.82847e-06)
(-0.124624 0.111849 -1.14187e-06)
(-0.134077 0.0800661 2.53487e-05)
(-0.00100652 0.0347645 -2.12148e-06)
(-0.00640848 0.0859435 2.49355e-06)
(-0.01695 0.122475 -5.71314e-08)
(-0.030169 0.146809 -4.71823e-07)
(-0.0446272 0.16063 -4.99182e-07)
(-0.0590532 0.164969 -7.27895e-07)
(-0.0721042 0.160173 -1.54088e-06)
(-0.0823453 0.145914 -9.51829e-06)
(-0.0893649 0.121285 -2.2268e-05)
(-0.0925944 0.0836611 7.65774e-06)
(0.000312437 -0.000315382 -7.94788e-08)
(2.64011e-05 0.000150865 -1.37737e-06)
(-0.0018404 0.000651337 -2.03266e-06)
(-0.0048384 0.00098946 -2.60062e-06)
(-0.00857276 0.00118151 -2.94011e-06)
(-0.012701 0.0012643 -3.08012e-06)
(-0.016939 0.00126533 -3.08839e-06)
(-0.0210485 0.0011984 -2.96677e-06)
(-0.0248191 0.00107064 -2.69447e-06)
(-0.0280728 0.000893683 -2.25298e-06)
(-0.000174826 -2.77487e-05 1.10339e-06)
(-0.00248245 0.00239314 -3.32891e-07)
(-0.00808515 0.00474102 1.15804e-06)
(-0.015974 0.00643622 1.84948e-06)
(-0.0254166 0.00747168 2.1973e-06)
(-0.0357322 0.0079381 2.41606e-06)
(-0.0462778 0.00792231 2.4249e-06)
(-0.0564719 0.00748478 2.25502e-06)
(-0.065795 0.00668116 1.97801e-06)
(-0.0738197 0.00560069 1.70664e-06)
(-0.000763969 0.00196712 1.93931e-06)
(-0.00521407 0.00811403 -1.77728e-06)
(-0.0143376 0.013575 -9.36237e-08)
(-0.0264126 0.0175733 6.38628e-08)
(-0.0404593 0.0200648 -9.92053e-08)
(-0.0556027 0.0211773 -9.16892e-08)
(-0.0709689 0.0210541 -9.98322e-08)
(-0.085732 0.0198192 -1.45234e-07)
(-0.0991325 0.0176213 -1.98184e-07)
(-0.110533 0.0147109 -1.22536e-07)
(-0.00123705 0.00539276 2.83517e-06)
(-0.00749771 0.0166435 -2.49377e-06)
(-0.0195999 0.0259376 5.21852e-09)
(-0.0350944 0.0326472 2.1621e-07)
(-0.0527714 0.0368031 -6.99211e-08)
(-0.0716204 0.0385902 -1.02226e-07)
(-0.0906091 0.0381947 -1.33634e-07)
(-0.108729 0.0357884 -2.16389e-07)
(-0.12501 0.0316162 -3.72612e-07)
(-0.138593 0.0261324 -3.285e-07)
(-0.00156202 0.00991881 3.47664e-06)
(-0.00913355 0.0273882 -2.9266e-06)
(-0.0234278 0.0410544 3.33733e-07)
(-0.0414144 0.050723 7.21917e-07)
(-0.0616955 0.0566276 4.36611e-07)
(-0.0831639 0.0590476 4.1703e-07)
(-0.104679 0.0581969 3.72567e-07)
(-0.12509 0.0542593 2.18992e-07)
(-0.143228 0.0475416 -2.34417e-07)
(-0.157941 0.0387025 -4.59723e-07)
(-0.0017321 0.0151514 3.80505e-06)
(-0.0100302 0.0396076 -3.23361e-06)
(-0.0255683 0.0580265 4.41411e-07)
(-0.044971 0.0708201 9.21704e-07)
(-0.0667225 0.0785201 6.39474e-07)
(-0.0896625 0.0815334 6.35002e-07)
(-0.112592 0.0800839 6.20808e-07)
(-0.134264 0.074309 4.996e-07)
(-0.153328 0.0644919 -4.03342e-07)
(-0.168226 0.0514102 -1.27803e-06)
(-0.00174746 0.0206637 3.86213e-06)
(-0.0101513 0.0524411 -3.30964e-06)
(-0.0258944 0.0757827 4.74987e-07)
(-0.045522 0.0917693 1.01038e-06)
(-0.0674823 0.101279 7.70019e-07)
(-0.0906082 0.104868 7.98062e-07)
(-0.113699 0.102752 8.83715e-07)
(-0.135485 0.0949454 1.05909e-06)
(-0.154522 0.0815551 -5.2896e-07)
(-0.168724 0.0632136 -3.24556e-06)
(-0.00161522 0.0260259 3.51831e-06)
(-0.00951245 0.0649917 -3.18394e-06)
(-0.0244078 0.0931775 4.33103e-07)
(-0.0430138 0.11229 9.8233e-07)
(-0.0638091 0.123551 8.02949e-07)
(-0.0856475 0.12768 8.1573e-07)
(-0.107371 0.124883 9.23703e-07)
(-0.127773 0.114983 1.63807e-06)
(-0.145546 0.0977056 -1.56033e-06)
(-0.158096 0.072957 -1.12936e-05)
(-0.00135517 0.0308355 2.9232e-06)
(-0.00820277 0.0764003 -2.88896e-06)
(-0.0212879 0.109075 2.99761e-07)
(-0.0376801 0.131053 8.22271e-07)
(-0.0559128 0.143847 7.53336e-07)
(-0.074834 0.148349 8.14261e-07)
(-0.0932972 0.144806 1.09249e-06)
(-0.110168 0.132886 3.82615e-06)
(-0.124624 0.111849 1.13983e-06)
(-0.134077 0.0800661 -2.53505e-05)
(-0.00100652 0.0347645 2.11918e-06)
(-0.00640848 0.0859436 -2.49617e-06)
(-0.01695 0.122475 5.44251e-08)
(-0.030169 0.146809 4.69166e-07)
(-0.0446272 0.16063 4.9661e-07)
(-0.0590532 0.164969 7.25477e-07)
(-0.0721042 0.160173 1.53867e-06)
(-0.0823453 0.145914 9.51632e-06)
(-0.0893649 0.121285 2.22662e-05)
(-0.0925944 0.0836611 -7.65937e-06)
(0.000307471 -0.000310831 4.22649e-07)
(1.92953e-05 0.000156773 -0.000217447)
(-0.00184413 0.000665352 -0.000445936)
(-0.00484101 0.00100924 -0.000615531)
(-0.00857424 0.00120446 -0.000682188)
(-0.0127015 0.0012888 -0.00062545)
(-0.0169388 0.00128989 -0.000438995)
(-0.0210474 0.00122165 -0.000123312)
(-0.0248168 0.00109147 0.000315585)
(-0.0280694 0.000911444 0.000864782)
(-0.000182203 -2.03721e-05 0.000217564)
(-0.00248546 0.00239517 -5.00676e-06)
(-0.00807757 0.00475229 -0.000174556)
(-0.0159692 0.00645263 -0.000275962)
(-0.0254142 0.00748991 -0.000291055)
(-0.0357314 0.00795717 -0.000203857)
(-0.0462787 0.00794125 -7.63389e-06)
(-0.0564739 0.00750254 0.000300028)
(-0.065797 0.00669687 0.00071785)
(-0.0738208 0.00561427 0.00123932)
(-0.000780009 0.00197275 0.000451541)
(-0.00522534 0.00810749 0.000157447)
(-0.0143306 0.0135719 -1.30344e-05)
(-0.0264104 0.01757 -9.27407e-05)
(-0.0404592 0.0200597 -9.03128e-05)
(-0.0556029 0.0211711 3.12956e-06)
(-0.0709697 0.0210475 0.000191911)
(-0.0857332 0.0198124 0.000479918)
(-0.0991327 0.0176144 0.000870364)
(-0.110531 0.0147052 0.00136298)
(-0.00126009 0.00539771 0.000610566)
(-0.0075141 0.0166395 0.000229823)
(-0.0195907 0.0259386 3.52228e-05)
(-0.0350924 0.0326499 -4.66328e-05)
(-0.0527724 0.0368053 -4.65554e-05)
(-0.0716211 0.038592 3.82964e-05)
(-0.0906105 0.038196 0.000210538)
(-0.10873 0.0357887 0.000476682)
(-0.12501 0.0316144 0.000846251)
(-0.138589 0.0261303 0.00132773)
(-0.00158968 0.009922 0.000619434)
(-0.0091522 0.0273859 0.000163417)
(-0.0234151 0.0410564 -5.69089e-05)
(-0.0414113 0.0507272 -0.000151407)
(-0.0616964 0.0566322 -0.000167053)
(-0.083165 0.0590523 -0.000104548)
(-0.104682 0.0582014 3.95909e-05)
(-0.125094 0.0542625 0.000277418)
(-0.14323 0.0475403 0.000628652)
(-0.157934 0.038699 0.00111745)
(-0.00176237 0.0151525 0.000428271)
(-0.01005 0.0396063 -8.38642e-05)
(-0.0255533 0.0580275 -0.000325563)
(-0.0449668 0.0708226 -0.000440073)
(-0.066723 0.0785232 -0.000484039)
(-0.0896634 0.0815369 -0.000458984)
(-0.112595 0.0800881 -0.000357286)
(-0.134271 0.0743126 -0.000157442)
(-0.153335 0.0644873 0.000176116)
(-0.168212 0.0513982 0.000698276)
(-0.00177818 0.0206625 1.29058e-05)
(-0.0101709 0.0524408 -0.000533154)
(-0.0258784 0.0757828 -0.000788632)
(-0.0455169 0.09177 -0.000928361)
(-0.0674822 0.10128 -0.00101266)
(-0.0906083 0.10487 -0.00104179)
(-0.113702 0.102755 -0.00100097)
(-0.135498 0.0949501 -0.000855376)
(-0.15454 0.0815443 -0.000547686)
(-0.168695 0.0631751 3.86021e-05)
(-0.00164395 0.0260224 -0.000627168)
(-0.00953044 0.0649923 -0.00118499)
(-0.0243919 0.0931765 -0.00144536)
(-0.0430082 0.112288 -0.0016139)
(-0.0638083 0.12355 -0.00174973)
(-0.0856465 0.12768 -0.00185129)
(-0.107371 0.124887 -0.0018952)
(-0.127796 0.114999 -0.00183127)
(-0.145599 0.0977096 -0.0015798)
(-0.158049 0.0728955 -0.000906453)
(-0.00138013 0.0308303 -0.00146962)
(-0.00821812 0.0764013 -0.00201981)
(-0.0212734 0.109073 -0.00227594)
(-0.0376744 0.131049 -0.00247442)
(-0.0559107 0.143843 -0.00266982)
(-0.0748294 0.148346 -0.00286)
(-0.0932861 0.144809 -0.00301384)
(-0.110185 0.132919 -0.00306514)
(-0.12473 0.111924 -0.00292396)
(-0.134028 0.0800964 -0.00214941)
(-0.00102648 0.0347584 -0.00247177)
(-0.00642084 0.0859448 -0.00300044)
(-0.0169386 0.122471 -0.00324339)
(-0.0301649 0.1468 -0.00346872)
(-0.0446258 0.160618 -0.00372518)
(-0.0590464 0.164946 -0.00401507)
(-0.0720708 0.160129 -0.00430908)
(-0.0823037 0.145849 -0.00453707)
(-0.0894548 0.121221 -0.00466708)
(-0.0925152 0.0835414 -0.00407299)
(-0.0306922 0.000707102 -0.00150356)
(-0.032671 0.000512698 -0.00220642)
(-0.0340818 0.00035121 -0.00295043)
(-0.0350451 0.000230528 -0.0037183)
(-0.0356861 0.000148449 -0.00449857)
(-0.0361143 9.82809e-05 -0.00528457)
(-0.0364169 7.2853e-05 -0.00607311)
(-0.0366607 6.6436e-05 -0.00686345)
(-0.0368969 7.51117e-05 -0.00765669)
(-0.0371651 9.62765e-05 -0.00845558)
(-0.0374958 0.000127698 -0.00926453)
(-0.0379088 0.000166315 -0.0100897)
(-0.0384099 0.000206862 -0.0109393)
(-0.038982 0.00024044 -0.0118228)
(-0.0395744 0.000253304 -0.0127508)
(-0.0400903 0.000226512 -0.0137324)
(-0.0403771 0.000137801 -0.0147731)
(-0.0402244 -3.25579e-05 -0.0158705)
(-0.0393836 -0.000296497 -0.0170086)
(-0.0376152 -0.000642057 -0.0181551)
(-0.0802859 0.0044072 -0.00185072)
(-0.0851776 0.00326102 -0.00253222)
(-0.088694 0.00229913 -0.00326532)
(-0.091128 0.00156618 -0.00403466)
(-0.0927773 0.00105295 -0.00482845)
(-0.0939001 0.000724795 -0.00563842)
(-0.0947019 0.000542302 -0.00645938)
(-0.0953388 0.000471509 -0.00728869)
(-0.0959281 0.000486282 -0.00812583)
(-0.0965561 0.000566089 -0.00897213)
(-0.0972827 0.000691389 -0.00983063)
(-0.0981389 0.000837821 -0.010706)
(-0.0991179 0.000969882 -0.0116043)
(-0.100159 0.001035 -0.0125325)
(-0.101127 0.000959705 -0.0134979)
(-0.101789 0.000651023 -0.0145063)
(-0.101798 7.96399e-06 -0.0155601)
(-0.100704 -0.00105229 -0.0166545)
(-0.097989 -0.00255611 -0.0177757)
(-0.0931706 -0.00441988 -0.0188961)
(-0.119545 0.0114989 -0.00194859)
(-0.126207 0.00848995 -0.00260702)
(-0.130888 0.0059889 -0.00332076)
(-0.134065 0.00409422 -0.0040751)
(-0.136186 0.00276876 -0.00485804)
(-0.137613 0.00191579 -0.00566075)
(-0.13862 0.00142999 -0.00647724)
(-0.139406 0.00122131 -0.00730404)
(-0.140116 0.00121935 -0.00813971)
(-0.140849 0.00136732 -0.00898461)
(-0.141674 0.00161074 -0.00984068)
(-0.142618 0.00188383 -0.0107112)
(-0.143663 0.00209521 -0.0116008)
(-0.144727 0.00211506 -0.0125147)
(-0.145633 0.00176775 -0.0134587)
(-0.146087 0.000836703 -0.0144379)
(-0.145647 -0.000908002 -0.015455)
(-0.143727 -0.00365088 -0.0165085)
(-0.139639 -0.00743499 -0.017589)
(-0.132704 -0.0120469 -0.0186756)
(-0.148933 0.0201374 -0.00191582)
(-0.156178 0.0146333 -0.00258063)
(-0.160991 0.010172 -0.00330159)
(-0.164089 0.00686903 -0.00406287)
(-0.166061 0.0046002 -0.00485168)
(-0.167334 0.00315674 -0.00565895)
(-0.1682 0.00233433 -0.0064787)
(-0.168856 0.00196764 -0.00730734)
(-0.169433 0.00193185 -0.00814314)
(-0.17002 0.00212875 -0.00898588)
(-0.17067 0.00246635 -0.00983657)
(-0.171409 0.00283608 -0.0106973)
(-0.172218 0.00308924 -0.0115712)
(-0.173027 0.00301551 -0.0124624)
(-0.173675 0.0023287 -0.0133758)
(-0.173885 0.000670379 -0.0143172)
(-0.173211 -0.0023513 -0.0152924)
(-0.171017 -0.00706976 -0.0163054)
(-0.166472 -0.0135997 -0.0173559)
(-0.158644 -0.0216189 -0.0184338)
(-0.168404 0.0290775 -0.00174504)
(-0.174977 0.0205271 -0.00245175)
(-0.178835 0.0138779 -0.00320963)
(-0.181025 0.00914283 -0.00400108)
(-0.182252 0.00599551 -0.00481264)
(-0.182951 0.00404204 -0.00563608)
(-0.183376 0.00294412 -0.00646664)
(-0.18367 0.00244988 -0.00730164)
(-0.183915 0.0023809 -0.00813978)
(-0.18416 0.00260429 -0.00898064)
(-0.184438 0.00300107 -0.00982444)
(-0.184765 0.00343391 -0.010672)
(-0.185141 0.00371435 -0.0115249)
(-0.185534 0.00357074 -0.0123857)
(-0.185861 0.00262146 -0.0132586)
(-0.185941 0.000365242 -0.0141501)
(-0.185427 -0.00378707 -0.0150701)
(-0.183721 -0.0104021 -0.0160313)
(-0.179887 -0.019802 -0.0170468)
(-0.17262 -0.0316888 -0.0181271)
(-0.177541 0.0370895 -0.00142907)
(-0.182033 0.0249959 -0.00222792)
(-0.183819 0.0161708 -0.00305775)
(-0.184347 0.0102462 -0.00390301)
(-0.184359 0.00650065 -0.00475221)
(-0.184201 0.00426564 -0.00560078)
(-0.184009 0.00304349 -0.00644735)
(-0.183821 0.00250017 -0.00729159)
(-0.183639 0.00241865 -0.00813341)
(-0.183458 0.00264967 -0.00897263)
(-0.183272 0.00306819 -0.00980882)
(-0.183088 0.00353369 -0.0106414)
(-0.182927 0.00385041 -0.01147)
(-0.18282 0.00372475 -0.0122951)
(-0.1828 0.00272035 -0.013119)
(-0.182859 0.000218105 -0.0139486)
(-0.182865 -0.00459259 -0.0147974)
(-0.182411 -0.0126268 -0.0156878)
(-0.180578 -0.0246614 -0.0166517)
(-0.175559 -0.0407588 -0.0177393)
(-0.175392 0.0426733 -0.000988357)
(-0.176146 0.0267045 -0.00194834)
(-0.174793 0.0161467 -0.00288517)
(-0.173144 0.00965278 -0.0038011)
(-0.171742 0.00583681 -0.0046943)
(-0.170682 0.00368857 -0.00556949)
(-0.169892 0.00256438 -0.00643178)
(-0.169266 0.0020823 -0.00728456)
(-0.168707 0.0020195 -0.00812955)
(-0.168145 0.00223795 -0.00896692)
(-0.167535 0.0026323 -0.00979557)
(-0.166868 0.00308837 -0.0106133)
(-0.166174 0.00344266 -0.0114173)
(-0.165541 0.0034345 -0.012205)
(-0.165123 0.00264335 -0.0129757)
(-0.165133 0.000405367 -0.0137335)
(-0.165768 -0.0042769 -0.0144944)
(-0.167047 -0.0127533 -0.0152888)
(-0.168404 -0.0266075 -0.0161711)
(-0.167583 -0.0469866 -0.0172644)
(-0.15996 0.0436548 -0.000480713)
(-0.155028 0.0240501 -0.00168605)
(-0.149871 0.0130547 -0.00275212)
(-0.146107 0.00714633 -0.00373894)
(-0.143576 0.00403055 -0.00466751)
(-0.141916 0.00242115 -0.00555984)
(-0.14079 0.00163408 -0.00643056)
(-0.139944 0.00131955 -0.00728718)
(-0.1392 0.00129924 -0.00813287)
(-0.138441 0.0014767 -0.00896782)
(-0.137588 0.00178744 -0.0097899)
(-0.136609 0.00216546 -0.0105951)
(-0.135527 0.00251209 -0.0113777)
(-0.134442 0.0026553 -0.0121313)
(-0.13358 0.00228411 -0.0128501)
(-0.133335 0.000832714 -0.0135331)
(-0.134263 -0.00271057 -0.0141953)
(-0.137056 -0.0100317 -0.01487)
(-0.1422 -0.0238353 -0.0156276)
(-0.147756 -0.0477833 -0.0167038)
(-0.126814 0.0375113 -0.000197532)
(-0.114474 0.016122 -0.00167537)
(-0.106251 0.00713049 -0.00278964)
(-0.101655 0.0033176 -0.00378411)
(-0.0990324 0.00165325 -0.0047054)
(-0.0974864 0.000917388 -0.00558824)
(-0.0965093 0.000602142 -0.00645217)
(-0.0957962 0.000497368 -0.0073048)
(-0.0951625 0.000516119 -0.00814818)
(-0.0944891 0.000621012 -0.00898113)
(-0.0936956 0.000792831 -0.00979986)
(-0.0927333 0.0010144 -0.0105981)
(-0.0915941 0.0012572 -0.0113668)
(-0.0903362 0.00146164 -0.0120948)
(-0.0891407 0.00149649 -0.0127685)
(-0.0884018 0.00106675 -0.0133767)
(-0.0888071 -0.000509522 -0.0139274)
(-0.0916719 -0.00485507 -0.014426)
(-0.0994845 -0.0155431 -0.0149167)
(-0.113336 -0.0406085 -0.0157959)
(-0.0645335 0.0229823 -0.000849035)
(-0.0481493 0.00662799 -0.00231973)
(-0.0414315 0.00202202 -0.00307387)
(-0.0389949 0.000650281 -0.00382244)
(-0.0379362 0.000224356 -0.00458731)
(-0.0373951 9.37832e-05 -0.00536503)
(-0.0370722 5.87079e-05 -0.00615336)
(-0.0368276 5.80258e-05 -0.00694712)
(-0.0365868 7.47544e-05 -0.0077413)
(-0.036301 0.000105535 -0.00853085)
(-0.0359308 0.000151138 -0.00930954)
(-0.0354418 0.000213463 -0.0100687)
(-0.0348062 0.000293929 -0.0107961)
(-0.0340105 0.00039018 -0.011474)
(-0.0330777 0.000485703 -0.0120768)
(-0.032119 0.000518002 -0.0125689)
(-0.0314784 0.000262068 -0.0129026)
(-0.0321203 -0.00113997 -0.0130412)
(-0.037742 -0.00642029 -0.0128637)
(-0.0564724 -0.0257281 -0.0130028)
(-0.0306959 0.000692545 1.69407e-06)
(-0.0326741 0.000501405 1.18658e-06)
(-0.0340841 0.000342863 7.86809e-07)
(-0.0350466 0.000224566 4.97858e-07)
(-0.035687 0.000144261 3.06563e-07)
(-0.0361147 9.53044e-05 1.9135e-07)
(-0.036417 7.06073e-05 1.31503e-07)
(-0.0366606 6.45337e-05 1.1131e-07)
(-0.0368967 7.32502e-05 1.20119e-07)
(-0.0371648 9.42287e-05 1.51152e-07)
(-0.0374953 0.000125313 1.99627e-07)
(-0.0379083 0.000163533 2.60481e-07)
(-0.0384093 0.000203754 3.26056e-07)
(-0.0389814 0.000237258 3.8367e-07)
(-0.039574 0.000250545 4.123e-07)
(-0.0400903 0.000224975 3.77983e-07)
(-0.0403779 0.000138558 2.38214e-07)
(-0.0402264 -2.83113e-05 -3.34146e-08)
(-0.0393875 -0.000287495 -5.11316e-07)
(-0.0376207 -0.000627555 -1.231e-06)
(-0.080285 0.00439516 -1.51214e-06)
(-0.0851761 0.00325114 -1.2629e-06)
(-0.0886922 0.00229158 -9.99783e-07)
(-0.0911262 0.00156066 -7.64963e-07)
(-0.0927756 0.00104903 -5.73368e-07)
(-0.0938988 0.000722038 -4.32483e-07)
(-0.094701 0.000540305 -3.4202e-07)
(-0.0953384 0.000469934 -2.96231e-07)
(-0.095928 0.000484862 -2.87018e-07)
(-0.0965561 0.000564615 -3.04895e-07)
(-0.0972827 0.000689707 -3.3828e-07)
(-0.0981387 0.000835837 -3.71869e-07)
(-0.0991173 0.000967589 -3.84803e-07)
(-0.100158 0.00103252 -3.49416e-07)
(-0.101125 0.00095736 -2.31648e-07)
(-0.101785 0.000649385 4.17985e-09)
(-0.101794 7.85045e-06 3.81374e-07)
(-0.100699 -0.00104988 8.91407e-07)
(-0.0979846 -0.00255011 1.50241e-06)
(-0.0931681 -0.00441021 2.07719e-06)
(-0.119548 0.0115009 -1.86691e-07)
(-0.126208 0.00849035 -3.25114e-07)
(-0.130887 0.00598887 -3.56971e-07)
(-0.134064 0.00409411 -3.39858e-07)
(-0.136185 0.00276876 -2.90926e-07)
(-0.137612 0.00191596 -2.32815e-07)
(-0.138619 0.00143034 -1.80021e-07)
(-0.139405 0.00122184 -1.38153e-07)
(-0.140115 0.00122007 -1.0795e-07)
(-0.140849 0.00136823 -8.74457e-08)
(-0.141673 0.00161181 -7.31551e-08)
(-0.142617 0.00188497 -6.06564e-08)
(-0.143663 0.00209628 -4.46795e-08)
(-0.144726 0.00211586 -1.86861e-08)
(-0.145632 0.00176801 2.60467e-08)
(-0.146085 0.000836162 9.68585e-08)
(-0.145644 -0.000909606 1.89741e-07)
(-0.143725 -0.0036535 2.98583e-07)
(-0.139638 -0.00743849 4.10767e-07)
(-0.132707 -0.0120528 3.49487e-07)
(-0.148938 0.0201339 -2.97185e-07)
(-0.156179 0.0146294 -4.78786e-07)
(-0.16099 0.0101695 -4.76169e-07)
(-0.164088 0.00686762 -4.23805e-07)
(-0.166059 0.00459966 -3.37817e-07)
(-0.167332 0.00315675 -2.50433e-07)
(-0.168199 0.00233463 -1.77793e-07)
(-0.168855 0.00196807 -1.2266e-07)
(-0.169433 0.00193234 -8.33665e-08)
(-0.170019 0.00212925 -5.68247e-08)
(-0.17067 0.00246681 -3.97698e-08)
(-0.171408 0.00283644 -2.92468e-08)
(-0.172218 0.0030894 -2.24684e-08)
(-0.173026 0.00301538 -1.50364e-08)
(-0.173674 0.00232824 4.07954e-09)
(-0.173883 0.00066966 4.70778e-08)
(-0.173209 -0.0023521 1.00808e-07)
(-0.171014 -0.00706976 2.0219e-07)
(-0.166471 -0.0135974 3.96359e-07)
(-0.15865 -0.0216161 3.50052e-07)
(-0.168413 0.0290686 -8.0675e-07)
(-0.174976 0.0205196 -9.04925e-07)
(-0.178832 0.0138742 -7.34352e-07)
(-0.181022 0.00914148 -5.74787e-07)
(-0.182249 0.00599547 -4.05245e-07)
(-0.182949 0.00404262 -2.66844e-07)
(-0.183375 0.00294486 -1.70764e-07)
(-0.183669 0.00245058 -1.08618e-07)
(-0.183914 0.00238151 -7.11737e-08)
(-0.18416 0.00260477 -5.12211e-08)
(-0.184438 0.00300142 -4.37316e-08)
(-0.184765 0.00343409 -4.53854e-08)
(-0.18514 0.00371433 -5.37465e-08)
(-0.185533 0.00357045 -6.39306e-08)
(-0.18586 0.00262093 -5.68949e-08)
(-0.185939 0.00036471 -5.81304e-09)
(-0.185424 -0.00378712 4.83503e-08)
(-0.183715 -0.0103999 1.99194e-07)
(-0.179884 -0.0197933 6.98356e-07)
(-0.17263 -0.0316758 1.0028e-06)
(-0.177557 0.0370716 -1.71976e-06)
(-0.182029 0.0249838 -1.47005e-06)
(-0.183811 0.0161671 -9.23153e-07)
(-0.184341 0.010246 -6.18741e-07)
(-0.184355 0.0065018 -3.64478e-07)
(-0.184199 0.00426712 -1.9269e-07)
(-0.184007 0.00304481 -9.57036e-08)
(-0.18382 0.00250122 -4.41852e-08)
(-0.183639 0.00241946 -1.89994e-08)
(-0.183457 0.00265029 -9.35514e-09)
(-0.183272 0.00306867 -9.90366e-09)
(-0.183088 0.00353403 -1.87541e-08)
(-0.182927 0.00385058 -3.60564e-08)
(-0.18282 0.00372467 -6.11139e-08)
(-0.182799 0.00272 -7.60632e-08)
(-0.182857 0.000217829 -4.60608e-08)
(-0.18286 -0.00459202 -2.5152e-08)
(-0.1824 -0.0126229 1.09721e-07)
(-0.180567 -0.024645 1.20271e-06)
(-0.175576 -0.0407311 2.54877e-06)
(-0.175425 0.0426485 -4.57136e-06)
(-0.176131 0.0266964 -3.02363e-06)
(-0.174778 0.0161504 -1.40047e-06)
(-0.173136 0.00965716 -7.30602e-07)
(-0.171738 0.00584038 -3.10878e-07)
(-0.17068 0.00369122 -9.66201e-08)
(-0.169891 0.0025662 -1.22847e-08)
(-0.169265 0.00208359 1.54903e-08)
(-0.168707 0.0020205 1.89792e-08)
(-0.168145 0.00223885 1.13097e-08)
(-0.167535 0.00263318 -3.07712e-09)
(-0.166868 0.00308927 -2.37442e-08)
(-0.166175 0.00344351 -5.17344e-08)
(-0.165541 0.00343508 -8.96203e-08)
(-0.165123 0.00264337 -1.18309e-07)
(-0.165131 0.000404822 -6.03177e-08)
(-0.165761 -0.00427842 7.24263e-08)
(-0.167026 -0.0127558 3.63517e-07)
(-0.168378 -0.026596 2.90986e-06)
(-0.167616 -0.0469508 7.00521e-06)
(-0.160021 0.0436136 -7.76256e-06)
(-0.154996 0.0240604 -3.16093e-06)
(-0.149852 0.0130765 -6.446e-07)
(-0.146102 0.00715869 -2.44767e-07)
(-0.143574 0.00403687 3.1358e-08)
(-0.141915 0.00242459 1.28453e-07)
(-0.14079 0.00163605 1.21626e-07)
(-0.139944 0.00132092 1.00138e-07)
(-0.139201 0.0013005 8.30659e-08)
(-0.13844 0.00147812 7.10917e-08)
(-0.137588 0.00178918 6.12624e-08)
(-0.13661 0.00216757 4.88988e-08)
(-0.135527 0.00251447 2.66663e-08)
(-0.134443 0.00265753 -2.59398e-08)
(-0.133581 0.00228529 -1.02772e-07)
(-0.133335 0.000831304 -3.30733e-08)
(-0.134262 -0.00271909 9.72057e-08)
(-0.137035 -0.0100543 -3.60852e-07)
(-0.142155 -0.0238487 2.57081e-06)
(-0.147815 -0.0477273 1.11881e-05)
(-0.126888 0.0373141 -9.69545e-06)
(-0.114406 0.0160623 4.29665e-06)
(-0.10624 0.00711939 4.81639e-06)
(-0.101665 0.00331037 2.06054e-06)
(-0.0990379 0.00164787 1.06763e-06)
(-0.097489 0.000914031 6.48864e-07)
(-0.0965106 0.000599933 4.08971e-07)
(-0.0957967 0.000495714 3.10666e-07)
(-0.0951624 0.000514678 2.98997e-07)
(-0.0944887 0.000619551 3.36595e-07)
(-0.093695 0.000791201 4.03867e-07)
(-0.0927329 0.00101254 4.83812e-07)
(-0.0915944 0.00125522 5.46662e-07)
(-0.0903379 0.00145989 5.15972e-07)
(-0.0891443 0.00149572 2.94103e-07)
(-0.0884106 0.00106796 -6.7786e-08)
(-0.0888262 -0.00050622 -1.29469e-06)
(-0.0916684 -0.00484779 -5.98723e-06)
(-0.0993942 -0.0154785 -8.13598e-06)
(-0.113388 -0.0403518 1.20806e-05)
(-0.0645765 0.0228369 -5.39147e-05)
(-0.0479902 0.00655888 -9.19724e-06)
(-0.0413864 0.00199415 -6.73151e-07)
(-0.0389905 0.000634531 -1.47765e-06)
(-0.0379333 0.000215173 -9.61027e-07)
(-0.037393 8.86041e-05 -4.52777e-07)
(-0.0370713 5.55441e-05 -2.5713e-07)
(-0.0368273 5.5713e-05 -1.82962e-07)
(-0.0365868 7.26483e-05 -1.62612e-07)
(-0.0363011 0.000103246 -1.79007e-07)
(-0.0359311 0.000148427 -2.21388e-07)
(-0.0354422 0.000210232 -2.79234e-07)
(-0.0348065 0.00029031 -3.37608e-07)
(-0.0340105 0.000386763 -3.7022e-07)
(-0.0330766 0.000483839 -2.86271e-07)
(-0.032118 0.000519936 1.6105e-07)
(-0.0314809 0.000271419 6.01414e-07)
(-0.0320783 -0.00111632 -1.99758e-06)
(-0.0375256 -0.00634599 3.9559e-06)
(-0.0564591 -0.0255329 6.82729e-05)
(-0.0306959 0.000692545 -1.69607e-06)
(-0.0326741 0.000501405 -1.18819e-06)
(-0.0340841 0.000342863 -7.88123e-07)
(-0.0350466 0.000224566 -4.98954e-07)
(-0.035687 0.000144261 -3.07503e-07)
(-0.0361147 9.53044e-05 -1.92172e-07)
(-0.036417 7.06073e-05 -1.32224e-07)
(-0.0366606 6.45337e-05 -1.11932e-07)
(-0.0368967 7.32502e-05 -1.2063e-07)
(-0.0371648 9.42287e-05 -1.51529e-07)
(-0.0374953 0.000125313 -1.9986e-07)
(-0.0379083 0.000163533 -2.60593e-07)
(-0.0384093 0.000203754 -3.26075e-07)
(-0.0389814 0.000237258 -3.83617e-07)
(-0.039574 0.000250545 -4.12201e-07)
(-0.0400903 0.000224975 -3.77873e-07)
(-0.0403779 0.000138558 -2.38123e-07)
(-0.0402264 -2.83113e-05 3.34712e-08)
(-0.0393875 -0.000287495 5.11338e-07)
(-0.0376207 -0.000627555 1.23099e-06)
(-0.080285 0.00439516 1.50993e-06)
(-0.0851761 0.00325114 1.26112e-06)
(-0.0886922 0.00229158 9.98325e-07)
(-0.0911262 0.00156066 7.63737e-07)
(-0.0927756 0.00104903 5.72307e-07)
(-0.0938988 0.000722038 4.31559e-07)