/*--------------------------------*- C++ -*----------------------------------*\
| =========                 |                                                 |
| \\      /  F ield         | OpenFOAM: The Open Source CFD Toolbox           |
|  \\    /   O peration     | Version:  2.4.0                                 |
|   \\  /    A nd           | Web:      www.OpenFOAM.org                      |
|    \\/     M anipulation  |                                                 |
\*---------------------------------------------------------------------------*/
FoamFile
{
    version     2.0;
    format      ascii;
    class       volScalarField;
    location    "4.4";
    object      p;
}
// * * * * * * * * * * * * * * * * * * * * * * * * * * * * * * * * * * * * * //

dimensions      [0 2 -2 0 0 0 0];

internalField   nonuniform List<scalar> 
4800
(
5.24096e-06
-0.00159372
-0.00327784
-0.00452712
-0.00501659
-0.00459457
-0.00321378
-0.000877794
0.0023687
0.00642998
0.00160531
-2.75515e-05
-0.00122445
-0.00193844
-0.00204571
-0.00143598
-6.15563e-05
0.00209422
0.00502188
0.00867497
0.00333034
0.00112021
-8.48325e-05
-0.00064311
-0.000624047
3.0899e-05
0.00135337
0.00337071
0.00610515
0.00955375
0.00449974
0.00163186
0.000251924
-0.00032184
-0.00031834
0.000276787
0.00148372
0.00334839
0.00593757
0.00930853
0.00455988
0.00116996
-0.000395629
-0.00105921
-0.00116573
-0.000727027
0.000283425
0.00195057
0.00441375
0.00783807
0.00314245
-0.000558792
-0.00227699
-0.00308126
-0.00338593
-0.00320932
-0.00249597
-0.00109471
0.00124826
0.00491094
6.83348e-05
-0.00370298
-0.00551836
-0.00649948
-0.00708661
-0.00728927
-0.00700257
-0.00598294
-0.00381574
0.000309491
-0.00466462
-0.00826606
-0.0101144
-0.0112971
-0.0122453
-0.0129546
-0.0132608
-0.0128165
-0.0110306
-0.00624402
-0.0108928
-0.0141108
-0.0159264
-0.0173184
-0.0186841
-0.0200138
-0.0210905
-0.0214673
-0.0204569
-0.0148379
-0.0183009
-0.0209768
-0.0226953
-0.0242745
-0.0260682
-0.0280969
-0.0301584
-0.0318106
-0.0328122
-0.0284303
7.99428e-06
-0.00161394
-0.00330894
-0.00456738
-0.00506228
-0.00464251
-0.00326189
-0.00092403
0.0023267
0.00639487
0.00162378
-3.17549e-05
-0.00120689
-0.00191082
-0.00201304
-0.00140014
-2.56282e-05
0.00212762
0.00505117
0.00870024
0.00336118
0.00109433
-8.59327e-05
-0.000641985
-0.000625408
2.9611e-05
0.00135193
0.00336859
0.00610224
0.00955195
0.00454425
0.0015952
0.000252187
-0.000318517
-0.000319313
0.000275311
0.00148177
0.00334521
0.00593207
0.00930369
0.00461429
0.0011268
-0.000390598
-0.00104846
-0.00115924
-0.000720837
0.000288956
0.00195382
0.0044103
0.00783128
0.00320204
-0.000606498
-0.00227039
-0.00306759
-0.00337646
-0.00319992
-0.00248677
-0.00108731
0.0012423
0.00489205
0.000129131
-0.00375177
-0.00551127
-0.00648451
-0.00707521
-0.00727747
-0.00698949
-0.00596726
-0.00382356
0.000261484
-0.00460956
-0.00831307
-0.010108
-0.0112826
-0.0122334
-0.0129425
-0.0132471
-0.0127922
-0.0110536
-0.00641111
-0.0108472
-0.0141535
-0.0159219
-0.0173063
-0.018673
-0.0200018
-0.0210743
-0.0214107
-0.02044
-0.015213
-0.0182678
-0.0210137
-0.0226945
-0.0242676
-0.0260608
-0.0280862
-0.0301356
-0.0316698
-0.0324827
-0.0285436
8.90094e-06
-0.00161332
-0.00330856
-0.00456713
-0.00506214
-0.00464245
-0.00326186
-0.000924018
0.0023267
0.00639487
0.0016244
-3.13306e-05
-0.00120659
-0.00191062
-0.00201292
-0.00140009
-2.56029e-05
0.00212763
0.00505117
0.00870024
0.00336158
0.00109463
-8.57049e-05
-0.000641826
-0.000625318
2.96542e-05
0.00135195
0.0033686
0.00610224
0.00955195
0.0045445
0.0015954
0.000252336
-0.000318414
-0.000319256
0.000275335
0.00148178
0.00334522
0.00593207
0.00930369
0.00461446
0.00112693
-0.000390515
-0.00104841
-0.00115921
-0.000720829
0.000288958
0.00195383
0.00441029
0.00783128
0.00320213
-0.000606438
-0.00227035
-0.00306757
-0.00337645
-0.00319991
-0.00248677
-0.00108731
0.0012423
0.00489205
0.000129176
-0.00375176
-0.00551126
-0.0064845
-0.00707521
-0.00727746
-0.00698949
-0.00596726
-0.00382356
0.000261482
-0.00460955
-0.00831306
-0.0101079
-0.0112826
-0.0122334
-0.0129425
-0.0132471
-0.0127922
-0.0110536
-0.00641111
-0.0108472
-0.0141535
-0.0159219
-0.0173063
-0.018673
-0.0200018
-0.0210743
-0.0214107
-0.02044
-0.015213
-0.0182678
-0.0210137
-0.0226945
-0.0242676
-0.0260608
-0.0280862
-0.0301356
-0.0316698
-0.0324827
-0.0285436
1.02819e-05
-0.00159169
-0.00327672
-0.00452648
-0.00501624
-0.0045944
-0.00321369
-0.000877762
0.0023687
0.00642999
0.00160732
-2.62626e-05
-0.00122361
-0.0019379
-0.0020454
-0.00143584
-6.1495e-05
0.00209425
0.00502188
0.00867497
0.00333144
0.00112105
-8.42231e-05
-0.000642711
-0.000623829
3.10078e-05
0.00135342
0.00337073
0.00610515
0.00955374
0.00450036
0.00163238
0.000252313
-0.000321583
-0.000318205
0.000276849
0.00148375
0.0033484
0.00593757
0.00930853
0.00456022
0.00117027
-0.000395406
-0.00105906
-0.00116566
-0.000727001
0.000283433
0.00195057
0.00441375
0.00783806
0.00314261
-0.000558662
-0.00227688
-0.00308119
-0.0033859
-0.00320931
-0.00249597
-0.00109471
0.00124826
0.00491094
6.83896e-05
-0.00370295
-0.00551832
-0.00649944
-0.00708659
-0.00728927
-0.00700258
-0.00598294
-0.00381575
0.000309486
-0.00466461
-0.00826604
-0.0101144
-0.0112971
-0.0122453
-0.0129546
-0.0132608
-0.0128165
-0.0110306
-0.00624402
-0.0108928
-0.0141108
-0.0159264
-0.0173184
-0.0186841
-0.0200138
-0.0210905
-0.0214673
-0.0204569
-0.0148379
-0.0183009
-0.0209768
-0.0226953
-0.0242745
-0.0260682
-0.0280969
-0.0301584
-0.0318106
-0.0328122
-0.0284303
0.0111532
0.0163509
0.0218538
0.0275341
0.0333069
0.0391225
0.0449574
0.0508059
0.0566761
0.0625882
0.0685748
0.0746818
0.0809688
0.0875071
0.0943734
0.101636
0.109335
0.117452
0.125869
0.134345
0.0129569
0.0177298
0.0228639
0.0282515
0.0338097
0.0394807
0.0452283
0.051034
0.0568942
0.0628181
0.0688274
0.0749546
0.0812423
0.0877399
0.094498
0.101558
0.108936
0.116599
0.124451
0.132296
0.0136516
0.0182602
0.0232566
0.0285375
0.0340188
0.0396384
0.0453545
0.0511425
0.0569925
0.062907
0.0688995
0.0749934
0.0812201
0.0876175
0.0942254
0.101079
0.108199
0.115574
0.123136
0.130741
0.0134214
0.0180744
0.0231216
0.0284513
0.033974
0.0396257
0.0453647
0.0511656
0.0570166
0.062916
0.0688709
0.0748961
0.0810133
0.0872514
0.0936452
0.100235
0.107061
0.114152
0.121505
0.129049
0.0122227
0.0171695
0.0224763
0.0280179
0.0337003
0.0394656
0.0452803
0.0511258
0.0569932
0.0628793
0.068786
0.0747191
0.0806894
0.0867148
0.0928245
0.0990656
0.105506
0.112235
0.119346
0.126909
0.0100051
0.0155992
0.0214123
0.0273315
0.0332779
0.0392192
0.0451459
0.0510559
0.0569489
0.0628235
0.0686769
0.074505
0.0803052
0.0860804
0.091848
0.0976551
0.103597
0.109831
0.116586
0.124208
0.00690029
0.0136317
0.0202014
0.0266177
0.0328731
0.0390009
0.0450375
0.0510072
0.0569221
0.0627837
0.0685841
0.0743082
0.0799363
0.0854503
0.0908447
0.0961505
0.101478
0.107042
0.113237
0.120919
0.00332477
0.0117956
0.0192762
0.0261865
0.0326882
0.0389351
0.04503
0.0510261
0.0569457
0.0627903
0.0685449
0.074181
0.0796593
0.0849346
0.089966
0.0947482
0.0993859
0.104106
0.109431
0.117029
0.00132945
0.0117764
0.0195793
0.0265198
0.0329611
0.0391377
0.0451833
0.0511509
0.0570544
0.0628853
0.068617
0.0742051
0.0795873
0.0846833
0.0893981
0.0936539
0.0975012
0.100958
0.104379
0.110683
0.00588049
0.0171102
0.0227568
0.0282897
0.0339536
0.0397126
0.0455477
0.051422
0.057299
0.0631416
0.0689036
0.0745214
0.0799038
0.08492
0.0893824
0.0930284
0.0955029
0.0965109
0.0952475
0.0967818
0.0111267
0.0163324
0.0218415
0.0275263
0.0333021
0.0391195
0.0449554
0.0508042
0.0566742
0.0625858
0.0685716
0.0746777
0.0809637
0.0875011
0.0943669
0.10163
0.109331
0.117453
0.125877
0.134364
0.0129793
0.0177485
0.0228787
0.0282628
0.0338182
0.0394871
0.0452334
0.0510384
0.0568984
0.0628226
0.0688324
0.0749601
0.081248
0.0877451
0.0945015
0.101558
0.10893
0.116586
0.124429
0.132266
0.0136543
0.018265
0.0232619
0.0285425
0.0340231
0.0396419
0.0453571
0.0511445
0.0569941
0.0629083
0.0689006
0.0749943
0.0812208
0.0876177
0.094225
0.101078
0.108197
0.115569
0.12313
0.130736
0.0134258
0.0180815
0.0231286
0.0284576
0.0339789
0.0396294
0.0453673
0.0511674
0.0570179
0.0629169
0.0688715
0.0748965
0.0810137
0.0872516
0.0936451
0.100234
0.107059
0.114149
0.1215
0.129044
0.0122346
0.0171829
0.0224872
0.0280264
0.0337063
0.0394695
0.0452828
0.0511275
0.0569942
0.0628801
0.0687866
0.0747197
0.0806902
0.0867157
0.0928253
0.0990657
0.105505
0.112232
0.119335
0.126894
0.0100305
0.015621
0.021426
0.0273407
0.0332833
0.039222
0.0451473
0.0510566
0.0569492
0.0628237
0.068677
0.0745053
0.0803057
0.0860813
0.0918491
0.0976558
0.103598
0.109829
0.116568
0.12417
0.00696792
0.0136764
0.0202221
0.0266285
0.0328777
0.0390023
0.0450377
0.051007
0.0569218
0.0627835
0.0685842
0.0743085
0.079937
0.0854516
0.0908465
0.0961514
0.101477
0.107036
0.113194
0.120815
0.00343962
0.0118424
0.0192857
0.0261901
0.0326878
0.0389332
0.0450282
0.0510246
0.0569445
0.0627893
0.068544
0.0741803
0.0796589
0.084935
0.0899675
0.0947487
0.0993845
0.104112
0.109393
0.116863
0.00147291
0.0117128
0.019508
0.0264893
0.0329453
0.0391281
0.0451772
0.0511463
0.05705
0.0628804
0.068611
0.0741979
0.0795792
0.0846757
0.0893937
0.093655
0.0975204
0.101047
0.104499
0.110505
0.00672137
0.0172536
0.0227673
0.0283127
0.0339686
0.0397196
0.0455517
0.0514249
0.0573016
0.0631444
0.068907
0.0745257
0.0799091
0.0849257
0.0893869
0.0930259
0.0954935
0.0965421
0.0951858
0.095717
0.0111267
0.0163324
0.0218415
0.0275263
0.0333021
0.0391195
0.0449554
0.0508042
0.0566742
0.0625858
0.0685716
0.0746777
0.0809637
0.0875011
0.0943669
0.10163
0.109331
0.117453
0.125877
0.134364
0.0129793
0.0177485
0.0228787
0.0282628
0.0338182
0.0394871
0.0452334
0.0510384
0.0568984
0.0628226
0.0688324
0.0749601
0.081248
0.0877451
0.0945015
0.101558
0.10893
0.116586
0.124429
0.132266
0.0136543
0.018265
0.0232619
0.0285425
0.0340231
0.0396419
0.0453571
0.0511445
0.0569941
0.0629083
0.0689006
0.0749943
0.0812208
0.0876177
0.094225
0.101078
0.108197
0.115569
0.12313
0.130736
0.0134258
0.0180815
0.0231286
0.0284576
0.0339789
0.0396294
0.0453673
0.0511674
0.0570179
0.0629169
0.0688715
0.0748965
0.0810137
0.0872516
0.0936451
0.100234
0.107059
0.114149
0.1215
0.129044
0.0122346
0.0171828
0.0224872
0.0280264
0.0337063
0.0394695
0.0452828
0.0511275
0.0569942
0.0628801
0.0687866
0.0747198
0.0806902
0.0867157
0.0928253
0.0990657
0.105505
0.112232
0.119335
0.126894
0.0100305
0.015621
0.021426
0.0273407
0.0332833
0.039222
0.0451473
0.0510566
0.0569492
0.0628237
0.068677
0.0745053
0.0803057
0.0860813
0.0918491
0.0976558
0.103598
0.109829
0.116568
0.12417
0.00696792
0.0136764
0.0202221
0.0266285
0.0328777
0.0390023
0.0450377
0.051007
0.0569218
0.0627835
0.0685842
0.0743085
0.079937
0.0854516
0.0908465
0.0961514
0.101477
0.107036
0.113194
0.120815
0.00343962
0.0118424
0.0192857
0.0261901
0.0326878
0.0389332
0.0450282
0.0510246
0.0569445
0.0627893
0.068544
0.0741803
0.0796589
0.084935
0.0899675
0.0947487
0.0993845
0.104112
0.109393
0.116863
0.00147291
0.0117128
0.0195081
0.0264893
0.0329453
0.0391281
0.0451772
0.0511463
0.05705
0.0628804
0.068611
0.0741979
0.0795792
0.0846757
0.0893937
0.093655
0.0975204
0.101047
0.104499
0.110505
0.00672136
0.0172536
0.0227673
0.0283127
0.0339686
0.0397196
0.0455517
0.0514249
0.0573016
0.0631444
0.068907
0.0745257
0.0799091
0.0849257
0.0893869
0.0930259
0.0954935
0.0965421
0.0951858
0.095717
0.0111532
0.0163509
0.0218538
0.0275341
0.0333069
0.0391225
0.0449574
0.0508059
0.0566761
0.0625882
0.0685748
0.0746818
0.0809688
0.0875071
0.0943734
0.101636
0.109335
0.117452
0.125869
0.134345
0.0129569
0.0177298
0.0228639
0.0282515
0.0338097
0.0394807
0.0452284
0.051034
0.0568942
0.0628181
0.0688274
0.0749546
0.0812423
0.0877399
0.094498
0.101558
0.108936
0.116599
0.124451
0.132296
0.0136515
0.0182602
0.0232566
0.0285375
0.0340188
0.0396384
0.0453545
0.0511425
0.0569925
0.062907
0.0688995
0.0749934
0.0812201
0.0876175
0.0942254
0.101079
0.108199
0.115574
0.123136
0.130741
0.0134214
0.0180744
0.0231216
0.0284513
0.033974
0.0396257
0.0453647
0.0511656
0.0570166
0.0629161
0.0688709
0.0748961
0.0810133
0.0872514
0.0936452
0.100235
0.107061
0.114152
0.121505
0.129049
0.0122227
0.0171695
0.0224763
0.0280179
0.0337003
0.0394656
0.0452803
0.0511259
0.0569932
0.0628793
0.068786
0.0747191
0.0806894
0.0867148
0.0928245
0.0990656
0.105506
0.112235
0.119346
0.126909
0.0100051
0.0155992
0.0214123
0.0273315
0.0332779
0.0392192
0.0451459
0.0510559
0.0569489
0.0628235
0.0686769
0.074505
0.0803052
0.0860804
0.091848
0.0976552
0.103597
0.109831
0.116586
0.124208
0.00690029
0.0136317
0.0202014
0.0266177
0.0328731
0.0390009
0.0450375
0.0510072
0.0569221
0.0627837
0.0685841
0.0743082
0.0799363
0.0854503
0.0908447
0.0961505
0.101478
0.107042
0.113237
0.120919
0.00332476
0.0117956
0.0192762
0.0261865
0.0326882
0.0389351
0.04503
0.0510261
0.0569457
0.0627903
0.0685449
0.074181
0.0796593
0.0849346
0.089966
0.0947482
0.0993859
0.104106
0.109431
0.117029
0.00132944
0.0117764
0.0195793
0.0265198
0.0329611
0.0391377
0.0451833
0.0511509
0.0570544
0.0628854
0.068617
0.0742051
0.0795873
0.0846833
0.0893981
0.0936539
0.0975012
0.100958
0.104379
0.110683
0.00588046
0.0171102
0.0227568
0.0282897
0.0339536
0.0397126
0.0455477
0.051422
0.0572991
0.0631416
0.0689036
0.0745214
0.0799038
0.08492
0.0893824
0.0930284
0.0955029
0.0965109
0.0952475
0.0967818
0.142512
0.149922
0.156153
0.16089
0.163968
0.165389
0.165331
0.164163
0.162438
0.16084
0.139838
0.146705
0.152553
0.157119
0.160266
0.161998
0.162462
0.161951
0.160803
0.159236
0.13812
0.14489
0.150704
0.155303
0.158548
0.160432
0.161082
0.160746
0.159606
0.15755
0.136541
0.143497
0.149521
0.154321
0.157743
0.159768
0.160508
0.160188
0.158892
0.1563
0.134747
0.142131
0.148571
0.153733
0.157438
0.159662
0.160513
0.160209
0.158787
0.155812
0.132717
0.140799
0.14786
0.153528
0.157614
0.160102
0.16111
0.160867
0.1594
0.156237
0.130654
0.13972
0.14755
0.153813
0.158326
0.161113
0.16232
0.162194
0.16078
0.157623
0.129
0.139338
0.14799
0.154829
0.159726
0.162782
0.164189
0.164218
0.162944
0.159968
0.127997
0.140342
0.149768
0.156991
0.162068
0.165248
0.166785
0.166963
0.165885
0.163229
0.132373
0.145948
0.154543
0.161108
0.165728
0.168676
0.170165
0.170426
0.169557
0.167313
0.142545
0.149968
0.156208
0.16095
0.164027
0.165443
0.165376
0.164194
0.162456
0.160838
0.139801
0.146663
0.152505
0.15707
0.160218
0.161954
0.162425
0.161925
0.160799
0.159215
0.138121
0.144895
0.15071
0.15531
0.158554
0.160437
0.161082
0.160744
0.159623
0.157519
0.136548
0.14351
0.149535
0.154336
0.157757
0.159779
0.160511
0.160189
0.15892
0.15626
0.134754
0.142142
0.148583
0.153744
0.157447
0.159669
0.160512
0.160207
0.158819
0.155766
0.132728
0.140811
0.147872
0.15354
0.157623
0.160108
0.161108
0.160865
0.159436
0.156189
0.130677
0.139736
0.147564
0.153826
0.158335
0.161119
0.162318
0.162193
0.160816
0.157575
0.129141
0.139395
0.148014
0.154844
0.159734
0.162785
0.164186
0.164216
0.162978
0.159922
0.128326
0.140359
0.149745
0.156983
0.162062
0.165244
0.16678
0.16696
0.165915
0.163187
0.13226
0.145573
0.154376
0.16106
0.165709
0.168669
0.170161
0.170424
0.169582
0.167278
0.142545
0.149968
0.156208
0.16095
0.164027
0.165443
0.165376
0.164194
0.162456
0.160838
0.139801
0.146663
0.152505
0.15707
0.160218
0.161954
0.162425
0.161925
0.160799
0.159215
0.138121
0.144895
0.15071
0.15531
0.158554
0.160437
0.161082
0.160744
0.159623
0.157519
0.136548
0.14351
0.149535
0.154336
0.157757
0.159779
0.160511
0.160189
0.15892
0.15626
0.134754
0.142142
0.148583
0.153744
0.157447
0.159669
0.160512
0.160207
0.158819
0.155766
0.132728
0.140811
0.147872
0.15354
0.157623
0.160108
0.161108
0.160865
0.159436
0.156189
0.130677
0.139736
0.147564
0.153826
0.158335
0.161119
0.162318
0.162193
0.160816
0.157575
0.129141
0.139395
0.148014
0.154844
0.159734
0.162785
0.164186
0.164216
0.162978
0.159922
0.128326
0.140359
0.149745
0.156983
0.162062
0.165244
0.16678
0.16696
0.165915
0.163187
0.13226
0.145573
0.154376
0.16106
0.165709
0.168669
0.170161
0.170424
0.169582
0.167278
0.142512
0.149922
0.156153
0.16089
0.163968
0.165389
0.165331
0.164163
0.162438
0.16084
0.139838
0.146705
0.152553
0.157119
0.160266
0.161998
0.162462
0.161951
0.160803
0.159236
0.13812
0.14489
0.150704
0.155303
0.158548
0.160432
0.161082
0.160746
0.159606
0.15755
0.136541
0.143497
0.149521
0.154321
0.157743
0.159768
0.160508
0.160188
0.158892
0.1563
0.134747
0.142131
0.148571
0.153733
0.157438
0.159662
0.160513
0.160209
0.158787
0.155812
0.132717
0.140799
0.14786
0.153528
0.157614
0.160102
0.16111
0.160867
0.1594
0.156237
0.130654
0.13972
0.14755
0.153813
0.158326
0.161113
0.16232
0.162194
0.16078
0.157623
0.129
0.139338
0.14799
0.154829
0.159726
0.162782
0.164189
0.164218
0.162944
0.159968
0.127997
0.140342
0.149768
0.156991
0.162068
0.165248
0.166785
0.166963
0.165885
0.163229
0.132373
0.145948
0.154543
0.161108
0.165728
0.168676
0.170165
0.170426
0.169557
0.167313
0.166635
0.162083
0.164089
0.167686
0.170818
0.173065
0.174291
0.174543
0.173864
0.172068
0.177803
0.172488
0.172532
0.174401
0.176407
0.178017
0.178959
0.179175
0.178669
0.177309
0.183384
0.180246
0.179981
0.180952
0.182215
0.18333
0.184022
0.184198
0.183841
0.182868
0.188844
0.18714
0.186862
0.187351
0.188129
0.188877
0.189368
0.189506
0.18927
0.188616
0.194431
0.193541
0.193342
0.193596
0.194072
0.194563
0.194902
0.195007
0.194866
0.194462
0.200119
0.199695
0.199586
0.199726
0.200014
0.200327
0.200551
0.200629
0.200557
0.200347
0.205911
0.205757
0.205714
0.205789
0.205951
0.206132
0.206264
0.206314
0.206289
0.206224
0.211794
0.211816
0.211807
0.211828
0.211886
0.211953
0.211998
0.21201
0.21201
0.212059
0.217797
0.217926
0.217923
0.217878
0.217826
0.217773
0.217719
0.217673
0.217675
0.217807
0.223957
0.224147
0.224113
0.22397
0.22378
0.223577
0.223393
0.22326
0.223234
0.223416
0.230339
0.23054
0.230425
0.230134
0.229755
0.229351
0.22899
0.228728
0.228634
0.228823
0.237037
0.237171
0.236907
0.236398
0.235757
0.235084
0.234482
0.234033
0.233818
0.233951
0.244168
0.244111
0.243599
0.24278
0.241788
0.240762
0.239844
0.23914
0.238733
0.238717
0.251875
0.251417
0.250523
0.249285
0.247841
0.246375
0.24506
0.244025
0.243338
0.243035
0.260337
0.259101
0.257656
0.25588
0.253892
0.251911
0.250134
0.248696
0.247625
0.246836
0.269663
0.267132
0.264882
0.262456
0.259871
0.257354
0.255092
0.2532
0.251625
0.250105
0.279913
0.275175
0.271856
0.268749
0.265618
0.262659
0.259987
0.257651
0.255461
0.252889
0.290763
0.282472
0.277876
0.274236
0.270816
0.267714
0.264885
0.262234
0.25936
0.255359
0.302204
0.288037
0.281769
0.277971
0.274854
0.272256
0.269828
0.267216
0.263699
0.257865
0.313186
0.288284
0.280338
0.277786
0.276473
0.275716
0.274773
0.27294
0.269046
0.26101
0.167476
0.162227
0.164204
0.167754
0.170844
0.173077
0.174295
0.174546
0.173886
0.172041
0.177947
0.172425
0.172578
0.174446
0.176429
0.178031
0.178966
0.17918
0.178687
0.177291
0.183395
0.180175
0.179991
0.180973
0.182228
0.183341
0.184029
0.184203
0.183855
0.182856
0.188867
0.18711
0.186865
0.187362
0.188138
0.188886
0.189374
0.18951
0.18928
0.188609
0.194445
0.193527
0.193341
0.1936
0.194077
0.194569
0.194906
0.195011
0.194872
0.194458
0.200125
0.199688
0.199584
0.199727
0.200017
0.200331
0.200555
0.200632
0.200561
0.200345
0.205913
0.205755
0.205713
0.205789
0.205953
0.206135
0.206267
0.206315
0.20629
0.206224
0.211794
0.211817
0.211807
0.211828
0.211887
0.211954
0.212
0.212011
0.212009
0.212061
0.217795
0.217929
0.217923
0.217877
0.217827
0.217773
0.21772
0.217674
0.217673
0.217809
0.223953
0.224152
0.224113
0.223969
0.22378
0.223577
0.223393
0.22326
0.22323
0.223419
0.230334
0.230545
0.230425
0.230133
0.229754
0.229351
0.228991
0.228728
0.228629
0.228827
0.237032
0.237176
0.236906
0.236396
0.235756
0.235083
0.234483
0.234033
0.233814
0.233956
0.244163
0.244112
0.243597
0.242778
0.241786
0.240761
0.239844
0.239141
0.238731
0.238722
0.251871
0.251412
0.25052
0.249282
0.247839
0.246373
0.24506
0.244027
0.24334
0.243039
0.260336
0.259083
0.25765
0.255876
0.253888
0.251909
0.250134
0.248699
0.247634
0.246837
0.269676
0.267094
0.264874
0.262453
0.259867
0.257352
0.255093
0.253205
0.251646
0.2501
0.279965
0.275106
0.27185
0.268748
0.265613
0.262657
0.259988
0.257659
0.2555
0.252874
0.290828
0.282298
0.277852
0.274234
0.270809
0.267713
0.264887
0.262247
0.259424
0.25533
0.302319
0.287713
0.281775
0.278014
0.274869
0.272268
0.269837
0.267237
0.263797
0.257816
0.314516
0.288392
0.280632
0.27797
0.276541
0.27575
0.274789
0.27297
0.269189
0.260933
0.167476
0.162227
0.164204
0.167754
0.170844
0.173077
0.174295
0.174546
0.173886
0.172041
0.177947
0.172425
0.172578
0.174446
0.176429
0.178031
0.178966
0.17918
0.178687
0.177291
0.183395
0.180175
0.179991
0.180973
0.182228
0.183341
0.184029
0.184203
0.183855
0.182856
0.188867
0.18711
0.186865
0.187362
0.188138
0.188886
0.189374
0.18951
0.18928
0.188609
0.194445
0.193527
0.193341
0.1936
0.194077
0.194569
0.194906
0.195011
0.194872
0.194458
0.200125
0.199688
0.199584
0.199727
0.200017
0.200331
0.200555
0.200632
0.200561
0.200345
0.205913
0.205755
0.205713
0.205789
0.205953
0.206135
0.206267
0.206315
0.20629
0.206224
0.211794
0.211817
0.211807
0.211828
0.211887
0.211954
0.212
0.212011
0.212009
0.212061
0.217795
0.217929
0.217923
0.217877
0.217827
0.217773
0.21772
0.217674
0.217673
0.217809
0.223953
0.224152
0.224113
0.223969
0.22378
0.223577
0.223393
0.22326
0.22323
0.223419
0.230334
0.230545
0.230425
0.230133
0.229754
0.229351
0.228991
0.228728
0.228629
0.228827
0.237032
0.237176
0.236906
0.236396
0.235756
0.235083
0.234483
0.234033
0.233814
0.233957
0.244163
0.244112
0.243597
0.242778
0.241786
0.240761
0.239844
0.239141
0.238731
0.238722
0.251871
0.251412
0.25052
0.249282
0.247839
0.246373
0.24506
0.244027
0.24334
0.243039
0.260336
0.259083
0.25765
0.255876
0.253888
0.251909
0.250134
0.248699
0.247634
0.246837
0.269676
0.267094
0.264874
0.262453
0.259867
0.257352
0.255093
0.253205
0.251646
0.2501
0.279965
0.275106
0.27185
0.268748
0.265613
0.262657
0.259988
0.257659
0.2555
0.252874
0.290828
0.282298
0.277852
0.274234
0.270809
0.267713
0.264887
0.262247
0.259424
0.25533
0.302319
0.287713
0.281775
0.278014
0.274869
0.272268
0.269837
0.267237
0.263797
0.257816
0.314516
0.288392
0.280632
0.27797
0.276541
0.27575
0.274789
0.27297
0.269189
0.260933
0.166635
0.162083
0.164089
0.167686
0.170818
0.173065
0.174291
0.174543
0.173864
0.172068
0.177803
0.172488
0.172532
0.174401
0.176407
0.178017
0.178959
0.179175
0.178669
0.177309
0.183384
0.180246
0.179981
0.180952
0.182215
0.18333
0.184022
0.184198
0.183841
0.182868
0.188844
0.18714
0.186862
0.187351
0.188129
0.188877
0.189368
0.189506
0.18927
0.188616
0.194431
0.193541
0.193342
0.193596
0.194072
0.194563
0.194902
0.195007
0.194866
0.194462
0.200119
0.199695
0.199586
0.199726
0.200014
0.200327
0.200551
0.200629
0.200557
0.200347
0.205911
0.205757
0.205714
0.205789
0.205951
0.206132
0.206264
0.206314
0.206289
0.206224
0.211794
0.211816
0.211807
0.211828
0.211886
0.211953
0.211998
0.21201
0.21201
0.212059
0.217797
0.217926
0.217923
0.217878
0.217826
0.217773
0.217719
0.217673
0.217675
0.217807
0.223957
0.224147
0.224113
0.22397
0.22378
0.223577
0.223393
0.22326
0.223234
0.223416
0.230339
0.23054
0.230425
0.230134
0.229755
0.229351
0.22899
0.228728
0.228634
0.228823
0.237037
0.237171
0.236907
0.236398
0.235757
0.235084
0.234482
0.234033
0.233818
0.233951
0.244168
0.244111
0.243599
0.24278
0.241788
0.240762
0.239844
0.23914
0.238733
0.238717
0.251875
0.251417
0.250523
0.249285
0.247841
0.246375
0.24506
0.244025
0.243338
0.243035
0.260337
0.259101
0.257656
0.25588
0.253892
0.251911
0.250134
0.248696
0.247625
0.246836
0.269663
0.267132
0.264882
0.262456
0.259871
0.257354
0.255092
0.2532
0.251625
0.250105
0.279913
0.275175
0.271856
0.268749
0.265618
0.262659
0.259987
0.257651
0.255461
0.252889
0.290763
0.282472
0.277876
0.274236
0.270816
0.267714
0.264885
0.262234
0.25936
0.255359
0.302204
0.288037
0.281769
0.277971
0.274854
0.272256
0.269828
0.267216
0.263699
0.257865
0.313186
0.288284
0.280338
0.277786
0.276473
0.275716
0.274773
0.27294
0.269046
0.26101
0.25276
0.261368
0.266591
0.270689
0.27425
0.277498
0.279712
0.279895
0.276256
0.265784
0.223636
0.239438
0.250659
0.260209
0.269294
0.27795
0.285032
0.288872
0.286596
0.273758
0.206156
0.221477
0.234837
0.248341
0.262809
0.277788
0.291443
0.301029
0.301902
0.28739
0.192647
0.206485
0.220684
0.237118
0.256566
0.2784
0.300258
0.318131
0.32487
0.310624
0.182823
0.195484
0.210169
0.228942
0.252955
0.281926
0.313526
0.342753
0.359478
0.349922
0.176932
0.189287
0.204809
0.225911
0.254376
0.290781
0.333725
0.378185
0.411311
0.415391
0.174786
0.18789
0.205007
0.228925
0.262187
0.306661
0.362912
0.427633
0.486867
0.521345
0.175497
0.190083
0.209363
0.236515
0.274995
0.328443
0.40052
0.491305
0.591088
0.694953
0.177439
0.193144
0.213861
0.243062
0.285163
0.346058
0.434056
0.557384
0.726225
1.00608
0.17879
0.194003
0.213533
0.240753
0.280354
0.339687
0.432743
0.587042
0.873407
1.49053
0.2531
0.260905
0.266464
0.270679
0.274248
0.277506
0.279717
0.279928
0.276452
0.265671
0.224055
0.239363
0.250594
0.260175
0.269272
0.277944
0.285024
0.288909
0.286859
0.273605
0.206411
0.221495
0.234805
0.248299
0.262769
0.27776
0.291412
0.301063
0.302242
0.287195
0.192737
0.206469
0.220632
0.237049
0.256492
0.278333
0.300183
0.318147
0.32528
0.310386
0.182849
0.195451
0.210098
0.228845
0.252841
0.281803
0.313387
0.342729
0.359911
0.349668
0.17694
0.18925
0.204729
0.225791
0.254217
0.290581
0.333483
0.378067
0.411666
0.415343
0.174801
0.187868
0.204939
0.228802
0.26199
0.306348
0.36248
0.427297
0.486844
0.521835
0.175541
0.190117
0.209384
0.236515
0.274943
0.328242
0.400141
0.490957
0.589793
0.694635
0.177507
0.193257
0.214046
0.243352
0.285593
0.346618
0.434798
0.557986
0.722993
1.00379
0.17884
0.194041
0.213551
0.240756
0.280367
0.339762
0.433099
0.587476
0.869718
1.49978
0.2531
0.260905
0.266464
0.270679
0.274248
0.277506
0.279717
0.279928
0.276452
0.265671
0.224055
0.239363
0.250594
0.260175
0.269272
0.277944
0.285024
0.288909
0.286859
0.273605
0.206411
0.221495
0.234805
0.248299
0.262769
0.27776
0.291412
0.301063
0.302242
0.287195
0.192737
0.206469
0.220632
0.237049
0.256492
0.278333
0.300183
0.318147
0.32528
0.310386
0.182849
0.195451
0.210098
0.228845
0.252841
0.281803
0.313387
0.342729
0.359911
0.349668
0.17694
0.18925
0.204729
0.225791
0.254217
0.290581
0.333483
0.378067
0.411666
0.415343
0.174801
0.187868
0.204939
0.228802
0.26199
0.306348
0.36248
0.427297
0.486844
0.521835
0.175541
0.190117
0.209384
0.236515
0.274943
0.328242
0.400141
0.490957
0.589793
0.694635
0.177507
0.193257
0.214046
0.243352
0.285593
0.346618
0.434798
0.557986
0.722993
1.00379
0.17884
0.194041
0.213551
0.240756
0.280367
0.339762
0.433099
0.587476
0.869718
1.49978
0.25276
0.261368
0.266591
0.270689
0.27425
0.277498
0.279712
0.279895
0.276256
0.265784
0.223636
0.239438
0.250659
0.260209
0.269294
0.27795
0.285032
0.288872
0.286596
0.273758
0.206156
0.221477
0.234837
0.248341
0.262809
0.277788
0.291443
0.301029
0.301902
0.28739
0.192647
0.206485
0.220684
0.237118
0.256566
0.2784
0.300258
0.318131
0.32487
0.310624
0.182823
0.195484
0.210169
0.228942
0.252955
0.281926
0.313526
0.342753
0.359478
0.349922
0.176932
0.189287
0.204809
0.225911
0.254376
0.290781
0.333725
0.378185
0.411311
0.415391
0.174786
0.18789
0.205007
0.228925
0.262187
0.306661
0.362912
0.427633
0.486867
0.521345
0.175497
0.190083
0.209363
0.236515
0.274995
0.328443
0.40052
0.491305
0.591088
0.694953
0.177439
0.193144
0.213861
0.243062
0.285163
0.346058
0.434056
0.557384
0.726225
1.00608
0.17879
0.194003
0.213533
0.240753
0.280354
0.339687
0.432743
0.587042
0.873407
1.49053
-0.15378
-0.13311
-0.115064
-0.0984211
-0.0818031
-0.0650023
-0.04801
-0.0308613
-0.0136166
0.00365306
0.0208714
0.0379664
0.0548722
0.0715401
0.087997
0.104431
0.121326
0.139721
0.162917
0.200681
-0.139812
-0.126328
-0.111806
-0.096554
-0.0806226
-0.0642216
-0.0474861
-0.030513
-0.0133867
0.00381824
0.0210366
0.0382101
0.0552992
0.0723072
0.0893062
0.106503
0.124293
0.143301
0.165034
0.192938
-0.136598
-0.124605
-0.110906
-0.0960477
-0.0803518
-0.0640825
-0.0474129
-0.0304651
-0.013333
0.0039085
0.0211988
0.0384889
0.0557456
0.0729623
0.0901778
0.107509
0.125168
0.143448
0.162905
0.184438
-0.137786
-0.125486
-0.11161
-0.0966183
-0.0808194
-0.0644535
-0.0476901
-0.0306495
-0.0134197
0.00393261
0.0213543
0.0388004
0.0562304
0.0736091
0.0909088
0.108119
0.125239
0.142269
0.159268
0.176336
-0.140478
-0.127503
-0.113138
-0.0977676
-0.0816766
-0.0650812
-0.0481335
-0.0309383
-0.0135689
0.00392128
0.0214883
0.0390887
0.0566701
0.0741615
0.0914635
0.108452
0.124945
0.140745
0.155678
0.169705
-0.142901
-0.129312
-0.11448
-0.0987485
-0.0823823
-0.0655773
-0.0484676
-0.0311421
-0.0136601
0.00393545
0.0216065
0.0393074
0.0569715
0.0744942
0.0917146
0.108462
0.124398
0.139271
0.152867
0.165245
-0.143397
-0.12957
-0.114605
-0.0987952
-0.0823836
-0.0655509
-0.0484218
-0.0310792
-0.0135785
0.0040385
0.0217316
0.0394478
0.0571065
0.074582
0.0916887
0.108185
0.123764
0.13815
0.151203
0.163139
-0.141089
-0.12762
-0.113039
-0.0975806
-0.0814634
-0.064864
-0.0479129
-0.0307026
-0.0132995
0.00424345
0.0218748
0.0395291
0.0571135
0.0744912
0.091471
0.10781
0.123237
0.137534
0.150666
0.162993
-0.135989
-0.123654
-0.11005
-0.0953836
-0.0798799
-0.06374
-0.0471246
-0.0301567
-0.012929
0.00448432
0.0220164
0.0395863
0.0570919
0.0743952
0.091312
0.107619
0.123083
0.137542
0.151031
0.16398
-0.127727
-0.117689
-0.105845
-0.0924807
-0.0779134
-0.0624299
-0.0462659
-0.0296041
-0.012582
0.00469422
0.0221343
0.0396559
0.057156
0.0744993
0.0915114
0.10798
0.123679
0.138433
0.152231
0.165395
-0.154162
-0.132993
-0.115049
-0.0984434
-0.0818158
-0.0650099
-0.0480153
-0.0308646
-0.0136183
0.0036527
0.020872
0.0379671
0.0548721
0.0715371
0.0879873
0.104411
0.121303
0.139672
0.162587
0.200082
-0.139754
-0.126157
-0.111728
-0.0965171
-0.0805961
-0.0642031
-0.0474735
-0.0305045
-0.0133811
0.00382166
0.021039
0.038213
0.0553045
0.0723181
0.0893255
0.106535
0.124353
0.143372
0.164933
0.192681
-0.136659
-0.12458
-0.110881
-0.0960294
-0.080337
-0.0640718
-0.0474055
-0.0304599
-0.0133295
0.00391091
0.0212003
0.0384899
0.0557463
0.0729627
0.0901765
0.107504