/*--------------------------------*- C++ -*----------------------------------*\
| =========                 |                                                 |
| \\      /  F ield         | OpenFOAM: The Open Source CFD Toolbox           |
|  \\    /   O peration     | Version:  2.4.0                                 |
|   \\  /    A nd           | Web:      www.OpenFOAM.org                      |
|    \\/     M anipulation  |                                                 |
\*---------------------------------------------------------------------------*/
FoamFile
{
    version     2.0;
    format      ascii;
    class       surfaceScalarField;
    location    "4.4";
    object      phi;
}
// * * * * * * * * * * * * * * * * * * * * * * * * * * * * * * * * * * * * * //

dimensions      [0 3 -1 0 0 0 0];

internalField   nonuniform List<scalar> 
12720
(
1.54891e-07
-1.55973e-07
-1.86004e-10
-5.40416e-07
6.93645e-07
1.66363e-09
-2.06848e-06
1.5255e-06
2.55965e-09
-4.18211e-06
2.11032e-06
3.31312e-09
-6.64474e-06
2.45887e-06
3.75966e-09
-9.2614e-06
2.61271e-06
3.94508e-09
-1.18716e-05
2.60621e-06
3.9592e-09
-1.43362e-05
2.46078e-06
3.80495e-09
-1.65337e-05
2.19407e-06
3.45622e-09
1.83492e-06
2.88955e-09
-1.83715e-05
-7.25579e-07
5.71128e-07
-1.52033e-09
-3.29706e-06
3.26476e-06
3.65166e-10
-7.50386e-06
5.73384e-06
-1.52557e-09
-1.29214e-05
7.53021e-06
-2.39892e-09
-1.91004e-05
8.64078e-06
-2.83802e-09
-2.56214e-05
9.13677e-06
-3.11364e-09
-3.21038e-05
9.09171e-06
-3.12117e-09
-3.82045e-05
8.56441e-06
-2.90153e-09
-4.36278e-05
7.61993e-06
-2.54443e-09
6.36682e-06
-2.19515e-09
-4.81575e-05
-1.69439e-06
2.26805e-06
-2.53792e-09
-6.13771e-06
7.70583e-06
2.2482e-09
-1.27341e-05
1.23302e-05
9.55794e-11
-2.08872e-05
1.56834e-05
-9.77778e-11
-3.00095e-05
1.77629e-05
1.18178e-10
-3.95417e-05
1.86689e-05
1.1189e-10
-4.89552e-05
1.85051e-05
1.24543e-10
-5.77556e-05
1.73646e-05
1.84542e-10
-6.55074e-05
1.53715e-05
2.53297e-10
1.27495e-05
1.5617e-10
-7.18902e-05
-2.4911e-06
4.76282e-06
-3.66277e-09
-8.5205e-06
1.37321e-05
3.18464e-09
-1.71017e-05
2.09113e-05
-2.28891e-11
-2.7449e-05
2.6031e-05
-2.88729e-10
-3.88603e-05
2.91743e-05
8.44692e-11
-5.06792e-05
3.04877e-05
1.28147e-10
-6.22708e-05
3.00965e-05
1.69096e-10
-7.30184e-05
2.81119e-05
2.76318e-10
-8.23539e-05
2.47065e-05
4.77425e-10
2.02352e-05
4.20857e-10
-8.98401e-05
-3.05512e-06
7.82241e-06
-4.47781e-09
-1.0245e-05
2.09182e-05
3.7489e-09
-2.02788e-05
3.09456e-05
-4.36998e-10
-3.2212e-05
3.79651e-05
-9.33223e-10
-4.52529e-05
4.22158e-05
-5.64007e-10
-5.86771e-05
4.39123e-05
-5.37772e-10
-7.17717e-05
4.31916e-05
-4.80498e-10
-8.38125e-05
4.0153e-05
-2.82863e-10
-9.40849e-05
3.49786e-05
3.00001e-10
2.81302e-05
5.89737e-10
-0.00010198
-3.36182e-06
1.11891e-05
-4.90339e-09
-1.12043e-05
2.87565e-05
4.14431e-09
-2.20623e-05
4.18042e-05
-5.7291e-10
-3.48927e-05
5.07967e-05
-1.18702e-09
-4.88501e-05
5.61739e-05
-8.23e-10
-6.3173e-05
5.82361e-05
-8.1681e-10
-7.71007e-05
5.71201e-05
-7.98649e-10
-8.98186e-05
5.28715e-05
-6.43097e-10
-0.000100443
4.56023e-05
5.17305e-10
3.57723e-05
1.64158e-09
-0.000108087
-3.40185e-06
1.45956e-05
-4.65651e-09
-1.13473e-05
3.66978e-05
4.23781e-09
-2.23373e-05
5.27947e-05
-6.1642e-10
-3.53004e-05
6.37611e-05
-1.30039e-09
-4.93778e-05
7.02523e-05
-9.89679e-10
-6.3806e-05
7.26653e-05
-1.02538e-09
-7.78164e-05
7.11317e-05
-1.13597e-09
-9.0544e-05
6.56005e-05
-1.36195e-09
-0.000100939
5.59966e-05
6.78892e-10
4.25035e-05
4.17047e-09
-0.000107674
-3.18153e-06
1.77817e-05
-4.53125e-09
-1.06801e-05
4.41923e-05
4.08419e-09
-2.10882e-05
6.32034e-05
-5.58522e-10
-3.33676e-05
7.60417e-05
-1.26221e-09
-4.6675e-05
8.35607e-05
-1.03118e-09
-6.02699e-05
8.62612e-05
-1.04794e-09
-7.34187e-05
8.42817e-05
-1.18743e-09
-8.52788e-05
7.74627e-05
-2.10604e-09
-9.47213e-05
6.54372e-05
2.00491e-09
4.75691e-05
1.45155e-08
-9.98015e-05
-2.73206e-06
2.05175e-05
-3.75597e-09
-9.28757e-06
5.07441e-05
3.71167e-09
-1.84451e-05
7.23614e-05
-3.8476e-10
-2.92337e-05
8.68314e-05
-1.05618e-09
-4.08245e-05
9.51525e-05
-9.67797e-10
-5.24828e-05
9.79206e-05
-1.04671e-09
-6.35097e-05
9.531e-05
-1.40509e-09
-7.31379e-05
8.70958e-05
-4.91915e-09
-8.03797e-05
7.26805e-05
-1.46602e-09
4.98716e-05
3.25842e-08
-8.27147e-05
-2.11792e-06
-2.72041e-09
2.26382e-05
-7.35966e-06
3.20853e-09
5.59826e-05
-1.47418e-05
-6.92465e-11
7.97436e-05
-2.3365e-05
-6.02644e-10
9.54551e-05
-3.237e-05
-6.38325e-10
0.000104158
-4.09253e-05
-9.33225e-10
0.000106477
-4.82071e-05
-1.97952e-09
0.000102594
-5.32942e-05
-1.22348e-08
9.21951e-05
-5.50745e-05
-2.86237e-08
7.44894e-05
9.84062e-09
-5.23753e-05
4.71625e-05
1.56595e-07
-1.56705e-07
-5.8044e-11
-5.40945e-07
6.99243e-07
-5.04148e-11
-2.0692e-06
1.53085e-06
-3.33284e-11
-4.18223e-06
2.11637e-06
-2.06909e-11
-6.6446e-06
2.46614e-06
-1.12359e-11
-9.26126e-06
2.62061e-06
-4.49656e-12
-1.18715e-05
2.61424e-06
-2.23191e-12
-1.43363e-05
2.46857e-06
-9.0464e-13
-1.65341e-05
2.20124e-06
-2.98205e-13
1.84093e-06
1.33714e-13
-1.83721e-05
-7.30197e-07
5.7201e-07
-5.04175e-11
-3.30266e-06
3.27212e-06
-3.89065e-11
-7.50885e-06
5.73554e-06
-2.77546e-11
-1.29248e-05
7.52994e-06
-1.85003e-11
-1.91021e-05
8.6406e-06
-1.04509e-11
-2.56215e-05
9.1369e-06
-4.74091e-12
-3.21026e-05
9.09227e-06
-2.04165e-12
-3.82025e-05
8.56554e-06
-7.61697e-13
-4.36255e-05
7.62167e-06
-2.79602e-13
6.36843e-06
7.26588e-14
-4.81552e-05
-1.69979e-06
2.2693e-06
-3.42407e-11
-6.13846e-06
7.71307e-06
-2.8131e-11
-1.27349e-05
1.23321e-05
-2.07583e-11
-2.08882e-05
1.56832e-05
-1.42396e-11
-3.00101e-05
1.77626e-05
-7.80494e-12
-3.95418e-05
1.86687e-05
-3.58656e-12
-4.89548e-05
1.85054e-05
-1.53551e-12
-5.7755e-05
1.73659e-05
-3.88652e-13
-6.5507e-05
1.5374e-05
-1.90864e-14
1.27518e-05
2.48099e-13
-7.18902e-05
-2.49795e-06
4.7636e-06
-2.18127e-11
-8.51937e-06
1.37377e-05
-1.88239e-11
-1.71005e-05
2.09132e-05
-1.33618e-11
-2.74487e-05
2.60311e-05
-8.98506e-12
-3.88603e-05
2.91742e-05
-4.67848e-12
-5.06792e-05
3.04878e-05
-1.989e-12
-6.22707e-05
3.00971e-05
-6.13382e-13
-7.30182e-05
2.81137e-05
-2.08651e-14
-8.23544e-05
2.47106e-05
1.43948e-13
2.02392e-05
3.10131e-13
-8.98414e-05
-3.06365e-06
7.82279e-06
-1.32281e-11
-1.02436e-05
2.09214e-05
-1.15281e-11
-2.02772e-05
3.09464e-05
-7.41028e-12
-3.22116e-05
3.79646e-05
-4.67022e-12
-4.52529e-05
4.2215e-05
-2.40209e-12
-5.86772e-05
4.39115e-05
-7.20206e-13
-7.17717e-05
4.31911e-05
-6.11971e-14
-8.38121e-05
4.01538e-05
4.48451e-14
-9.40853e-05
3.49841e-05
1.42225e-13
2.81375e-05
2.8097e-13
-0.000101983
-3.37124e-06
1.11891e-05
-7.20577e-12
-1.12028e-05
2.8757e-05
-5.00934e-12
-2.20607e-05
4.18037e-05
-3.64022e-12
-3.48926e-05
5.07954e-05
-2.17891e-12
-4.88506e-05
5.61721e-05
-9.78082e-13
-6.31739e-05
5.8234e-05
-2.30027e-13
-7.71014e-05
5.71178e-05
2.93521e-14
-8.98182e-05
5.287e-05
8.69747e-14
-0.000100443
4.56095e-05
1.84411e-13
3.5787e-05
2.47023e-13
-0.000108091
-3.41124e-06
1.45957e-05
-3.6156e-12
-1.13458e-05
3.66959e-05
-4.0478e-13
-2.23359e-05
5.27932e-05
-7.12993e-13
-3.53009e-05
6.37592e-05
-1.13197e-12
-4.93794e-05
7.02496e-05
-6.19577e-13
-6.38083e-05
7.2662e-05
-7.68204e-14
-7.78187e-05
7.1127e-05
1.20618e-13
-9.05441e-05
6.5594e-05
1.49647e-13
-0.000100938
5.6004e-05
1.93587e-13
4.2536e-05
2.2747e-13
-0.000107683
-3.19035e-06
1.77815e-05
-9.13989e-13
-1.06787e-05
4.41883e-05
-7.11889e-13
-2.10872e-05
6.32011e-05
-6.73904e-13
-3.33688e-05
7.60395e-05
-4.1072e-13
-4.66778e-05
8.35576e-05
7.37965e-15
-6.0274e-05
8.62571e-05
1.96992e-13
-7.34233e-05
8.42752e-05
2.18218e-13
-8.52791e-05
7.74477e-05
1.77214e-13
-9.47088e-05
6.54357e-05
1.69431e-13
4.76521e-05
1.24534e-13
-9.98104e-05
-2.73949e-06
2.05173e-05
-7.60259e-13
-9.28625e-06
5.07388e-05
-2.35738e-13
-1.84443e-05
7.23588e-05
1.95969e-13
-2.92356e-05
8.68297e-05
3.9083e-13
-4.08293e-05
9.51503e-05
4.12304e-13
-5.24913e-05
9.79181e-05
3.45802e-13
-6.35242e-05
9.53066e-05
2.82458e-13
-7.31578e-05
8.70763e-05
2.31386e-13
-8.03559e-05
7.26324e-05
1.69692e-13
4.99894e-05
-5.22815e-14
-8.26606e-05
-2.12333e-06
-4.00867e-14
2.26379e-05
-7.35805e-06
2.19038e-13
5.59767e-05
-1.47405e-05
4.15817e-13
7.97411e-05
-2.33659e-05
5.24256e-13
9.54545e-05
-3.23748e-05
4.31303e-13
0.000104159
-4.09372e-05
3.13624e-13
0.00010648
-4.82359e-05
2.97146e-13
0.000102603
-5.33828e-05
3.98304e-13
9.2211e-05
-5.52159e-05
4.84561e-13
7.44368e-05
1.76568e-13
-5.21462e-05
4.69295e-05
1.56676e-07
-1.56624e-07
-1.07959e-10
-5.4088e-07
6.99289e-07
-1.78022e-09
-2.06916e-06
1.53087e-06
-2.6196e-09
-4.18221e-06
2.11638e-06
-3.3455e-09
-6.64459e-06
2.46614e-06
-3.77753e-09
-9.26125e-06
2.62061e-06
-3.95429e-09
-1.18715e-05
2.61424e-06
-3.96386e-09
-1.43363e-05
2.46857e-06
-3.8066e-09
-1.65341e-05
2.20124e-06
-3.45651e-09
1.84093e-06
-2.88978e-09
-1.83721e-05
-7.30152e-07
5.72073e-07
1.4057e-09
-3.30262e-06
3.27216e-06
-4.40278e-10
-7.50883e-06
5.73556e-06
1.4785e-09
-1.29248e-05
7.52995e-06
2.37049e-09
-1.91021e-05
8.64061e-06
2.82164e-09
-2.56215e-05
9.1369e-06
3.10574e-09
-3.21026e-05
9.09227e-06
3.11804e-09
-3.82025e-05
8.56554e-06
2.9003e-09
-4.36255e-05
7.62167e-06
2.5444e-09
6.36843e-06
2.19559e-09
-4.81552e-05
-1.69977e-06
2.26933e-06
2.4801e-09
-6.13844e-06
7.71309e-06
-2.29479e-09
-1.27349e-05
1.23322e-05
-1.28723e-10
-2.08882e-05
1.56832e-05
7.68156e-11
-3.00101e-05
1.77626e-05
-1.29346e-10
-3.95418e-05
1.86687e-05
-1.17597e-10
-4.89548e-05
1.85054e-05
-1.27339e-10
-5.7755e-05
1.73659e-05
-1.85255e-10
-6.5507e-05
1.5374e-05
-2.53098e-10
1.27518e-05
-1.55747e-10
-7.18902e-05
-2.49794e-06
4.76362e-06
3.63316e-09
-8.51936e-06
1.37377e-05
-3.21204e-09
-1.71004e-05
2.09132e-05
2.04636e-12
-2.74487e-05
2.60311e-05
2.75264e-10
-3.88603e-05
2.91742e-05
-9.12749e-11
-5.06792e-05
3.04878e-05
-1.31533e-10
-6.22707e-05
3.00971e-05
-1.70855e-10
-7.30182e-05
2.81137e-05
-2.76696e-10
-8.23544e-05
2.47106e-05
-4.77313e-10
2.02392e-05
-4.20567e-10
-8.98414e-05
-3.06365e-06
7.8228e-06
4.46302e-09
-1.02436e-05
2.09214e-05
-3.76468e-09
-2.02772e-05
3.09464e-05
4.24939e-10
-3.22116e-05
3.79646e-05
9.25608e-10
-4.52529e-05
4.2215e-05
5.6013e-10
-5.86772e-05
4.39115e-05
5.36212e-10
-7.17717e-05
4.31911e-05
4.79989e-10
-8.38121e-05
4.01538e-05
2.82918e-10
-9.40853e-05
3.49841e-05
-2.99803e-10
2.81375e-05
-5.89418e-10
-0.000101983
-3.37124e-06
1.11891e-05
4.89803e-09
-1.12028e-05
2.8757e-05
-4.15042e-09
-2.20607e-05
4.18037e-05
5.67124e-10
-3.48926e-05
5.07954e-05
1.18358e-09
-4.88506e-05
5.61721e-05
8.21386e-10
-6.31739e-05
5.8234e-05
8.16478e-10
-7.71014e-05
5.71178e-05
7.98865e-10
-8.98182e-05
5.287e-05
6.43329e-10
-0.000100443
4.56095e-05
-5.17133e-10
3.5787e-05
-1.64133e-09
-0.000108091
-3.41124e-06
1.45957e-05
4.65524e-09
-1.13458e-05
3.66959e-05
-4.24028e-09
-2.23359e-05
5.27932e-05
6.12838e-10
-3.53009e-05
6.37592e-05
1.2982e-09
-4.93793e-05
7.02496e-05
9.89188e-10
-6.38083e-05
7.2662e-05
1.02589e-09
-7.78187e-05
7.11271e-05
1.13654e-09
-9.05441e-05
6.5594e-05
1.36222e-09
-0.000100938
5.6004e-05
-6.78716e-10
4.2536e-05
-4.17022e-09
-0.000107683
-3.19035e-06
1.77815e-05
4.53183e-09
-1.06787e-05
4.41883e-05
-4.08476e-09
-2.10872e-05
6.32011e-05
5.57727e-10
-3.33688e-05
7.60395e-05
1.26198e-09
-4.66778e-05
8.35576e-05
1.03158e-09
-6.0274e-05
8.62571e-05
1.04864e-09
-7.34233e-05
8.42752e-05
1.1879e-09
-8.52791e-05
7.74477e-05
2.10629e-09
-9.47088e-05
6.54357e-05
-2.00465e-09
4.76521e-05
-1.45151e-08
-9.98104e-05
-2.73949e-06
2.05173e-05
3.757e-09
-9.28625e-06
5.07388e-05
-3.71065e-09
-1.84443e-05
7.23588e-05
3.85184e-10
-2.92356e-05
8.68297e-05
1.05635e-09
-4.08293e-05
9.51503e-05
9.68137e-10
-5.24913e-05
9.79181e-05
1.04708e-09
-6.35242e-05
9.53066e-05
1.4053e-09
-7.31578e-05
8.70763e-05
4.91926e-09
-8.03559e-05
7.26324e-05
1.46616e-09
4.99894e-05
-3.25838e-08
-8.26606e-05
-2.12333e-06
2.72107e-09
2.26379e-05
-7.35805e-06
-3.20785e-09
5.59767e-05
-1.47405e-05
6.96085e-11
7.97411e-05
-2.33659e-05
6.02785e-10
9.54545e-05
-3.23748e-05
6.38504e-10
0.000104159
-4.09372e-05
9.33342e-10
0.00010648
-4.82359e-05
1.97949e-09
0.000102603
-5.33828e-05
1.22345e-08
9.2211e-05
-5.52159e-05
2.86234e-08
7.44368e-05
-9.84063e-09
-5.21462e-05
4.69295e-05
1.55375e-07
-1.55484e-07
-5.40206e-07
6.93807e-07
-2.06839e-06
1.52556e-06
-4.18207e-06
2.11034e-06
-6.64472e-06
2.45888e-06
-9.2614e-06
2.61272e-06
-1.18716e-05
2.60621e-06
-1.43362e-05
2.46078e-06
-1.65337e-05
2.19407e-06
1.83492e-06
-1.83715e-05
-7.25423e-07
5.71336e-07
-3.29694e-06
3.26488e-06
-7.5038e-06
5.73389e-06
-1.29213e-05
7.53024e-06
-1.91004e-05
8.64079e-06
-2.56214e-05
9.13678e-06
-3.21038e-05
9.09172e-06
-3.82045e-05
8.56441e-06
-4.36278e-05
7.61993e-06
6.36682e-06
-4.81575e-05
-1.69434e-06
2.26815e-06
-6.13765e-06
7.7059e-06
-1.27341e-05
1.23302e-05
-2.08872e-05
1.56834e-05
-3.00095e-05
1.7763e-05
-3.95417e-05
1.86689e-05
-4.89552e-05
1.85051e-05
-5.77556e-05
1.73646e-05
-6.55074e-05
1.53715e-05
1.27495e-05
-7.18902e-05
-2.49108e-06
4.76286e-06
-8.52048e-06
1.37321e-05
-1.71016e-05
2.09114e-05
-2.74489e-05
2.6031e-05
-3.88603e-05
2.91743e-05
-5.06792e-05
3.04877e-05
-6.22708e-05
3.00965e-05
-7.30184e-05
2.81119e-05
-8.23539e-05
2.47065e-05
2.02352e-05
-8.98401e-05
-3.05511e-06
7.82243e-06
-1.0245e-05
2.09182e-05
-2.02788e-05
3.09456e-05
-3.2212e-05
3.79651e-05
-4.52529e-05
4.22158e-05
-5.86771e-05
4.39123e-05
-7.17717e-05
4.31916e-05
-8.38125e-05
4.0153e-05
-9.40849e-05
3.49786e-05
2.81302e-05
-0.00010198
-3.36182e-06
1.11891e-05
-1.12043e-05
2.87565e-05
-2.20623e-05
4.18042e-05
-3.48927e-05
5.07967e-05
-4.88501e-05
5.61739e-05
-6.3173e-05
5.82361e-05
-7.71007e-05
5.71201e-05
-8.98186e-05
5.28715e-05
-0.000100443
4.56023e-05
3.57723e-05
-0.000108087
-3.40184e-06
1.45956e-05
-1.13473e-05
3.66978e-05
-2.23373e-05
5.27947e-05
-3.53004e-05
6.37611e-05
-4.93778e-05
7.02523e-05
-6.3806e-05
7.26653e-05
-7.78164e-05
7.11317e-05
-9.0544e-05
6.56005e-05
-0.000100939
5.59966e-05
4.25035e-05
-0.000107674
-3.18153e-06
1.77817e-05
-1.06801e-05
4.41923e-05
-2.10882e-05
6.32035e-05
-3.33676e-05
7.60417e-05
-4.6675e-05
8.35607e-05
-6.02699e-05
8.62612e-05
-7.34187e-05
8.42817e-05
-8.52788e-05
7.74627e-05
-9.47213e-05
6.54372e-05
4.75691e-05
-9.98015e-05
-2.73206e-06
2.05175e-05
-9.28757e-06
5.07441e-05
-1.84451e-05
7.23614e-05
-2.92337e-05
8.68314e-05
-4.08245e-05
9.51525e-05
-5.24828e-05
9.79206e-05
-6.35097e-05
9.531e-05
-7.31379e-05
8.70958e-05
-8.03797e-05
7.26805e-05
4.98716e-05
-8.27147e-05
-2.11792e-06
2.26382e-05
-7.35966e-06
5.59826e-05
-1.47418e-05
7.97436e-05
-2.3365e-05
9.54551e-05
-3.237e-05
0.000104158
-4.09253e-05
0.000106477
-4.82071e-05
0.000102594
-5.32942e-05
9.21951e-05
-5.50745e-05
7.44894e-05
-5.23753e-05
4.71625e-05
-1.98079e-05
1.43421e-06
2.17541e-09
-2.08641e-05
1.05468e-06
1.52386e-09
-2.1603e-05
7.37869e-07
1.01028e-09
-2.21018e-05
4.98196e-07
6.39183e-10
-2.24341e-05
3.3187e-07
3.93668e-10
-2.26611e-05
2.26788e-07
2.45765e-10
-2.28308e-05
1.69564e-07
1.68855e-10
-2.29799e-05
1.48948e-07
1.42795e-10
-2.31366e-05
1.56531e-07
1.54006e-10
-2.33227e-05
1.85903e-07
1.93806e-10
-2.3554e-05
2.31044e-07
2.55907e-10
-2.38387e-05
2.84327e-07
3.33915e-10
-2.41734e-05
3.34308e-07
4.18024e-10
-2.45375e-05
3.6361e-07
4.91904e-10
-2.48854e-05
3.47425e-07
5.28597e-10
-2.51397e-05
2.53747e-07
4.84566e-10
-2.5188e-05
4.80243e-08
3.05234e-10
-2.48853e-05
-3.02647e-07
-4.32717e-11
-2.40786e-05
-8.06058e-07
-6.5649e-10
-1.43663e-06
-1.57994e-09
-2.26404e-05
-5.17048e-05
4.98345e-06
-1.94204e-09
-5.43297e-05
3.68125e-06
-1.62216e-09
-5.61866e-05
2.59604e-06
-1.28428e-09
-5.74602e-05
1.77272e-06
-9.82553e-10
-5.83243e-05
1.19678e-06
-7.36338e-10
-5.8924e-05
8.2703e-07
-5.55366e-10
-5.93721e-05
6.18127e-07
-4.39199e-10
-5.9754e-05
5.31201e-07
-3.8042e-10
-6.01331e-05
5.3601e-07
-3.68661e-10
-6.05551e-05
6.08305e-07
-3.91585e-10
-6.10485e-05
7.24832e-07
-4.34505e-10
-6.16209e-05
8.57212e-07
-4.77774e-10
-6.22515e-05
9.65446e-07
-4.94452e-10
-6.28795e-05
9.92009e-07
-4.48951e-10
-6.33901e-05
8.58322e-07
-2.97546e-10
-6.36032e-05
4.6683e-07
5.57185e-12
-6.32691e-05
-2.86549e-07
4.90355e-10
-6.20864e-05
-1.48645e-06
1.1458e-09
-5.97412e-05
-3.15319e-06
1.93103e-09
-5.19209e-06
2.66972e-09
-5.59884e-05
-7.67864e-05
9.87992e-06
-2.38373e-10
-8.03282e-05
7.22341e-06
-4.16702e-10
-8.27815e-05
5.04982e-06
-4.57891e-10
-8.44349e-05
3.42655e-06
-4.36028e-10
-8.55414e-05
2.30366e-06
-3.73262e-10
-8.63001e-05
1.58603e-06
-2.98682e-10
-8.68589e-05
1.17718e-06
-2.30994e-10
-8.7325e-05
9.97443e-07
-1.77238e-10
-8.77747e-05
9.85893e-07
-1.38561e-10
-8.82604e-05
1.09411e-06
-1.12291e-10
-8.88118e-05
1.27631e-06
-9.40411e-11
-8.94325e-05
1.47794e-06
-7.80904e-11
-9.00908e-05
1.62382e-06
-5.75549e-11
-9.07061e-05
1.60738e-06
-2.4067e-11
-9.11317e-05
1.28388e-06
3.3501e-11
-9.1138e-05
4.73037e-07
1.24556e-10
-9.04049e-05
-1.01997e-06
2.43959e-10
-8.85344e-05
-3.35729e-06
3.83866e-10
-8.51004e-05
-6.58775e-06
5.28067e-10
-1.0541e-05
4.49329e-10
-7.97519e-05
-9.53308e-05
1.53711e-05
-3.80411e-10
-9.90951e-05
1.09883e-05
-6.14169e-10
-0.000101565
7.52003e-06
-6.11031e-10
-0.000103147
5.009e-06
-5.43881e-10
-0.000104158
3.31579e-06
-4.33549e-10
-0.000104825
2.25307e-06
-3.21291e-10
-0.000105299
1.6518e-06
-2.28154e-10
-0.000105684
1.38186e-06
-1.57365e-10
-0.000106046
1.34857e-06
-1.07018e-10
-0.000106432
1.47972e-06
-7.30102e-11
-0.000106865
1.70942e-06
-5.11844e-11
-0.000107348
1.96081e-06
-3.77341e-11
-0.000107852
2.12851e-06
-2.90089e-11
-0.000108307
2.06178e-06
-1.93751e-11
-0.000108574
1.55163e-06
5.29799e-12
-0.00010843
3.28615e-07
6.06718e-11
-0.000107537
-1.91359e-06
1.29787e-10
-0.000105436
-5.45782e-06
2.60148e-10
-0.000101584
-1.04401e-05
5.09753e-10
-1.66614e-05
4.50267e-10
-9.54645e-05
-0.00010729
2.06813e-05
-1.03533e-09
-0.000110542
1.42422e-05
-1.16184e-09
-0.000112429
9.408e-06
-9.42821e-10
-0.000113494
6.07414e-06
-7.37882e-10
-0.000114094
3.9161e-06
-5.20296e-10
-0.000114444
2.60353e-06
-3.42416e-10
-0.000114667
1.8757e-06
-2.19183e-10
-0.000114835
1.54957e-06
-1.39367e-10
-0.000114988
1.50142e-06
-9.13289e-11
-0.000115151
1.64299e-06
-6.57404e-11
-0.000115339
1.89796e-06
-5.61945e-11
-0.000115558
2.17951e-06
-5.83985e-11
-0.000115797
2.36758e-06
-6.9151e-11
-0.000116021
2.28546e-06
-8.21844e-11
-0.000116146
1.67724e-06
-7.30388e-11
-0.000116009
1.91106e-07
-7.23152e-12
-0.000115315
-2.60767e-06
6.23667e-11
-0.000113586
-7.18674e-06
2.56263e-10
-0.000110138
-1.38892e-05
8.97835e-10
-2.26338e-05
1.28907e-09
-0.000104167
-0.000112354
2.4951e-05
-2.20914e-09
-0.000114302
1.61923e-05
-1.88832e-09
-0.000115022
1.01292e-05
-1.1856e-09
-0.000115187
6.23996e-06
-7.94406e-10
-0.00011514
3.86929e-06
-4.68057e-10
-0.00011503
2.49388e-06
-2.47147e-10
-0.000114911
1.75701e-06
-1.22693e-10
-0.000114796
1.43442e-06
-5.65508e-11
-0.000114683
1.38819e-06
-2.42543e-11
-0.000114568
1.52828e-06
-1.19179e-11
-0.000114453
1.78258e-06
-1.27071e-11
-0.000114345
2.07152e-06
-2.41559e-11
-0.00011426
2.28291e-06
-4.64019e-11
-0.000114218
2.24362e-06
-7.85548e-11
-0.000114227
1.68583e-06
-9.76802e-11
-0.000114242
2.06793e-07
-5.90116e-11
-0.000114096
-2.75345e-06
-3.20922e-11
-0.000113373
-7.91058e-06
1.413e-10
-0.000111258
-1.60059e-05
1.54606e-09
-2.7412e-05
3.27593e-09
-0.000106483
-0.000109845
2.71278e-05
-5.87511e-09
-0.000109634
1.5985e-05
-3.88542e-09
-0.000108698
9.19454e-06
-1.79924e-09
-0.000107741
5.28466e-06
-9.38221e-10
-0.000106972
3.10041e-06
-3.99274e-10
-0.000106395
1.91714e-06
-1.23718e-10
-0.000105954
1.31572e-06
-1.54159e-11
-0.000105585
1.06514e-06
2.01486e-11
-0.000105235
1.03882e-06
2.45452e-11
-0.00010487
1.16297e-06
1.46313e-11
-0.000104472
1.38435e-06
-3.93139e-12
-0.000104047
1.64663e-06
-3.05495e-11
-0.000103632
1.86789e-06
-6.65209e-11
-0.000103301
1.91284e-06
-1.15167e-10
-0.000103167
1.55244e-06
-1.52001e-10
-0.000103361
4.0048e-07
-7.7489e-11
-0.000103945
-2.16976e-06
9.32199e-11
-0.000104732
-7.12362e-06
4.6734e-10
-0.000104922
-1.58196e-05
3.74004e-09
-2.97488e-05
9.00342e-09
-0.000102594
-9.83956e-05
2.57319e-05
-9.9778e-09
-9.52193e-05
1.28128e-05
-4.06208e-09
-9.24524e-05
6.42848e-06
-8.27782e-10
-9.04867e-05
3.31927e-06
-3.13852e-10
-8.91816e-05
1.79525e-06
4.04644e-11
-8.83153e-05
1.05064e-06
1.65284e-10
-8.77019e-05
7.02169e-07
1.56541e-10
-8.72073e-05
5.70412e-07
1.28844e-10
-8.67392e-05
5.70677e-07
1.06848e-10
-8.62368e-05
6.60479e-07
9.14227e-11
-8.5666e-05
8.13457e-07
7.87471e-11
-8.5023e-05
1.00355e-06
6.28267e-11
-8.4346e-05
1.19083e-06
3.42612e-11
-8.37355e-05
1.30237e-06
-3.33097e-11
-8.33815e-05
1.19855e-06
-1.32034e-10
-8.35856e-05
6.04706e-07
-4.24794e-11
-8.47253e-05
-1.03024e-06
1.24918e-10
-8.7116e-05
-4.73245e-06
-4.64006e-10
-9.04246e-05
-1.25143e-05
3.30408e-09
-2.79991e-05
1.43798e-08
-9.21887e-05
-7.51421e-05
1.81717e-05
-1.24627e-08
-6.88181e-05
6.48328e-06
5.52415e-09
-6.49237e-05
2.52787e-06
6.19147e-09
-6.26787e-05
1.07166e-06
2.649e-09
-6.13843e-05
4.99531e-07
1.37241e-09
-6.06026e-05
2.68074e-07
8.34087e-10
-6.00778e-05
1.76867e-07
5.25719e-10
-5.96591e-05
1.51279e-07
3.9929e-10
-5.92524e-05
1.63629e-07
3.84233e-10
-5.87958e-05
2.03434e-07
4.32506e-10
-5.82491e-05
2.66175e-07
5.18911e-10
-5.75944e-05
3.48205e-07
6.21617e-10
-5.68471e-05
4.42856e-07
7.0239e-10
-5.60797e-05
5.34373e-07
6.62973e-10
-5.54659e-05
5.84308e-07
3.77811e-10
-5.53645e-05
5.0346e-07
-8.73962e-11
-5.63603e-05
-3.28389e-08
-1.6645e-09
-5.94977e-05
-1.58736e-06
-7.69609e-09
-6.58714e-05
-6.13004e-06
-1.04574e-08
-1.94112e-05
1.55278e-08
-7.44749e-05
-3.41344e-05
-6.91994e-08
-2.76393e-05
-1.18018e-08
-2.51105e-05
-8.62807e-10
-2.4037e-05
-1.89568e-09
-2.35362e-05
-1.23279e-09
-2.32676e-05
-5.80605e-10
-2.30904e-05
-3.29599e-10
-2.29389e-05
-2.34456e-10
-2.2775e-05
-2.08346e-10
-2.25714e-05
-2.29379e-10
-2.23049e-05
-2.83759e-10
-2.19563e-05
-3.57966e-10
-2.1513e-05
-4.32814e-10
-2.09782e-05
-4.74588e-10
-2.03935e-05
-3.66833e-10
-1.98903e-05
2.07116e-10
-1.99239e-05
7.71834e-10
-2.15087e-05
-2.56415e-09
-2.76438e-05
5.07707e-09
8.76224e-08
-4.71426e-05
-1.98085e-05
1.43855e-06
3.15586e-13
-2.08646e-05
1.05762e-06
1.3294e-13
-2.16033e-05
7.39765e-07
-2.19091e-14
-2.21021e-05
4.9936e-07
8.89626e-15
-2.24342e-05
3.32569e-07
1.98163e-14
-2.26612e-05
2.27224e-07
-5.63129e-14
-2.28309e-05
1.6988e-07
-1.65845e-13
-2.298e-05
1.49242e-07
-1.63704e-13
-2.31367e-05
1.56872e-07
-1.42671e-13
-2.33229e-05
1.86341e-07
-1.4189e-13
-2.35542e-05
2.31616e-07
-9.21166e-14
-2.38389e-05
2.85048e-07
-5.3613e-14
-2.41737e-05
3.35172e-07
-5.45942e-14
-2.45378e-05
3.64572e-07
-5.35719e-14
-2.48856e-05
3.48394e-07
-3.83648e-14
-2.51397e-05
2.54582e-07
-2.30006e-14
-2.51877e-05
4.82771e-08
-3.44781e-14
-2.48849e-05
-3.02861e-07
-5.51318e-14
-2.40782e-05
-8.07372e-07
-7.68392e-14
-1.43966e-06
-1.02235e-13
-2.26401e-05
-5.17023e-05
4.98373e-06
2.53158e-13
-5.43272e-05
3.68092e-06
1.85005e-13
-5.61843e-05
2.5956e-06
9.1985e-14
-5.74583e-05
1.77233e-06
5.83224e-14
-5.83229e-05
1.19648e-06
6.83103e-15
-5.89231e-05
8.26836e-07
-4.48264e-14
-5.93717e-05
6.18006e-07
-1.30781e-13
-5.97539e-05
5.31116e-07
-1.81444e-13
-6.01333e-05
5.35924e-07
-1.78597e-13
-6.05556e-05
6.0818e-07
-1.66144e-13
-6.1049e-05
7.24629e-07
-1.54901e-13
-6.16213e-05
8.56893e-07
-1.42339e-13
-6.22516e-05
9.64986e-07
-1.07234e-13
-6.28789e-05
9.91419e-07
-6.6855e-14
-6.33885e-05
8.57681e-07
-4.51523e-14
-6.36002e-05
4.66313e-07
-4.23037e-14
-6.32648e-05
-2.867e-07
-3.55126e-14
-6.20808e-05
-1.48568e-06
-2.39321e-14
-5.97351e-05
-3.1512e-06
-3.28367e-14
-5.18953e-06
-2.62652e-14
-5.59825e-05
-7.67858e-05
9.87903e-06
3.87821e-13
-8.03268e-05
7.22156e-06
3.29266e-13
-8.27798e-05
5.04818e-06
2.17992e-13
-8.44333e-05
3.42533e-06
1.38651e-13
-8.554e-05
2.30286e-06
3.17694e-14
-8.62991e-05
1.58558e-06
-7.98922e-14
-8.68582e-05
1.17695e-06
-1.52069e-13
-8.73246e-05
9.97321e-07
-1.86427e-13
-8.77746e-05
9.85794e-07
-1.68797e-13
-8.82605e-05
1.09396e-06
-1.57674e-13
-8.8812e-05
1.27603e-06
-1.6451e-13
-8.94327e-05
1.47746e-06
-1.50105e-13
-9.00908e-05
1.62309e-06
-1.00626e-13
-9.07058e-05
1.6064e-06
-7.8058e-14
-9.11308e-05
1.28273e-06
-8.0851e-14
-9.11364e-05
4.72001e-07
-7.552e-14
-9.04024e-05
-1.02048e-06
-6.61075e-14
-8.85312e-05
-3.35644e-06
-6.23068e-14
-8.50973e-05
-6.58464e-06
-3.95477e-14
-1.05369e-05
1.04921e-14
-7.97494e-05
-9.53306e-05
1.53678e-05
3.91655e-13
-9.90935e-05
1.09838e-05
3.24851e-13
-0.000101563
7.5167e-06
2.18568e-13
-0.000103145
5.00676e-06
1.02296e-13
-0.000104157
3.31446e-06
-3.48928e-14
-0.000104824
2.25238e-06
-1.75285e-13
-0.000105299
1.65149e-06
-2.11621e-13
-0.000105683
1.38174e-06
-2.31668e-13
-0.000106046
1.34851e-06
-2.07328e-13
-0.000106432
1.47962e-06
-1.47907e-13
-0.000106865
1.70918e-06
-1.18274e-13
-0.000107348
1.96034e-06
-1.03303e-13
-0.000107852
2.12772e-06
-9.03023e-14
-0.000108307
2.06062e-06
-8.89406e-14
-0.000108574
1.55016e-06
-9.44773e-14
-0.000108429
3.27237e-07
-1.0111e-13
-0.000107535
-1.9146e-06
-1.05056e-13
-0.000105434
-5.4571e-06
-5.57693e-14
-0.000101583
-1.04356e-05
1.54574e-14
-1.66553e-05
8.20815e-14
-9.54638e-05
-0.000107289
2.06726e-05
3.07522e-13
-0.000110539
1.42334e-05
2.10847e-13
-0.000112426
9.40257e-06
1.07623e-13
-0.000113491
6.07093e-06
8.97869e-15
-0.000114092
3.91441e-06
-1.04387e-13
-0.000114442
2.60277e-06
-2.20081e-13
-0.000114667
1.87543e-06
-2.1555e-13
-0.000114834
1.54951e-06
-1.77626e-13
-0.000114988
1.50142e-06
-1.25865e-13
-0.000115151
1.64293e-06
-9.14762e-14
-0.00011534
1.89776e-06
-1.15089e-13
-0.000115558
2.17905e-06
-1.2188e-13
-0.000115797
2.36673e-06
-1.03562e-13
-0.000116021
2.28412e-06
-9.42471e-14
-0.000116146
1.6754e-06
-1.08253e-13
-0.000116008
1.89434e-07
-1.0823e-13
-0.000115313
-2.6095e-06
-4.87742e-14
-0.000113584
-7.18657e-06
3.6928e-14
-0.000110136
-1.38825e-05
7.26187e-14
-2.26227e-05
7.77258e-14
-0.000104167
-0.000112351
2.49307e-05
2.30113e-13
-0.000114297
1.6177e-05
1.91024e-13
-0.000115017
1.01223e-05
8.76832e-15
-0.000115184
6.23669e-06
-1.87895e-14
-0.000115138
3.86793e-06
-1.39455e-13
-0.000115029
2.49349e-06
-1.86961e-13
-0.000114911
1.757e-06
-2.09477e-13
-0.000114796
1.43453e-06
-1.57268e-13
-0.000114683
1.38829e-06
-1.13229e-13
-0.000114568
1.5283e-06
-1.12958e-13
-0.000114453
1.78244e-06
-1.46509e-13
-0.000114345
2.07112e-06
-1.45684e-13
-0.00011426
2.28212e-06
-1.27041e-13
-0.000114218
2.24226e-06
-1.38096e-13
-0.000114227
1.68376e-06
-1.32674e-13
-0.000114242
2.04746e-07
-7.30106e-14
-0.000114095
-2.75648e-06
-3.36472e-16
-0.00011337
-7.91195e-06
3.38026e-14
-0.000111255
-1.59958e-05
-1.19663e-14
-2.7389e-05
-5.76211e-14
-0.000106485
-0.000109838
2.70799e-05
2.17652e-13
-0.000109624
1.59591e-05
2.72617e-13
-0.000108691
9.18756e-06
-4.36137e-14
-0.000107738
5.28273e-06
-1.49181e-13
-0.000106971
3.10013e-06
-3.13258e-13
-0.000106395
1.91742e-06
-2.47487e-13
-0.000105954
1.31605e-06
-2.41505e-13
-0.000105584
1.06538e-06
-1.9789e-13
-0.000105235
1.03896e-06
-1.47647e-13
-0.00010487
1.163e-06
-1.50128e-13
-0.000104472
1.38422e-06
-1.78593e-13
-0.000104047
1.64626e-06
-1.77473e-13
-0.000103632
1.86715e-06
-1.69849e-13
-0.000103301
1.91147e-06
-1.37989e-13
-0.000103168
1.55022e-06
-5.63757e-14
-0.000103361
3.97804e-07
2.16224e-14
-0.000103943
-2.17389e-06
4.80963e-14
-0.000104728
-7.12681e-06
1.40231e-14
-0.000104918
-1.58022e-05
-5.49869e-14
-2.96939e-05
-7.23649e-14
-0.000102604
-9.83811e-05
2.56407e-05
1.26559e-13
-9.52089e-05
1.27828e-05
1.2996e-13
-9.24491e-05
6.42687e-06
-7.8933e-14
-9.04866e-05
3.31996e-06
-4.33869e-14
-8.91823e-05
1.79587e-06
-2.12441e-13
-8.83159e-05
1.05118e-06
-2.37956e-13
-8.77022e-05
7.02518e-07
-2.40578e-13
-8.72073e-05
5.70604e-07
-2.12244e-13
-8.6739e-05
5.70769e-07
-1.76977e-13
-8.62364e-05
6.60496e-07
-1.87613e-13
-8.56655e-05
8.13394e-07
-1.99458e-13
-8.50226e-05
1.00337e-06
-1.88623e-13
-8.43458e-05
1.19045e-06
-1.43532e-13
-8.3736e-05
1.3016e-06
-4.16723e-14
-8.3383e-05
1.19706e-06
5.53776e-14
-8.35877e-05
6.02485e-07
7.6157e-14
-8.4729e-05
-1.03243e-06
5.34068e-14
-8.71188e-05
-4.73751e-06
4.67395e-14
-9.04224e-05
-1.24952e-05
-6.58783e-16
-2.78974e-05
-2.23984e-14
-9.22045e-05
-7.51235e-05
1.80911e-05
-2.14417e-13
-6.88257e-05
6.49051e-06
-4.22639e-13
-6.49325e-05
2.53985e-06
-4.32507e-13
-6.26852e-05
1.07531e-06
-2.05565e-13
-6.13882e-05
5.0025e-07
-2.67376e-13
-6.06045e-05
2.68319e-07
-3.029e-13
-6.00785e-05
1.7707e-07
-2.82631e-13
-5.96591e-05
1.51532e-07
-2.36531e-13
-5.92519e-05
1.63988e-07
-2.04901e-13
-5.87949e-05
2.03953e-07
-1.9761e-13
-5.82479e-05
2.66919e-07
-1.92159e-13
-5.75932e-05
3.49254e-07
-1.6405e-13
-5.68463e-05
4.443e-07
-7.924e-14
-5.60804e-05
5.36334e-07
1.66443e-14
-5.54697e-05
5.86739e-07
1.73676e-14
-5.5371e-05
5.03705e-07
-4.04837e-14
-5.63755e-05
-2.9577e-08
-5.18735e-14
-5.95243e-05
-1.5964e-06
3.75703e-14
-6.58876e-05
-6.14241e-06
2.79637e-14
-1.93471e-05
-8.59306e-14
-7.44224e-05
-3.41243e-05
4.34798e-13
-2.76456e-05
-6.95906e-14
-2.51066e-05
-5.20045e-13
-2.40332e-05
-2.9736e-13
-2.35342e-05
-2.205e-13
-2.32664e-05
-2.2863e-13
-2.30897e-05
-2.21488e-13
-2.29384e-05
-1.94981e-13
-2.27746e-05
-1.72483e-13
-2.25709e-05
-1.57262e-13
-2.23043e-05
-1.38235e-13
-2.19554e-05
-8.7818e-14
-2.15115e-05
-3.13215e-15
-2.09756e-05
2.25168e-14
-2.03893e-05
-3.77161e-14
-1.98853e-05
-9.84824e-14
-1.99142e-05
-3.35874e-14
-2.15131e-05
3.49637e-14
-2.76504e-05
-1.46111e-13
-2.45212e-13
-4.69099e-05
-1.98085e-05
1.43855e-06
-2.17516e-09
-2.08646e-05
1.05762e-06
-1.52358e-09
-2.16033e-05
7.39765e-07
-1.01035e-09
-2.21021e-05
4.9936e-07
-6.39385e-10
-2.24342e-05
3.32569e-07
-3.93844e-10
-2.26612e-05
2.27224e-07
-2.45984e-10
-2.28309e-05
1.6988e-07
-1.69182e-10
-2.298e-05
1.49242e-07
-1.43227e-10
-2.31367e-05
1.56872e-07
-1.54485e-10
-2.33229e-05
1.86341e-07
-1.94232e-10
-2.35542e-05
2.31616e-07
-2.56288e-10
-2.38389e-05
2.85048e-07
-3.34198e-10
-2.41737e-05
3.35172e-07
-4.18223e-10
-2.45378e-05
3.64572e-07
-4.92082e-10
-2.48856e-05
3.48394e-07
-5.28755e-10
-2.51397e-05
2.54582e-07
-4.84676e-10
-2.51877e-05
4.8277e-08
-3.05308e-10
-2.48849e-05
-3.02861e-07
4.31849e-11
-2.40782e-05
-8.07372e-07
6.56381e-10
-1.43966e-06
1.57984e-09
-2.26401e-05
-5.17023e-05
4.98373e-06
1.94261e-09
-5.43272e-05
3.68092e-06
1.62253e-09
-5.61843e-05
2.5956e-06
1.28447e-09
-5.74583e-05
1.77233e-06
9.82689e-10
-5.83229e-05
1.19648e-06
7.36384e-10
-5.89231e-05