/*--------------------------------*- C++ -*----------------------------------*\
| =========                 |                                                 |
| \\      /  F ield         | OpenFOAM: The Open Source CFD Toolbox           |
|  \\    /   O peration     | Version:  2.4.0                                 |
|   \\  /    A nd           | Web:      www.OpenFOAM.org                      |
|    \\/     M anipulation  |                                                 |
\*---------------------------------------------------------------------------*/
FoamFile
{
    version     2.0;
    format      ascii;
    class       volVectorField;
    location    "4.4";
    object      U;
}
// * * * * * * * * * * * * * * * * * * * * * * * * * * * * * * * * * * * * * //

dimensions      [0 1 -1 0 0 0 0];

internalField   nonuniform List<vector> 
4800
(
(0.000306895 -0.000311123 -8.48413e-07)
(1.83556e-05 0.000156712 0.000216734)
(-0.00184459 0.000665276 0.000445053)
(-0.00484087 0.00100909 0.000614493)
(-0.00857333 0.00120425 0.000681005)
(-0.0126997 0.00128856 0.000624127)
(-0.016936 0.00128963 0.000437545)
(-0.0210437 0.00122138 0.000121745)
(-0.0248121 0.00109121 -0.000317256)
(-0.0280639 0.000911214 -0.000866544)
(-0.000182438 -2.06837e-05 -0.000218181)
(-0.0024856 0.00239482 4.23617e-06)
(-0.00807666 0.0047515 0.000173667)
(-0.0159666 0.00645138 0.000274947)
(-0.0254093 0.00748831 0.000289911)
(-0.035724 0.00795537 0.00020258)
(-0.0462686 0.00793936 6.22746e-06)
(-0.0564611 0.00750067 -0.00030156)
(-0.0657816 0.00669512 -0.000719503)
(-0.0738032 0.00561271 -0.00124109)
(-0.000779978 0.00197258 -0.00045213)
(-0.00522448 0.00810617 -0.000158181)
(-0.0143276 0.0135692 1.21975e-05)
(-0.0264043 0.0175661 9.17925e-05)
(-0.0404494 0.0200549 8.92468e-05)
(-0.0555889 0.0211658 -4.32214e-06)
(-0.0709514 0.021042 -0.000193236)
(-0.0857108 0.0198071 -0.000481379)
(-0.0991064 0.0176095 -0.000871957)
(-0.110501 0.014701 -0.00136469)
(-0.00125984 0.00539693 -0.000611081)
(-0.00751224 0.0166361 -0.000230504)
(-0.0195855 0.0259326 -3.60079e-05)
(-0.0350828 0.0326419 4.57398e-05)
(-0.0527575 0.0367958 4.55466e-05)
(-0.0716007 0.0385818 -3.94356e-05)
(-0.0905844 0.0381857 -0.000211821)
(-0.108699 0.0357788 -0.000478115)
(-0.124974 0.0316055 -0.000847832)
(-0.138548 0.0261227 -0.00132944)
(-0.00158923 0.00992003 -0.000619876)
(-0.00914946 0.0273794 -0.000164054)
(-0.0234079 0.0410459 5.61591e-05)
(-0.0413984 0.0507137 0.000150548)
(-0.0616771 0.0566167 0.00016607)
(-0.0831389 0.0590358 0.000103419)
(-0.104649 0.0581851 -4.08843e-05)
(-0.125055 0.0542471 -0.000278885)
(-0.143186 0.0475267 -0.000630289)
(-0.157885 0.0386877 -0.00111924)
(-0.00176177 0.0151489 -0.000428682)
(-0.0100466 0.0395959 8.3235e-05)
(-0.0255447 0.0580115 0.000324813)
(-0.0449516 0.0708025 0.000439204)
(-0.0667006 0.0785007 0.000483028)
(-0.0896335 0.0815134 0.000457802)
(-0.112558 0.0800651 0.00035591)
(-0.134228 0.0742914 0.000155858)
(-0.153286 0.0644689 -0.000177897)
(-0.168159 0.0513833 -0.000700214)
(-0.00177752 0.020657 -1.33423e-05)
(-0.0101672 0.0524259 0.000532482)
(-0.025869 0.0757606 0.000787831)
(-0.0455006 0.0917427 0.000927428)
(-0.0674583 0.10125 0.00101156)
(-0.0905768 0.104839 0.00104048)
(-0.113663 0.102725 0.000999433)
(-0.135453 0.094923 0.000853586)
(-0.15449 0.0815214 0.000545664)
(-0.168641 0.0631573 -4.0784e-05)
(-0.00164333 0.0260149 0.000626633)
(-0.00952686 0.0649728 0.00118422)
(-0.0243828 0.093148 0.00144445)
(-0.0429923 0.112254 0.00161284)
(-0.063785 0.123513 0.00174848)
(-0.085616 0.127642 0.00184979)
(-0.107334 0.124851 0.00189342)
(-0.127753 0.114967 0.00182919)
(-0.145552 0.0976829 0.00157744)
(-0.158 0.0728759 0.000903938)
(-0.00137961 0.030821 0.00146892)
(-0.00821502 0.0763775 0.00201888)
(-0.0212653 0.109038 0.00227488)
(-0.0376602 0.131007 0.00247319)
(-0.0558901 0.143798 0.00266836)
(-0.0748026 0.148301 0.00285826)
(-0.0932538 0.144767 0.00301177)
(-0.110149 0.132883 0.00306272)
(-0.124691 0.111895 0.00292121)
(-0.133988 0.0800761 0.00214649)
(-0.00102612 0.0347476 0.00247086)
(-0.00641846 0.0859174 0.00299932)
(-0.0169322 0.122431 0.00324213)
(-0.0301535 0.146753 0.00346729)
(-0.0446093 0.160567 0.0037235)
(-0.0590252 0.164896 0.00401308)
(-0.0720459 0.160083 0.00430672)
(-0.0822769 0.14581 0.00453431)
(-0.0894278 0.121191 0.00466392)
(-0.0924894 0.083522 0.00406957)
(0.000312201 -0.00031533 -2.23169e-07)
(2.59155e-05 0.000150906 1.25601e-06)
(-0.00184071 0.000651293 1.96894e-06)
(-0.00483821 0.000989329 2.56516e-06)
(-0.00857182 0.00118131 2.91998e-06)
(-0.0126991 0.00126406 3.06953e-06)
(-0.0169362 0.00126508 3.08216e-06)
(-0.0210448 0.00119814 2.96308e-06)
(-0.0248144 0.00107039 2.69189e-06)
(-0.0280673 0.000893459 2.25085e-06)
(-0.000174965 -2.75958e-05 -1.22405e-06)
(-0.00248243 0.00239296 2.55351e-07)
(-0.00808415 0.00474029 -1.20704e-06)
(-0.0159713 0.006435 -1.8798e-06)
(-0.0254117 0.0074701 -2.21527e-06)
(-0.0357247 0.0079363 -2.42546e-06)
(-0.0462676 0.00792042 -2.42929e-06)
(-0.0564591 0.00748291 -2.25743e-06)
(-0.0657796 0.00667941 -1.97932e-06)
(-0.073802 0.00559914 -1.70735e-06)
(-0.000763915 0.00196712 -2.00217e-06)
(-0.00521316 0.00811282 1.72818e-06)
(-0.0143345 0.0135723 5.89467e-08)
(-0.0264065 0.0175694 -8.67465e-08)
(-0.0404495 0.0200601 8.58491e-08)
(-0.0555888 0.021172 8.41087e-08)
(-0.0709506 0.0210487 9.56385e-08)
(-0.0857096 0.019814 1.43111e-07)
(-0.0991063 0.0176165 1.96892e-07)
(-0.110503 0.0147067 1.216e-07)
(-0.00123679 0.00539207 -2.86935e-06)
(-0.00749585 0.0166402 2.46308e-06)
(-0.0195947 0.0259317 -2.78655e-08)
(-0.0350847 0.0326392 -2.31472e-07)
(-0.0527565 0.0367936 6.18668e-08)
(-0.0715999 0.03858 9.80786e-08)
(-0.090583 0.0381843 1.30929e-07)
(-0.108697 0.0357785 2.14778e-07)
(-0.124974 0.0316073 3.7136e-07)
(-0.138553 0.0261248 3.27526e-07)
(-0.00156159 0.00991689 -3.49854e-06)
(-0.00913083 0.0273818 2.90711e-06)
(-0.0234206 0.0410439 -3.45528e-07)
(-0.0414015 0.0507095 -7.29427e-07)
(-0.0616761 0.0566121 -4.40594e-07)
(-0.0831379 0.0590311 -4.18843e-07)
(-0.104647 0.0581806 -3.73893e-07)
(-0.125051 0.0542439 -2.20082e-07)
(-0.143184 0.047528 2.33365e-07)
(-0.157893 0.0386912 4.58856e-07)
(-0.00173156 0.0151478 -3.82524e-06)
(-0.0100269 0.0395972 3.21928e-06)
(-0.0255597 0.0580104 -4.48521e-07)
(-0.0449558 0.0708 -9.24914e-07)
(-0.0667 0.0784975 -6.40915e-07)
(-0.0896326 0.0815098 -6.35591e-07)
(-0.112555 0.0800609 -6.21278e-07)
(-0.13422 0.0742878 -5.00227e-07)
(-0.153279 0.0644735 4.02419e-07)
(-0.168174 0.0513954 1.27694e-06)
(-0.00174688 0.0206582 -3.90008e-06)
(-0.0101477 0.0524261 3.29577e-06)
(-0.0258851 0.0757604 -4.79954e-07)
(-0.0455057 0.091742 -1.01232e-06)
(-0.0674584 0.101249 -7.70275e-07)
(-0.0905767 0.104837 -7.97689e-07)
(-0.113661 0.102722 -8.83552e-07)
(-0.13544 0.0949182 -1.05927e-06)
(-0.154472 0.0815322 5.28118e-07)
(-0.168671 0.0631959 3.24384e-06)
(-0.00161465 0.0260184 -3.53033e-06)
(-0.00950895 0.0649722 3.17591e-06)
(-0.0243987 0.0931489 -4.34943e-07)
(-0.0429979 0.112255 -9.82019e-07)
(-0.0637859 0.123513 -8.0208e-07)
(-0.085617 0.127641 -8.15006e-07)
(-0.107334 0.124846 -9.23482e-07)
(-0.12773 0.114951 -1.63797e-06)
(-0.1455 0.0976789 1.55946e-06)
(-0.158047 0.0729373 1.12899e-05)
(-0.00135468 0.0308262 -2.92651e-06)
(-0.00819969 0.0763764 2.88647e-06)
(-0.0212798 0.109041 -2.9921e-07)
(-0.0376659 0.131011 -8.21228e-07)
(-0.0558921 0.143802 -7.52478e-07)
(-0.0748071 0.148305 -8.13918e-07)
(-0.0932649 0.144765 -1.0927e-06)
(-0.110131 0.13285 -3.82589e-06)
(-0.124585 0.111819 -1.14014e-06)
(-0.134037 0.0800458 2.53432e-05)
(-0.00100618 0.0347537 -2.11922e-06)
(-0.00640611 0.085916 2.49556e-06)
(-0.0169436 0.122435 -5.36283e-08)
(-0.0301577 0.146761 -4.68381e-07)
(-0.0446107 0.16058 -4.96203e-07)
(-0.0590319 0.164919 -7.2566e-07)
(-0.0720793 0.160127 -1.53946e-06)
(-0.0823185 0.145875 -9.51566e-06)
(-0.0893379 0.121254 -2.22625e-05)
(-0.0925686 0.0836416 7.65396e-06)
(0.000312279 -0.000315251 -1.39492e-07)
(2.60474e-05 0.000150947 -1.42657e-06)
(-0.00184064 0.000651309 -2.06542e-06)
(-0.00483817 0.000989336 -2.62156e-06)
(-0.00857181 0.00118131 -2.95109e-06)
(-0.0126991 0.00126406 -3.08366e-06)
(-0.0169362 0.00126508 -3.0895e-06)
(-0.0210448 0.00119814 -2.96592e-06)
(-0.0248144 0.00107039 -2.69276e-06)
(-0.0280673 0.000893459 -2.25095e-06)
(-0.000174925 -2.74644e-05 1.05517e-06)
(-0.00248236 0.00239303 -3.71106e-07)
(-0.0080841 0.00474033 1.12946e-06)
(-0.0159713 0.00643502 1.82975e-06)
(-0.0254117 0.00747011 2.18668e-06)
(-0.0357247 0.0079363 2.41183e-06)
(-0.0462676 0.00792042 2.42344e-06)
(-0.0564591 0.00748291 2.2551e-06)
(-0.0657796 0.00667941 1.97866e-06)
(-0.073802 0.00559914 1.70767e-06)
(-0.000763899 0.00196719 1.9066e-06)
(-0.00521313 0.00811287 -1.80525e-06)
(-0.0143345 0.0135724 -1.15511e-07)
(-0.0264065 0.0175694 4.90483e-08)
(-0.0404495 0.0200601 -1.06669e-07)
(-0.0555887 0.021172 -9.43813e-08)
(-0.0709506 0.0210487 -1.00269e-07)
(-0.0857096 0.019814 -1.44509e-07)
(-0.0991063 0.0176165 -1.96971e-07)
(-0.110503 0.0147067 -1.21003e-07)
(-0.00123678 0.00539211 2.81379e-06)
(-0.00749583 0.0166403 -2.51211e-06)
(-0.0195947 0.0259317 -8.47121e-09)
(-0.0350847 0.0326392 2.07189e-07)
(-0.0527565 0.0367936 -7.4823e-08)
(-0.0715999 0.03858 -1.03894e-07)
(-0.090583 0.0381843 -1.33478e-07)
(-0.108697 0.0357785 -2.15344e-07)
(-0.124974 0.0316073 -3.71213e-07)
(-0.138553 0.0261248 -3.26914e-07)
(-0.00156158 0.00991691 3.46589e-06)
(-0.00913082 0.0273818 -2.93679e-06)
(-0.0234206 0.0410439 3.24868e-07)
(-0.0414015 0.0507095 7.16331e-07)
(-0.0616761 0.0566121 4.33735e-07)
(-0.0831379 0.0590311 4.16478e-07)
(-0.104647 0.0581806 3.73153e-07)
(-0.125051 0.0542439 2.1997e-07)
(-0.143184 0.047528 -2.33149e-07)
(-0.157893 0.0386912 -4.58265e-07)
(-0.00173155 0.0151478 3.80954e-06)
(-0.0100269 0.0395972 -3.23218e-06)
(-0.0255597 0.0580104 4.38172e-07)
(-0.0449558 0.0708 9.18884e-07)
(-0.0667 0.0784975 6.38052e-07)
(-0.0896326 0.0815098 6.34744e-07)
(-0.112555 0.0800609 6.21233e-07)
(-0.13422 0.0742878 5.00327e-07)
(-0.153279 0.0644735 -4.02144e-07)
(-0.168174 0.0513954 -1.27644e-06)
(-0.00174688 0.0206582 3.89368e-06)
(-0.0101477 0.0524261 -3.2983e-06)
(-0.0258851 0.0757604 4.76136e-07)
(-0.0455057 0.091742 1.00881e-06)
(-0.0674584 0.101249 7.68844e-07)
(-0.0905767 0.104837 7.97743e-07)
(-0.113661 0.102722 8.83949e-07)
(-0.13544 0.0949183 1.05953e-06)
(-0.154472 0.0815322 -5.27799e-07)
(-0.168671 0.0631959 -3.24336e-06)
(-0.00161465 0.0260184 3.52933e-06)
(-0.00950895 0.0649722 -3.17772e-06)
(-0.0243987 0.0931489 4.33251e-07)
(-0.0429979 0.112255 9.81237e-07)
(-0.0637859 0.123513 8.0229e-07)
(-0.085617 0.127641 8.15665e-07)
(-0.107334 0.124846 9.24001e-07)
(-0.12773 0.114951 1.63828e-06)
(-0.1455 0.0976789 -1.55909e-06)
(-0.158047 0.0729373 -1.12894e-05)
(-0.00135468 0.0308262 2.9257e-06)
(-0.00819969 0.0763764 -2.88645e-06)
(-0.0212798 0.109041 2.99636e-07)
(-0.0376659 0.131011 8.21853e-07)
(-0.0558921 0.143802 7.53249e-07)
(-0.0748071 0.148305 8.14588e-07)
(-0.0932649 0.144765 1.09315e-06)
(-0.110131 0.13285 3.8262e-06)
(-0.124585 0.111819 1.14044e-06)
(-0.134037 0.0800458 -2.5343e-05)
(-0.00100618 0.0347537 2.1194e-06)
(-0.00640611 0.085916 -2.49495e-06)
(-0.0169436 0.122435 5.437e-08)
(-0.0301577 0.146761 4.69174e-07)
(-0.0446107 0.16058 4.96886e-07)
(-0.0590319 0.164919 7.26115e-07)
(-0.0720793 0.160127 1.53978e-06)
(-0.0823185 0.145875 9.51599e-06)
(-0.0893379 0.121254 2.2263e-05)
(-0.0925686 0.0836416 -7.65368e-06)
(0.000307321 -0.000310692 1.22967e-06)
(1.89618e-05 0.000156857 -0.000216554)
(-0.00184434 0.000665323 -0.000444951)
(-0.00484076 0.00100911 -0.000614433)
(-0.00857328 0.00120426 -0.000680972)
(-0.0126997 0.00128856 -0.000624112)
(-0.016936 0.00128963 -0.000437537)
(-0.0210437 0.00122138 -0.000121742)
(-0.0248121 0.00109121 0.000317257)
(-0.0280639 0.000911215 0.000866544)
(-0.000182297 -2.00746e-05 0.000218359)
(-0.00248536 0.00239507 -4.1138e-06)
(-0.00807651 0.00475159 -0.000173585)
(-0.0159665 0.00645142 -0.000274894)
(-0.0254093 0.00748833 -0.000289881)
(-0.035724 0.00795537 -0.000202566)
(-0.0462686 0.00793936 -6.22128e-06)
(-0.0564611 0.00750067 0.000301563)
(-0.0657816 0.00669512 0.000719504)
(-0.0738032 0.00561271 0.00124109)
(-0.000779933 0.00197283 0.000452231)
(-0.00522439 0.00810632 0.000158263)
(-0.0143275 0.0135692 -1.21377e-05)
(-0.0264043 0.0175662 -9.17526e-05)
(-0.0404494 0.0200549 -8.92248e-05)
(-0.0555889 0.0211658 4.333e-06)
(-0.0709514 0.021042 0.000193241)
(-0.0857107 0.0198071 0.00048138)
(-0.0991064 0.0176095 0.000871957)
(-0.110501 0.014701 0.00136469)
(-0.00125982 0.00539704 0.000611139)
(-0.0075122 0.0166362 0.000230556)
(-0.0195855 0.0259326 3.60464e-05)
(-0.0350827 0.0326419 -4.57141e-05)
(-0.0527574 0.0367958 -4.55329e-05)
(-0.0716007 0.0385818 3.94417e-05)
(-0.0905844 0.0381857 0.000211823)
(-0.108699 0.0357788 0.000478116)
(-0.124974 0.0316055 0.000847832)
(-0.138548 0.0261227 0.00132944)
(-0.00158922 0.00992007 0.000619911)
(-0.00914944 0.0273795 0.000164085)
(-0.0234079 0.041046 -5.61372e-05)
(-0.0413983 0.0507137 -0.000150534)
(-0.061677 0.0566167 -0.000166062)
(-0.0831389 0.0590358 -0.000103416)
(-0.104649 0.0581851 4.08851e-05)
(-0.125055 0.0542471 0.000278885)
(-0.143186 0.0475267 0.000630289)
(-0.157885 0.0386877 0.00111924)
(-0.00176177 0.0151489 0.000428698)
(-0.0100466 0.0395959 -8.32214e-05)
(-0.0255446 0.0580115 -0.000324802)
(-0.0449516 0.0708025 -0.000439197)
(-0.0667006 0.0785007 -0.000483025)
(-0.0896335 0.0815134 -0.000457802)
(-0.112558 0.0800651 -0.00035591)
(-0.134228 0.0742914 -0.000155858)
(-0.153286 0.0644689 0.000177897)
(-0.168159 0.0513833 0.000700213)
(-0.00177751 0.020657 1.3349e-05)
(-0.0101672 0.0524259 -0.000532479)
(-0.025869 0.0757606 -0.000787827)
(-0.0455006 0.0917427 -0.000927424)
(-0.0674583 0.10125 -0.00101156)
(-0.0905768 0.104839 -0.00104048)
(-0.113663 0.102725 -0.000999434)
(-0.135453 0.094923 -0.000853586)
(-0.15449 0.0815214 -0.000545665)
(-0.168641 0.0631573 4.07834e-05)
(-0.00164333 0.0260149 -0.000626632)
(-0.00952685 0.0649728 -0.00118422)
(-0.0243828 0.093148 -0.00144445)
(-0.0429923 0.112254 -0.00161284)
(-0.063785 0.123513 -0.00174848)
(-0.085616 0.127642 -0.00184979)
(-0.107334 0.124851 -0.00189342)
(-0.127753 0.114967 -0.00182919)
(-0.145552 0.0976829 -0.00157744)
(-0.158 0.0728759 -0.000903938)
(-0.00137961 0.030821 -0.00146892)
(-0.00821502 0.0763775 -0.00201888)
(-0.0212653 0.109038 -0.00227488)
(-0.0376602 0.131007 -0.00247319)
(-0.05589 0.143798 -0.00266836)
(-0.0748026 0.148301 -0.00285826)
(-0.0932538 0.144767 -0.00301177)
(-0.110149 0.132883 -0.00306272)
(-0.124691 0.111895 -0.00292121)
(-0.133988 0.0800761 -0.00214649)
(-0.00102612 0.0347476 -0.00247086)
(-0.00641846 0.0859174 -0.00299932)
(-0.0169322 0.122431 -0.00324213)
(-0.0301535 0.146753 -0.00346729)
(-0.0446093 0.160567 -0.0037235)
(-0.0590252 0.164896 -0.00401308)
(-0.0720459 0.160083 -0.00430672)
(-0.0822769 0.14581 -0.00453431)
(-0.0894278 0.121191 -0.00466392)
(-0.0924894 0.083522 -0.00406957)
(-0.0306859 0.000706906 -0.0015054)
(-0.032664 0.000512538 -0.00220833)
(-0.0340744 0.000351083 -0.00295239)
(-0.0350374 0.00023043 -0.0037203)
(-0.0356781 0.000148372 -0.0045006)
(-0.036106 9.82172e-05 -0.00528663)
(-0.0364084 7.27948e-05 -0.00607519)
(-0.036652 6.63754e-05 -0.00686555)
(-0.036888 7.5041e-05 -0.00765881)
(-0.037156 9.61884e-05 -0.0084577)
(-0.0374863 0.000127586 -0.00926665)
(-0.037899 0.000166175 -0.0100919)
(-0.0383996 0.000206693 -0.0109414)
(-0.0389712 0.000240246 -0.0118249)
(-0.0395631 0.000253096 -0.0127527)
(-0.0400785 0.000226311 -0.0137342)
(-0.0403648 0.000137639 -0.0147748)
(-0.040212 -3.26438e-05 -0.015872)
(-0.0393713 -0.000296464 -0.0170098)
(-0.0376034 -0.000641869 -0.018156)
(-0.0802664 0.0044059 -0.00185258)
(-0.0851565 0.00325996 -0.00253417)
(-0.0886717 0.0022983 -0.00326733)
(-0.0911048 0.00156553 -0.00403673)
(-0.0927533 0.00105243 -0.00483056)
(-0.0938755 0.000724358 -0.00564056)
(-0.0946767 0.000541903 -0.00646155)
(-0.0953132 0.000471102 -0.00729089)
(-0.095902 0.000485828 -0.00812804)
(-0.0965294 0.000565553 -0.00897434)
(-0.0972552 0.000690746 -0.00983284)
(-0.0981106 0.00083706 -0.0107082)
(-0.0990886 0.000969014 -0.0116064)
(-0.100129 0.00103407 -0.0125346)
(-0.101096 0.000958783 -0.0135)
(-0.101757 0.000650234 -0.0145082)
(-0.101766 7.47372e-06 -0.0155618)
(-0.100671 -0.00105229 -0.0166561)
(-0.0979572 -0.00255543 -0.0177771)
(-0.0931405 -0.00441838 -0.0188973)
(-0.119513 0.0114954 -0.00195042)
(-0.126173 0.00848716 -0.00260894)
(-0.130852 0.00598672 -0.00332275)
(-0.134028 0.00409252 -0.00407715)
(-0.136148 0.00276742 -0.00486014)
(-0.137574 0.00191466 -0.00566288)
(-0.13858 0.00142896 -0.0064794)
(-0.139366 0.00122027 -0.00730622)
(-0.140075 0.00121821 -0.0081419)
(-0.140808 0.001366 -0.00898681)
(-0.141631 0.0016092 -0.00984287)
(-0.142574 0.00188206 -0.0107134)
(-0.143619 0.00209324 -0.0116029)
(-0.144681 0.00211302 -0.0125168)
(-0.145587 0.00176584 -0.0134607)
(-0.14604 0.000835225 -0.0144398)
(-0.145599 -0.000908655 -0.0154569)
(-0.14368 -0.00365026 -0.0165102)
(-0.139593 -0.00743267 -0.0175905)
(-0.132661 -0.0120426 -0.0186769)
(-0.148889 0.0201313 -0.00191765)
(-0.156133 0.0146285 -0.00258256)
(-0.160943 0.0101684 -0.00330359)
(-0.164041 0.00686621 -0.00406492)
(-0.166012 0.00459798 -0.00485378)
(-0.167284 0.00315491 -0.00566108)
(-0.16815 0.00233267 -0.00648085)
(-0.168805 0.00196598 -0.00730951)
(-0.169382 0.00193004 -0.00814532)
(-0.169968 0.00212668 -0.00898807)
(-0.170618 0.00246396 -0.00983875)
(-0.171355 0.00283335 -0.0106995)
(-0.172164 0.00308627 -0.0115734)
(-0.172972 0.0030125 -0.0124645)
(-0.17362 0.00232598 -0.0133779)
(-0.173829 0.000668442 -0.0143192)
(-0.173155 -0.00235181 -0.0152943)
(-0.170961 -0.00706812 -0.0163072)
(-0.166417 -0.0135952 -0.0173575)
(-0.158592 -0.021611 -0.0184352)
(-0.168353 0.0290687 -0.00174695)
(-0.174924 0.0205205 -0.00245374)
(-0.178781 0.0138729 -0.00321168)
(-0.18097 0.00913912 -0.00400317)
(-0.182196 0.00599265 -0.00481476)
(-0.182895 0.00403971 -0.00563822)
(-0.18332 0.00294204 -0.00646879)
(-0.183613 0.00244782 -0.00730381)
(-0.183858 0.00237868 -0.00814195)
(-0.184103 0.00260176 -0.00898281)
(-0.184381 0.00299815 -0.00982662)
(-0.184708 0.0034306 -0.0106742)
(-0.185083 0.00371077 -0.0115271)
(-0.185475 0.00356714 -0.0123879)
(-0.185803 0.00261828 -0.0132607)
(-0.185882 0.000363116 -0.0141522)
(-0.185368 -0.00378728 -0.0150722)
(-0.183662 -0.0103994 -0.0160333)
(-0.17983 -0.0197953 -0.0170486)
(-0.172566 -0.0316773 -0.0181288)
(-0.177486 0.0370785 -0.00143111)
(-0.181977 0.0249879 -0.00223002)
(-0.183762 0.0161651 -0.00305988)
(-0.18429 0.0102421 -0.00390515)
(-0.184302 0.00649759 -0.00475437)
(-0.184144 0.0042632 -0.00560294)
(-0.183952 0.00304134 -0.00644951)
(-0.183764 0.00249807 -0.00729375)
(-0.183583 0.00241639 -0.00813558)
(-0.183401 0.0026471 -0.0089748)
(-0.183216 0.00306522 -0.00981099)
(-0.183032 0.00353033 -0.0106436)
(-0.182871 0.00384675 -0.0114722)
(-0.182765 0.00372105 -0.0122973)
(-0.182745 0.00271708 -0.0131212)
(-0.182804 0.000215986 -0.0139508)
(-0.18281 -0.00459257 -0.0147997)
(-0.182356 -0.0126233 -0.01569)
(-0.180523 -0.0246531 -0.0166538)
(-0.175506 -0.0407444 -0.0177413)
(-0.175338 0.0426609 -0.000990587)
(-0.176092 0.0266962 -0.00195058)
(-0.17474 0.0161411 -0.00288739)
(-0.173091 0.00964898 -0.0038033)
(-0.17169 0.00583408 -0.00469649)
(-0.17063 0.00368646 -0.00557166)
(-0.169841 0.00256256 -0.00643394)
(-0.169215 0.00208054 -0.00728673)
(-0.168656 0.00201761 -0.00813171)
(-0.168095 0.0022358 -0.00896909)
(-0.167486 0.00262979 -0.00979774)
(-0.166819 0.00308549 -0.0106155)
(-0.166126 0.00343948 -0.0114195)
(-0.165494 0.00343124 -0.0122073)
(-0.165077 0.00264041 -0.0129779)
(-0.165087 0.000403395 -0.0137358)
(-0.165722 -0.00427689 -0.0144968)
(-0.167 -0.0127499 -0.0152913)
(-0.168356 -0.0265988 -0.0161736)
(-0.167536 -0.0469705 -0.0172668)
(-0.159911 0.0436427 -0.000483171)
(-0.154981 0.0240428 -0.00168843)
(-0.149826 0.0130503 -0.00275442)
(-0.146063 0.00714354 -0.00374118)
(-0.143533 0.00402865 -0.00466971)
(-0.141874 0.00241974 -0.00556202)
(-0.140749 0.00163289 -0.00643273)
(-0.139903 0.00131841 -0.00728933)
(-0.139161 0.00129802 -0.00813502)
(-0.138401 0.00147529 -0.00896997)
(-0.137549 0.00178577 -0.00979206)
(-0.136572 0.00216351 -0.0105972)
(-0.13549 0.00250988 -0.0113799)
(-0.134407 0.00265295 -0.0121335)
(-0.133546 0.00228188 -0.0128524)
(-0.133301 0.000831067 -0.0135355)
(-0.13423 -0.00271082 -0.0141979)
(-0.137022 -0.0100292 -0.0148727)
(-0.142165 -0.023828 -0.0156304)
(-0.147717 -0.0477679 -0.0167066)
(-0.126777 0.0375013 -0.000200168)
(-0.114441 0.0161174 -0.00167781)
(-0.10622 0.00712812 -0.00279195)
(-0.101626 0.00331626 -0.00378636)
(-0.0990043 0.00165242 -0.0047076)
(-0.0974591 0.000916799 -0.00559041)
(-0.0964825 0.000601662 -0.00645432)
(-0.0957701 0.000496912 -0.00730694)
(-0.095137 0.000515624 -0.00815031)
(-0.0944642 0.000620428 -0.00898327)
(-0.0936714 0.000792119 -0.009802)
(-0.09271 0.00101353 -0.0106002)
(-0.0915718 0.00125618 -0.011369)
(-0.0903151 0.00146049 -0.0120971)
(-0.0891207 0.00149529 -0.0127708)
(-0.0883827 0.0010657 -0.0133792)
(-0.0887885 -0.00051002 -0.0139301)
(-0.0916528 -0.00485411 -0.0144289)
(-0.0994631 -0.0155387 -0.0149199)
(-0.11331 -0.0405964 -0.0157991)
(-0.0645161 0.0229767 -0.000851477)
(-0.0481359 0.00662618 -0.00232188)
(-0.0414202 0.00202136 -0.00307595)
(-0.0389845 0.000649995 -0.00382449)
(-0.0379264 0.000224209 -0.00458934)
(-0.0373856 9.36912e-05 -0.00536704)
(-0.037063 5.86368e-05 -0.00615536)
(-0.0368186 5.79577e-05 -0.00694912)
(-0.036578 7.46769e-05 -0.00774329)
(-0.0362924 0.000105437 -0.00853283)
(-0.0359226 0.000151011 -0.00931153)
(-0.0354341 0.000213297 -0.0100708)
(-0.0347989 0.000293717 -0.0107982)
(-0.0340038 0.000389917 -0.0114761)
(-0.0330717 0.00048539 -0.012079)
(-0.0321137 0.000517663 -0.0125712)
(-0.0314738 0.000261797 -0.0129052)
(-0.0321158 -0.00113985 -0.0130441)
(-0.0377362 -0.00641862 -0.0128671)
(-0.0564611 -0.0257209 -0.0130067)
(-0.0306896 0.000692353 1.69474e-06)
(-0.0326671 0.000501249 1.1871e-06)
(-0.0340767 0.00034274 7.86942e-07)
(-0.0350389 0.00022447 4.97897e-07)
(-0.0356789 0.000144186 3.06675e-07)
(-0.0361064 9.52423e-05 1.91407e-07)
(-0.0364085 7.05506e-05 1.31419e-07)
(-0.0366519 6.44746e-05 1.11106e-07)
(-0.0368878 7.31812e-05 1.19854e-07)
(-0.0371556 9.41424e-05 1.50881e-07)
(-0.0374858 0.000125203 1.99273e-07)
(-0.0378984 0.000163395 2.60065e-07)
(-0.038399 0.000203588 3.25587e-07)
(-0.0389706 0.000237067 3.83132e-07)
(-0.0395627 0.00025034 4.11723e-07)
(-0.0400785 0.000224777 3.77441e-07)
(-0.0403656 0.000138397 2.37747e-07)
(-0.040214 -2.83972e-05 -3.37369e-08)
(-0.0393751 -0.000287464 -5.11421e-07)
(-0.037609 -0.000627371 -1.23076e-06)
(-0.0802655 0.00439385 -1.51032e-06)
(-0.085155 0.00325009 -1.26154e-06)
(-0.0886698 0.00229075 -9.988e-07)
(-0.0911029 0.00156001 -7.64152e-07)
(-0.0927516 0.00104851 -5.72681e-07)
(-0.0938742 0.000721602 -4.31983e-07)
(-0.0946758 0.000539906 -3.41683e-07)
(-0.0953127 0.000469528 -2.95994e-07)
(-0.0959018 0.000484409 -2.86848e-07)
(-0.0965293 0.000564079 -3.04671e-07)
(-0.0972552 0.000689064 -3.38054e-07)
(-0.0981104 0.000835077 -3.71696e-07)
(-0.0990881 0.000966722 -3.84644e-07)
(-0.100128 0.00103159 -3.49229e-07)
(-0.101093 0.000956439 -2.31452e-07)
(-0.101753 0.000648598 4.31424e-09)
(-0.101761 7.36183e-06 3.81372e-07)
(-0.100666 -0.00104988 8.9116e-07)
(-0.0979528 -0.00254942 1.50189e-06)
(-0.0931379 -0.0044087 2.07644e-06)
(-0.119516 0.0114974 -1.85123e-07)
(-0.126173 0.00848756 -3.23848e-07)
(-0.130851 0.00598669 -3.55957e-07)
(-0.134027 0.00409241 -3.39009e-07)
(-0.136147 0.00276741 -2.90259e-07)
(-0.137573 0.00191483 -2.32346e-07)
(-0.138579 0.00142931 -1.79758e-07)
(-0.139365 0.0012208 -1.37983e-07)
(-0.140074 0.00121893 -1.07896e-07)
(-0.140807 0.00136691 -8.7444e-08)
(-0.141631 0.00161026 -7.32529e-08)
(-0.142574 0.00188319 -6.08349e-08)
(-0.143618 0.00209431 -4.48302e-08)
(-0.144681 0.00211381 -1.87669e-08)
(-0.145585 0.00176609 2.60074e-08)
(-0.146037 0.000834683 9.68281e-08)
(-0.145597 -0.000910258 1.89698e-07)
(-0.143678 -0.00365288 2.98524e-07)
(-0.139592 -0.00743617 4.10699e-07)
(-0.132664 -0.0120485 3.49496e-07)
(-0.148894 0.0201278 -2.95591e-07)
(-0.156134 0.0146246 -4.7743e-07)
(-0.160942 0.0101658 -4.75071e-07)
(-0.164039 0.00686479 -4.22924e-07)
(-0.16601 0.00459744 -3.37203e-07)
(-0.167282 0.00315491 -2.50001e-07)
(-0.168148 0.00233297 -1.776e-07)
(-0.168804 0.00196641 -1.22556e-07)
(-0.169381 0.00193053 -8.33717e-08)
(-0.169967 0.00212718 -5.68776e-08)
(-0.170617 0.00246442 -3.98869e-08)
(-0.171355 0.00283371 -2.9414e-08)
(-0.172164 0.00308644 -2.26161e-08)
(-0.172971 0.00301237 -1.51256e-08)
(-0.173619 0.00232551 4.05179e-09)
(-0.173827 0.000667722 4.71094e-08)
(-0.173153 -0.00235261 1.00873e-07)
(-0.170958 -0.00706812 2.02302e-07)
(-0.166417 -0.0135929 3.96492e-07)
(-0.158599 -0.0216082 3.50272e-07)
(-0.168361 0.0290598 -8.05038e-07)
(-0.174923 0.0205129 -9.03473e-07)
(-0.178778 0.0138693 -7.33217e-07)
(-0.180967 0.00913777 -5.73894e-07)
(-0.182193 0.00599261 -4.04736e-07)
(-0.182893 0.00404028 -2.66472e-07)
(-0.183319 0.00294278 -1.70624e-07)
(-0.183612 0.00244852 -1.08515e-07)
(-0.183857 0.00237927 -7.11134e-08)
(-0.184103 0.00260224 -5.11899e-08)
(-0.184381 0.0029985 -4.37773e-08)
(-0.184708 0.00343079 -4.54946e-08)
(-0.185082 0.00371074 -5.38485e-08)
(-0.185475 0.00356685 -6.39875e-08)
(-0.185802 0.00261774 -5.68849e-08)
(-0.185881 0.000362582 -5.6957e-09)
(-0.185365 -0.00378733 4.84776e-08)
(-0.183657 -0.0103972 1.99342e-07)
(-0.179827 -0.0197867 6.98371e-07)
(-0.172576 -0.0316643 1.00267e-06)
(-0.177502 0.0370605 -1.71805e-06)
(-0.181973 0.0249758 -1.46854e-06)
(-0.183755 0.0161615 -9.22105e-07)
(-0.184284 0.0102419 -6.17889e-07)
(-0.184298 0.00649874 -3.64123e-07)
(-0.184142 0.00426467 -1.92349e-07)
(-0.183951 0.00304266 -9.55834e-08)
(-0.183763 0.00249911 -4.4108e-08)
(-0.183583 0.00241719 -1.89413e-08)
(-0.183401 0.00264772 -9.34144e-09)
(-0.183216 0.0030657 -9.97831e-09)
(-0.183032 0.00353066 -1.88845e-08)
(-0.182872 0.00384691 -3.61792e-08)
(-0.182765 0.00372097 -6.11931e-08)
(-0.182744 0.00271673 -7.60654e-08)
(-0.182802 0.000215707 -4.59559e-08)
(-0.182805 -0.004592 -2.49682e-08)
(-0.182345 -0.0126195 1.09917e-07)
(-0.180513 -0.0246367 1.20248e-06)
(-0.175523 -0.0407167 2.5479e-06)
(-0.17537 0.0426361 -4.56937e-06)
(-0.176077 0.0266881 -3.02177e-06)
(-0.174724 0.0161448 -1.39942e-06)
(-0.173083 0.00965335 -7.29831e-07)
(-0.171685 0.00583764 -3.1076e-07)
(-0.170628 0.0036891 -9.63811e-08)
(-0.16984 0.00256438 -1.21483e-08)
(-0.169214 0.00208182 1.5533e-08)
(-0.168656 0.00201861 1.89904e-08)
(-0.168094 0.00223669 1.12772e-08)
(-0.167486 0.00263067 -3.18023e-09)
(-0.166819 0.00308638 -2.38835e-08)
(-0.166127 0.00344033 -5.18536e-08)
(-0.165494 0.00343181 -8.96669e-08)
(-0.165076 0.00264042 -1.18266e-07)
(-0.165084 0.000402848 -6.02648e-08)
(-0.165715 -0.00427841 7.25309e-08)
(-0.16698 -0.0127524 3.63498e-07)
(-0.16833 -0.0265873 2.90887e-06)
(-0.167569 -0.0469348 7.0026e-06)
(-0.159972 0.0436014 -7.76042e-06)
(-0.154949 0.0240531 -3.15927e-06)
(-0.149807 0.0130721 -6.43856e-07)
(-0.146058 0.00715589 -2.44135e-07)
(-0.143531 0.00403496 3.13279e-08)
(-0.141873 0.00242317 1.28401e-07)
(-0.140749 0.00163486 1.21595e-07)
(-0.139903 0.00131978 1.00066e-07)
(-0.139161 0.00129927 8.2979e-08)
(-0.138401 0.00147671 7.0976e-08)
(-0.137549 0.00178751 6.11081e-08)
(-0.136572 0.00216561 4.8735e-08)
(-0.135491 0.00251226 2.65542e-08)
(-0.134407 0.00265518 -2.593e-08)
(-0.133546 0.00228305 -1.02652e-07)
(-0.133301 0.000829655 -3.2992e-08)
(-0.134229 -0.00271933 9.71926e-08)
(-0.137001 -0.0100518 -3.60856e-07)
(-0.142119 -0.0238413 2.56984e-06)
(-0.147777 -0.0477119 1.11842e-05)
(-0.126851 0.0373042 -9.69338e-06)
(-0.114372 0.0160577 4.29625e-06)
(-0.106209 0.00711702 4.81526e-06)
(-0.101635 0.00330904 2.0602e-06)
(-0.0990097 0.00164704 1.06725e-06)
(-0.0974617 0.000913443 6.48526e-07)
(-0.0964839 0.000599454 4.08697e-07)
(-0.0957705 0.000495259 3.10396e-07)
(-0.0951368 0.000514184 2.98709e-07)
(-0.0944637 0.000618968 3.36257e-07)
(-0.0936708 0.00079049 4.03466e-07)
(-0.0927096 0.00101168 4.83375e-07)
(-0.0915721 0.0012542 5.46262e-07)
(-0.0903167 0.00145874 5.15672e-07)
(-0.0891243 0.00149452 2.93877e-07)
(-0.0883915 0.0010669 -6.80151e-08)
(-0.0888076 -0.000506718 -1.29466e-06)
(-0.0916492 -0.00484682 -5.98582e-06)
(-0.0993728 -0.0154741 -8.13349e-06)
(-0.113362 -0.0403397 1.20771e-05)
(-0.0645591 0.0228314 -5.39024e-05)
(-0.0479768 0.00655709 -9.19302e-06)
(-0.0413751 0.00199349 -6.72508e-07)
(-0.0389801 0.000634251 -1.47687e-06)
(-0.0379234 0.000215029 -9.60434e-07)
(-0.0373834 8.85147e-05 -4.52418e-07)
(-0.037062 5.54749e-05 -2.56892e-07)
(-0.0368182 5.56466e-05 -1.82761e-07)
(-0.0365779 7.25725e-05 -1.62407e-07)
(-0.0362926 0.000103151 -1.78782e-07)
(-0.0359229 0.000148302 -2.21125e-07)
(-0.0354344 0.000210069 -2.78889e-07)
(-0.0347993 0.000290101 -3.37135e-07)
(-0.0340038 0.000386503 -3.69653e-07)
(-0.0330706 0.000483529 -2.85774e-07)
(-0.0321127 0.000519598 1.61237e-07)
(-0.0314762 0.000271147 6.01191e-07)
(-0.0320739 -0.0011162 -1.99731e-06)
(-0.0375199 -0.00634434 3.95466e-06)
(-0.0564477 -0.0255257 6.8253e-05)
(-0.0306896 0.000692353 -1.69413e-06)
(-0.0326671 0.000501249 -1.1867e-06)
(-0.0340767 0.00034274 -7.87015e-07)
(-0.0350389 0.00022447 -4.9804e-07)
(-0.0356789 0.000144186 -3.06756e-07)
(-0.0361064 9.52421e-05 -1.9164e-07)
(-0.0364085 7.05505e-05 -1.31894e-07)
(-0.0366519 6.44746e-05 -1.11691e-07)
(-0.0368877 7.31811e-05 -1.20444e-07)
(-0.0371556 9.41423e-05 -1.5138e-07)
(-0.0374858 0.000125203 -1.997e-07)
(-0.0378984 0.000163395 -2.6036e-07)
(-0.038399 0.000203587 -3.25805e-07)
(-0.0389706 0.000237067 -3.83342e-07)
(-0.0395627 0.00025034 -4.11899e-07)
(-0.0400785 0.000224777 -3.77548e-07)
(-0.0403656 0.000138397 -2.37833e-07)
(-0.040214 -2.83972e-05 3.36082e-08)
(-0.0393751 -0.000287464 5.11236e-07)
(-0.037609 -0.000627371 1.23055e-06)
(-0.0802655 0.00439385 1.51108e-06)
(-0.085155 0.00325009 1.26211e-06)
(-0.0886698 0.00229075 9.99111e-07)
(-0.0911029 0.00156001 7.6437e-07)
(-0.0927516 0.00104851 5.7277e-07)