/*--------------------------------*- C++ -*----------------------------------*\
| =========                 |                                                 |
| \\      /  F ield         | OpenFOAM: The Open Source CFD Toolbox           |
|  \\    /   O peration     | Version:  2.4.0                                 |
|   \\  /    A nd           | Web:      www.OpenFOAM.org                      |
|    \\/     M anipulation  |                                                 |
\*---------------------------------------------------------------------------*/
FoamFile
{
    version     2.0;
    format      ascii;
    class       volScalarField;
    location    "3.1";
    object      p;
}
// * * * * * * * * * * * * * * * * * * * * * * * * * * * * * * * * * * * * * //

dimensions      [0 2 -2 0 0 0 0];

internalField   nonuniform List<scalar> 
4800
(
4.34299e-06
-0.00158945
-0.00326181
-0.00449702
-0.00497159
-0.00453475
-0.00313972
-0.00079069
0.00246745
0.00653874
0.00159764
-2.90458e-05
-0.0012166
-0.00191924
-0.00201386
-0.00139065
-2.06947e-06
0.00216688
0.00510731
0.00877207
0.00330951
0.00110951
-8.58456e-05
-0.000633521
-0.000602468
6.57549e-05
0.00140254
0.0034345
0.00618327
0.00964509
0.00446431
0.00161119
0.000242271
-0.000320583
-0.000304643
0.000304687
0.0015274
0.00340872
0.00601429
0.00940011
0.00451223
0.00114141
-0.000411572
-0.00106324
-0.00115591
-0.000700951
0.000327963
0.00201474
0.004497
0.00793773
0.00308869
-0.000590425
-0.00229449
-0.0030853
-0.0033738
-0.00317771
-0.002442
-0.00101706
0.00134831
0.00502852
1.76949e-05
-0.00373101
-0.0055311
-0.00649679
-0.00706464
-0.0072436
-0.00692956
-0.00588118
-0.00368752
0.000455637
-0.00470568
-0.00828353
-0.0101156
-0.0112807
-0.012206
-0.0128867
-0.0131598
-0.0126808
-0.0108632
-0.00605891
-0.0109147
-0.0141109
-0.0159099
-0.0172824
-0.0186217
-0.019918
-0.0209558
-0.0212917
-0.020243
-0.0146056
-0.0182967
-0.0209543
-0.0226569
-0.0242154
-0.0259802
-0.0279718
-0.0299899
-0.0315962
-0.0325504
-0.0281386
5.77285e-06
-0.00161009
-0.00329309
-0.00453731
-0.00501726
-0.00458272
-0.00318799
-0.00083692
0.00242554
0.00650373
0.00161557
-3.35256e-05
-0.00119924
-0.00189183
-0.00198145
-0.00135528
3.24984e-05
0.00219981
0.00513637
0.00879718
0.00333996
0.00108352
-8.7082e-05
-0.000632516
-0.000603937
6.43048e-05
0.0014008
0.00343223
0.00618028
0.00964326
0.0045084
0.0015745
0.000242372
-0.000317407
-0.000305716
0.000303104
0.00152533
0.00340545
0.00600874
0.00939524
0.004566
0.00109821
-0.000406753
-0.00105269
-0.00114957
-0.000694898
0.000333354
0.00201788
0.00449349
0.00793093
0.00314681
-0.000638362
-0.00228822
-0.0030719
-0.00336451
-0.00316846
-0.00243296
-0.0010098
0.00134231
0.00500968
7.41543e-05
-0.00378042
-0.00552444
-0.00648214
-0.00705345
-0.00723196
-0.00691665
-0.00586568
-0.00369538
0.000407833
-0.00465205
-0.00833072
-0.0101094
-0.0112665
-0.0121943
-0.0128748
-0.0131463
-0.0126568
-0.0108863
-0.00622531
-0.0108696
-0.0141535
-0.0159056
-0.0172705
-0.0186107
-0.019906
-0.0209397
-0.0212354
-0.0202263
-0.0149791
-0.018264
-0.0209911
-0.0226562
-0.0242085
-0.0259729
-0.0279611
-0.0299671
-0.0314557
-0.0322221
-0.0282508
6.26764e-06
-0.00160978
-0.00329288
-0.00453716
-0.00501716
-0.00458265
-0.00318794
-0.000836893
0.00242556
0.00650375
0.00161589
-3.32893e-05
-0.00119906
-0.00189169
-0.00198136
-0.00135522
3.25405e-05
0.00219984
0.00513638
0.00879719
0.00334018
0.0010837
-8.69368e-05
-0.000632408
-0.000603859
6.43608e-05
0.00140084
0.00343225
0.0061803
0.00964327
0.00450855
0.00157463
0.000242479
-0.000317325
-0.000305653
0.00030315
0.00152536
0.00340547
0.00600876
0.00939525
0.0045661
0.0010983
-0.000406679
-0.00105263
-0.00114952
-0.000694864
0.000333377
0.0020179
0.0044935
0.00793093
0.00314687
-0.000638305
-0.00228817
-0.00307186
-0.00336448
-0.00316844
-0.00243295
-0.00100979
0.00134231
0.00500968
7.4193e-05
-0.00378039
-0.0055244
-0.00648212
-0.00705343
-0.00723194
-0.00691664
-0.00586567
-0.00369538
0.000407832
-0.00465202
-0.00833069
-0.0101094
-0.0112665
-0.0121943
-0.0128748
-0.0131463
-0.0126568
-0.0108863
-0.00622532
-0.0108696
-0.0141535
-0.0159056
-0.0172704
-0.0186107
-0.019906
-0.0209396
-0.0212354
-0.0202263
-0.0149792
-0.0182639
-0.0209911
-0.0226562
-0.0242085
-0.0259729
-0.0279611
-0.0299671
-0.0314557
-0.0322221
-0.0282508
7.60518e-06
-0.00158829
-0.00326118
-0.00449662
-0.00497133
-0.00453458
-0.00313961
-0.000790618
0.0024675
0.00653877
0.0015988
-2.83116e-05
-0.00121609
-0.00191888
-0.00201362
-0.00139049
-1.9632e-06
0.00216695
0.00510736
0.0087721
0.00331014
0.00111002
-8.54528e-05
-0.000633238
-0.000602268
6.58937e-05
0.00140264
0.00343456
0.00618331
0.00964512
0.00446469
0.00161153
0.000242554
-0.000320368
-0.000304485
0.0003048
0.00152748
0.00340878
0.00601432
0.00940013
0.00451247
0.00114164
-0.000411376
-0.00106308
-0.0011558
-0.000700866
0.000328023
0.00201478
0.00449703
0.00793775
0.00308884
-0.00059028
-0.00229436
-0.0030852
-0.00337372
-0.00317765
-0.00244197
-0.00101704
0.00134832
0.00502853
1.77823e-05
-0.00373091
-0.00553102
-0.00649673
-0.00706459
-0.00724356
-0.00692954
-0.00588116
-0.00368752
0.00045564
-0.00470562
-0.00828347
-0.0101155
-0.0112807
-0.012206
-0.0128867
-0.0131598
-0.0126808
-0.0108632
-0.00605891
-0.0109146
-0.0141109
-0.0159099
-0.0172824
-0.0186217
-0.019918
-0.0209557
-0.0212917
-0.020243
-0.0146056
-0.0182967
-0.0209543
-0.0226569
-0.0242154
-0.0259802
-0.0279718
-0.0299899
-0.0315962
-0.0325504
-0.0281386
0.0112702
0.0164748
0.0219834
0.0276685
0.0334453
0.0392646
0.0451027
0.0509542
0.0568268
0.0627408
0.0687283
0.0748347
0.0811191
0.0876519
0.094509
0.101758
0.109439
0.117533
0.125922
0.134368
0.0130642
0.0178459
0.0229873
0.0283808
0.0339441
0.0396193
0.0453705
0.051179
0.0570414
0.0629668
0.0689765
0.0751027
0.0813875
0.0878799
0.0946297
0.101678
0.10904
0.116684
0.124513
0.132333
0.0137545
0.0183729
0.0233774
0.0286649
0.0341515
0.0397754
0.045495
0.0512857
0.0571378
0.0630537
0.0690466
0.0751397
0.0813641
0.0877571
0.0943583
0.101203
0.10831
0.115667
0.12321
0.130792
0.0135255
0.0181886
0.0232438
0.0285797
0.0341071
0.0397627
0.0455046
0.051308
0.0571608
0.0630616
0.0690171
0.0750421
0.0811582
0.0873937
0.0937832
0.100366
0.107183
0.114261
0.121598
0.129121
0.0123348
0.0172907
0.0226041
0.0281503
0.0338361
0.0396039
0.0454206
0.0512679
0.0571366
0.063024
0.0689317
0.0748656
0.0808363
0.0868616
0.0929705
0.0992095
0.105645
0.112366
0.119465
0.127011
0.0101331
0.0157333
0.0215495
0.0274704
0.0334178
0.0393598
0.0452872
0.051198
0.0570919
0.0629676
0.0688224
0.0746523
0.0804548
0.0862328
0.0920035
0.0978138
0.103758
0.109991
0.11674
0.124347
0.00705129
0.0137824
0.0203499
0.0267638
0.0330173
0.0391437
0.0451796
0.0511491
0.0570644
0.062927
0.0687292
0.0744561
0.0800882
0.0856078
0.0910095
0.0963239
0.101661
0.107232
0.11343
0.121104
0.0035027
0.011963
0.0194345
0.0263379
0.032835
0.0390789
0.045172
0.0511673
0.0570869
0.0629324
0.0686891
0.0743287
0.0798125
0.0850957
0.0901379
0.0949339
0.0995881
0.104326
0.109665
0.117263
0.0015284
0.011951
0.0197396
0.0266712
0.033107
0.0392801
0.0453237
0.0512902
0.0571936
0.0630254
0.0687591
0.074351
0.0797394
0.0848447
0.0895729
0.093847
0.0977177
0.101203
0.104654
0.110978
0.00607421
0.0172655
0.0229028
0.0284317
0.0340931
0.0398503
0.0456842
0.0515578
0.0574345
0.0632773
0.0690409
0.0746619
0.0800502
0.085076
0.0895535
0.0932218
0.0957281
0.0967803
0.0955787
0.097174
0.0112439
0.0164564
0.0219712
0.0276608
0.0334406
0.0392616
0.0451007
0.0509524
0.056825
0.0627385
0.0687252
0.0748307
0.0811141
0.087646
0.0945027
0.101753
0.109435
0.117533
0.12593
0.134387
0.0130865
0.0178644
0.023002
0.0283921
0.0339525
0.0396257
0.0453755
0.0511834
0.0570456
0.0629713
0.0689814
0.0751081
0.0813931
0.087885
0.094633
0.101677
0.109034
0.116671
0.124491
0.132303
0.0137572
0.0183777
0.0233827
0.0286699
0.0341558
0.0397788
0.0454976
0.0512878
0.0571394
0.063055
0.0690477
0.0751405
0.0813647
0.0877574
0.0943579
0.101201
0.108307
0.115663
0.123204
0.130787
0.0135298
0.0181956
0.0232508
0.0285859
0.0341121
0.0397663
0.0455072
0.0513098
0.0571621
0.0630624
0.0690177
0.0750425
0.0811585
0.0873939
0.0937831
0.100366
0.107181
0.114258
0.121592
0.129116
0.0123466
0.017304
0.0226149
0.0281587
0.033842
0.0396078
0.0454231
0.0512695
0.0571377
0.0630248
0.0689324
0.0748663
0.0808371
0.0868626
0.0929713
0.0992095
0.105645
0.112363
0.119455
0.126996
0.0101584
0.0157549
0.0215631
0.0274795
0.0334231
0.0393626
0.0452886
0.0511986
0.0570922
0.0629678
0.0688225
0.0746526
0.0804553
0.0862337
0.0920046
0.0978144
0.103758
0.109989
0.116722
0.12431
0.00711872
0.0138269
0.0203705
0.0267745
0.0330218
0.0391451
0.0451798
0.0511488
0.0570641
0.0629268
0.0687293
0.0744564
0.080089
0.0856091
0.0910112
0.0963248
0.10166
0.107227
0.113388
0.121001
0.00361725
0.0120096
0.0194439
0.0263415
0.0328346
0.039077
0.0451702
0.0511658
0.0570857
0.0629314
0.0686882
0.074328
0.0798121
0.0850961
0.0901394
0.0949344
0.0995867
0.104331
0.109628
0.117098
0.00167153
0.0118876
0.0196687
0.0266408
0.0330913
0.0392706
0.0453177
0.0512857
0.0571892
0.0630204
0.0687532
0.0743439
0.0797314
0.0848372
0.0895686
0.0938481
0.0977368
0.101291
0.104774
0.1108
0.00691237
0.017408
0.0229131
0.0284546
0.0341079
0.0398573
0.0456882
0.0515606
0.0574369
0.0632801
0.0690443
0.0746662
0.0800554
0.0850817
0.0895579
0.0932192
0.0957187
0.0968113
0.0955171
0.0961142
0.0112439
0.0164564
0.0219712
0.0276608
0.0334406
0.0392616
0.0451007
0.0509524
0.056825
0.0627385
0.0687252
0.0748307
0.0811141
0.087646
0.0945027
0.101753
0.109435
0.117533
0.12593
0.134387
0.0130865
0.0178644
0.023002
0.0283921
0.0339525
0.0396257
0.0453755
0.0511834
0.0570456
0.0629713
0.0689814
0.0751081
0.0813931
0.087885
0.094633
0.101677
0.109034
0.116671
0.124491
0.132303
0.0137572
0.0183777
0.0233827
0.0286699
0.0341558
0.0397788
0.0454976
0.0512878
0.0571394
0.063055
0.0690477
0.0751405
0.0813647
0.0877574
0.0943579
0.101201
0.108307
0.115663
0.123204
0.130787
0.0135298
0.0181956
0.0232508
0.0285859
0.0341121
0.0397663
0.0455072
0.0513098
0.0571621
0.0630624
0.0690177
0.0750425
0.0811585
0.0873939
0.0937831
0.100366
0.107181
0.114258
0.121592
0.129116
0.0123466
0.017304
0.0226149
0.0281587
0.033842
0.0396078
0.0454231
0.0512695
0.0571377
0.0630248
0.0689324
0.0748663
0.0808371
0.0868626
0.0929713
0.0992095
0.105645
0.112363
0.119455
0.126996
0.0101584
0.0157549
0.0215631
0.0274795
0.0334231
0.0393626
0.0452886
0.0511986
0.0570922
0.0629678
0.0688225
0.0746526
0.0804553
0.0862337
0.0920046
0.0978144
0.103758
0.109989
0.116722
0.12431
0.00711872
0.0138269
0.0203705
0.0267745
0.0330218
0.0391451
0.0451798
0.0511488
0.0570641
0.0629268
0.0687293
0.0744564
0.080089
0.0856091
0.0910112
0.0963248
0.10166
0.107227
0.113388
0.121001
0.00361725
0.0120096
0.0194439
0.0263415
0.0328346
0.039077
0.0451702
0.0511658
0.0570857
0.0629314
0.0686882
0.074328
0.0798121
0.0850961
0.0901394
0.0949344
0.0995867
0.104331
0.109628
0.117098
0.00167153
0.0118876
0.0196687
0.0266408
0.0330913
0.0392706
0.0453177
0.0512857
0.0571892
0.0630204
0.0687532
0.0743439
0.0797314
0.0848372
0.0895686
0.0938481
0.0977368
0.101291
0.104774
0.1108
0.00691238
0.017408
0.0229131
0.0284546
0.0341079
0.0398573
0.0456882
0.0515606
0.0574369
0.0632801
0.0690443
0.0746662
0.0800554
0.0850817
0.0895579
0.0932192
0.0957187
0.0968113
0.0955171
0.0961142
0.0112703
0.0164748
0.0219834
0.0276685
0.0334453
0.0392646
0.0451027
0.0509541
0.0568268
0.0627408
0.0687283
0.0748347
0.0811191
0.0876519
0.094509
0.101758
0.109439
0.117533
0.125922
0.134368
0.0130642
0.0178459
0.0229873
0.0283808
0.0339441
0.0396193
0.0453705
0.051179
0.0570414
0.0629669
0.0689765
0.0751027
0.0813875
0.0878799
0.0946297
0.101678
0.10904
0.116684
0.124513
0.132333
0.0137545
0.0183729
0.0233774
0.0286649
0.0341515
0.0397754
0.045495
0.0512857
0.0571378
0.0630537
0.0690466
0.0751397
0.0813641
0.0877571
0.0943583
0.101203
0.10831
0.115667
0.12321
0.130792
0.0135255
0.0181886
0.0232438
0.0285797
0.0341071
0.0397627
0.0455046
0.051308
0.0571608
0.0630616
0.0690171
0.0750421
0.0811582
0.0873937
0.0937832
0.100366
0.107183
0.114261
0.121598
0.129121
0.0123348
0.0172907
0.0226041
0.0281503
0.0338361
0.0396039
0.0454207
0.0512679
0.0571366
0.063024
0.0689317
0.0748656
0.0808363
0.0868616
0.0929705
0.0992095
0.105645
0.112366
0.119465
0.127011
0.0101331
0.0157333
0.0215495
0.0274704
0.0334178
0.0393598
0.0452872
0.051198
0.0570919
0.0629676
0.0688224
0.0746523
0.0804548
0.0862328
0.0920035
0.0978138
0.103758
0.109991
0.11674
0.124347
0.00705129
0.0137824
0.0203499
0.0267638
0.0330173
0.0391437
0.0451796
0.0511491
0.0570644
0.062927
0.0687292
0.0744561
0.0800882
0.0856078
0.0910095
0.0963239
0.101661
0.107232
0.11343
0.121104
0.0035027
0.011963
0.0194345
0.0263379
0.032835
0.0390789
0.045172
0.0511673
0.0570869
0.0629324
0.0686891
0.0743287
0.0798125
0.0850957
0.0901379
0.0949339
0.0995881
0.104326
0.109665
0.117263
0.0015284
0.011951
0.0197396
0.0266712
0.033107
0.0392801
0.0453237
0.0512902
0.0571936
0.0630254
0.0687591
0.074351
0.0797394
0.0848447
0.0895729
0.093847
0.0977177
0.101203
0.104654
0.110978
0.00607423
0.0172655
0.0229028
0.0284317
0.0340931
0.0398503
0.0456842
0.0515578
0.0574345
0.0632774
0.0690409
0.0746619
0.0800502
0.085076
0.0895535
0.0932218
0.0957281
0.0967804
0.0955787
0.097174
0.142506
0.14989
0.156101
0.160827
0.163903
0.16533
0.165285
0.164131
0.16242
0.160827
0.13985
0.146695
0.152524
0.15708
0.160224
0.161959
0.16243
0.16193
0.160791
0.159229
0.138148
0.144896
0.150692
0.15528
0.158519
0.160405
0.161061
0.160734
0.159603
0.157556
0.136589
0.143523
0.149526
0.154313
0.157728
0.159754
0.160499
0.160187
0.158901
0.15632
0.134824
0.142183
0.1486
0.153745
0.15744
0.159662
0.160516
0.16022
0.158808
0.155847
0.132832
0.140885
0.147917
0.153564
0.157635
0.160117
0.161127
0.160891
0.159435
0.156286
0.130813
0.139844
0.147641
0.153876
0.15837
0.161147
0.162353
0.162233
0.160828
0.157687
0.129205
0.139504
0.148115
0.154921
0.159794
0.162836
0.164239
0.164272
0.163007
0.160045
0.128249
0.140546
0.149926
0.157109
0.162158
0.165321
0.166852
0.167031
0.16596
0.163318
0.132655
0.146171
0.154718
0.161245
0.165836
0.168765
0.170247
0.170507
0.169643
0.167411
0.142539
0.149935
0.156155
0.160886
0.163962
0.165384
0.165329
0.164162
0.162437
0.160825
0.139813
0.146652
0.152477
0.157031
0.160176
0.161915
0.162394
0.161904
0.160786
0.159208
0.138149
0.1449
0.150699
0.155286
0.158526
0.16041
0.161061
0.160733
0.15962
0.157524
0.136596
0.143535
0.149541
0.154328
0.157742
0.159764
0.160502
0.160188
0.158928
0.15628
0.134831
0.142194
0.148612
0.153756
0.157449
0.159668
0.160515
0.160219
0.158841
0.155801
0.132842
0.140896
0.147929
0.153576
0.157644
0.160123
0.161126
0.16089
0.15947
0.156238
0.130835
0.13986
0.147654
0.153888
0.158379
0.161153
0.162351
0.162231
0.160864
0.157639
0.129345
0.13956
0.148139
0.154936
0.159801
0.162839
0.164236
0.16427
0.16304
0.159999
0.128576
0.140563
0.149903
0.157101
0.162152
0.165317
0.166846
0.167028
0.165989
0.163276
0.132543
0.145798
0.154552
0.161197
0.165817
0.168759
0.170242
0.170505
0.169669
0.167376
0.142539
0.149935
0.156155
0.160886
0.163962
0.165384
0.165329
0.164162
0.162437
0.160825
0.139813
0.146652
0.152477
0.157031
0.160176
0.161915
0.162394
0.161904
0.160786
0.159208
0.138149
0.1449
0.150699
0.155286
0.158526
0.16041
0.161061
0.160733
0.15962
0.157524
0.136596
0.143535
0.149541
0.154328
0.157742
0.159764
0.160502
0.160188
0.158928
0.15628
0.134831
0.142194
0.148612
0.153756
0.157449
0.159668
0.160515
0.160219
0.158841
0.155801
0.132842
0.140896
0.147929
0.153576
0.157644
0.160123
0.161126
0.16089
0.15947
0.156238
0.130835
0.13986
0.147654
0.153888
0.158379
0.161153
0.162351
0.162231
0.160864
0.157639
0.129345
0.13956
0.148139
0.154936
0.159801
0.162839
0.164236
0.16427
0.16304
0.159999
0.128576
0.140563
0.149903
0.157101
0.162152
0.165317
0.166846
0.167028
0.165989
0.163276
0.132543
0.145798
0.154552
0.161197
0.165817
0.168759
0.170242
0.170505
0.169669
0.167376
0.142506
0.14989
0.156101
0.160827
0.163903
0.16533
0.165285
0.164131
0.16242
0.160827
0.13985
0.146695
0.152524
0.15708
0.160224
0.161958
0.16243
0.16193
0.160791
0.159229
0.138148
0.144896
0.150692
0.15528
0.158519
0.160405
0.161061
0.160734
0.159603
0.157555
0.136589
0.143523
0.149526
0.154313
0.157728
0.159754
0.160499
0.160187
0.158901
0.15632
0.134824
0.142183
0.1486
0.153744
0.15744
0.159662
0.160516
0.16022
0.158808
0.155847
0.132832
0.140885
0.147917
0.153564
0.157635
0.160117
0.161127
0.160891
0.159435
0.156286
0.130813
0.139844
0.147641
0.153876
0.15837
0.161147
0.162353
0.162233
0.160828
0.157687
0.129205
0.139504
0.148115
0.154921
0.159794
0.162836
0.164239
0.164272
0.163007
0.160045
0.128249
0.140547
0.149926
0.157109
0.162158
0.165321
0.166852
0.167031
0.16596
0.163318
0.132655
0.146171
0.154718
0.161245
0.165836
0.168765
0.170247
0.170507
0.169643
0.167411
0.16682
0.162273
0.164258
0.167828
0.170937
0.173167
0.174384
0.174635
0.17396
0.172174
0.177951
0.172655
0.172691
0.174543
0.176532
0.178129
0.179062
0.179277
0.178774
0.177422
0.183524
0.180399
0.180132
0.181093
0.182343
0.183448
0.184134
0.184308
0.183953
0.182986
0.18898
0.187285
0.187006
0.18749
0.188259
0.189
0.189486
0.189622
0.189388
0.188738
0.194566
0.193681
0.193482
0.193732
0.194203
0.194689
0.195024
0.195128
0.194988
0.194588
0.200253
0.199833
0.199724
0.199861
0.200147
0.200456
0.200677
0.200754
0.200683
0.200474
0.206045
0.205893
0.205851
0.205925
0.206084
0.206263
0.206393
0.206442
0.206418
0.206355
0.211928
0.211951
0.211943
0.211963
0.21202
0.212086
0.21213
0.212141
0.212142
0.212192
0.21793
0.21806
0.218058
0.218012
0.217961
0.217907
0.217853
0.217808
0.217811
0.217942
0.224089
0.22428
0.224247
0.224104
0.223915
0.223713
0.22353
0.223398
0.223373
0.223555
0.23047
0.230672
0.230558
0.230268
0.229891
0.229489
0.22913
0.228869
0.228776
0.228966
0.237166
0.237302
0.237039
0.236532
0.235893
0.235223
0.234625
0.234177
0.233964
0.234099
0.244294
0.244239
0.24373
0.242914
0.241925
0.240903
0.239989
0.239288
0.238883
0.238869
0.251999
0.251545
0.250653
0.249418
0.247979
0.246517
0.245208
0.244176
0.243492
0.243192
0.260461
0.259228
0.257786
0.256013
0.25403
0.252055
0.250284
0.24885
0.247782
0.246997
0.269789
0.26726
0.265011
0.26259
0.26001
0.2575
0.255244
0.253357
0.251785
0.25027
0.280046
0.275308
0.271988
0.268883
0.265759
0.262806
0.26014
0.257808
0.255621
0.253055
0.290906
0.28261
0.278011
0.274373
0.270959
0.267862
0.265039
0.262391
0.25952
0.255524
0.30235
0.288182
0.281909
0.278113
0.275
0.272406
0.269982
0.267371
0.263854
0.258025
0.313386
0.288458
0.280489
0.277935
0.276624
0.275868
0.274925
0.27309
0.269194
0.261159
0.167658
0.162416
0.164373
0.167895
0.170962
0.173179
0.174389
0.174638
0.173983
0.172148
0.178093
0.172592
0.172737
0.174587
0.176554
0.178142
0.179069
0.179282
0.178792
0.177404
0.183534
0.180328
0.180141
0.181113
0.182357
0.183459
0.184141
0.184313
0.183967
0.182974
0.189003
0.187256
0.18701
0.187501
0.188268
0.189008
0.189492
0.189627
0.189398
0.18873
0.19458
0.193667
0.193482
0.193737
0.194208
0.194695
0.195029
0.195132
0.194994
0.194583
0.200259
0.199826
0.199722
0.199863
0.20015
0.20046
0.200681
0.200757
0.200687
0.200473
0.206047
0.205891
0.20585
0.205925
0.206086
0.206265
0.206396
0.206444
0.20642
0.206355
0.211928
0.211952
0.211942
0.211963
0.212021
0.212087
0.212132
0.212142
0.212141
0.212194
0.217928
0.218063
0.218057
0.218012
0.217961
0.217908
0.217854
0.217808
0.217808
0.217945
0.224085
0.224285
0.224246
0.224104
0.223915
0.223713
0.22353
0.223398
0.223369
0.223558
0.230465
0.230677
0.230558
0.230267
0.22989
0.229489
0.22913
0.228869
0.228771
0.22897
0.23716
0.237306
0.237038
0.23653
0.235892
0.235223
0.234625
0.234178
0.23396
0.234104
0.244289
0.244241
0.243728
0.242911
0.241924
0.240902
0.239989
0.239288
0.238881
0.238874
0.251995
0.25154
0.250649
0.249415
0.247977
0.246516
0.245208
0.244178
0.243494
0.243196
0.26046
0.259209
0.257779
0.256009
0.254027
0.252053
0.250284
0.248853
0.247792
0.246999
0.269802
0.267222
0.265004
0.262587
0.260006
0.257498
0.255244
0.253362
0.251806
0.250265
0.280097
0.275238
0.271982
0.268883
0.265753
0.262804
0.260141
0.257817
0.25566
0.253041
0.290973
0.282436
0.277987
0.274371
0.270951
0.267862
0.265041
0.262405
0.259584
0.255496
0.302466
0.287857
0.281915
0.278156
0.275014
0.272419
0.269991
0.267392
0.263953
0.257976
0.314718
0.288565
0.280783
0.278119
0.276692
0.275902
0.274941
0.27312
0.269336
0.261083
0.167658
0.162416
0.164373
0.167895
0.170962
0.173179
0.174389
0.174638
0.173983
0.172148
0.178093
0.172592
0.172737
0.174587
0.176554
0.178142
0.179069
0.179282
0.178792
0.177404
0.183534
0.180328
0.180141
0.181113
0.182357
0.183459
0.184141
0.184313
0.183967
0.182974
0.189003
0.187256
0.18701
0.187501
0.188268
0.189008
0.189492
0.189627
0.189398
0.18873
0.19458
0.193667
0.193482
0.193737
0.194208
0.194695
0.195029
0.195132
0.194994
0.194583
0.200259
0.199826
0.199722
0.199863
0.20015
0.20046
0.200681
0.200757
0.200687
0.200473
0.206047
0.205891
0.20585
0.205925
0.206086
0.206265
0.206396
0.206444
0.20642
0.206355
0.211928
0.211952
0.211942
0.211963
0.212021
0.212087
0.212132
0.212142
0.212141
0.212194
0.217928
0.218063
0.218057
0.218012
0.217961
0.217908
0.217854
0.217808
0.217808
0.217945
0.224085
0.224285
0.224246
0.224104
0.223915
0.223713
0.22353
0.223398
0.223369
0.223558
0.230465
0.230677
0.230558
0.230267
0.22989
0.229489
0.22913
0.228869
0.228771
0.22897
0.23716
0.237306
0.237038
0.23653
0.235892
0.235223
0.234625
0.234178
0.23396
0.234104
0.244289
0.244241
0.243728
0.242911
0.241924
0.240902
0.239989
0.239288
0.238881
0.238874
0.251995
0.25154
0.250649
0.249415
0.247977
0.246516
0.245208
0.244178
0.243494
0.243196
0.26046
0.25921
0.257779
0.256009
0.254027
0.252053
0.250284
0.248853
0.247792
0.246999
0.269802
0.267222
0.265004
0.262587
0.260006
0.257498
0.255244
0.253362
0.251806
0.250265
0.280097
0.275238
0.271982
0.268883
0.265753
0.262804
0.260141
0.257817
0.25566
0.253041
0.290973
0.282436
0.277987
0.274371
0.270951
0.267862
0.265041
0.262405
0.259584
0.255496
0.302466
0.287857
0.281915
0.278156
0.275014
0.272419
0.269991
0.267392
0.263953
0.257976
0.314718
0.288565
0.280783
0.278119
0.276692
0.275902
0.274941
0.27312
0.269336
0.261083
0.16682
0.162273
0.164258
0.167828
0.170937
0.173167
0.174384
0.174635
0.17396
0.172174
0.177951
0.172655
0.172691
0.174543
0.176532
0.178129
0.179062
0.179277
0.178774
0.177422
0.183524
0.180399
0.180132
0.181093
0.182343
0.183448
0.184134
0.184308
0.183953
0.182986
0.18898
0.187285
0.187006
0.18749
0.188259
0.189
0.189486
0.189622
0.189388
0.188738
0.194566
0.193681
0.193482
0.193732
0.194203
0.194689
0.195024
0.195128
0.194988
0.194588
0.200253
0.199833
0.199724
0.199861
0.200147
0.200456
0.200677
0.200755
0.200683
0.200474
0.206045
0.205893
0.205851
0.205925
0.206084
0.206263
0.206393
0.206442
0.206418
0.206355
0.211928
0.211951
0.211943
0.211963
0.21202
0.212086
0.21213
0.212141
0.212142
0.212192
0.21793
0.21806
0.218058
0.218012
0.217961
0.217907
0.217853
0.217808
0.217811
0.217942
0.224089
0.22428
0.224247
0.224104
0.223915
0.223713
0.22353
0.223398
0.223373
0.223555
0.23047
0.230672
0.230558
0.230268
0.229891
0.229489
0.22913
0.228869
0.228776
0.228966
0.237166
0.237302
0.237039
0.236532
0.235893
0.235223
0.234625
0.234177
0.233964
0.234099
0.244294
0.244239
0.24373
0.242914
0.241925
0.240903
0.239989
0.239288
0.238883
0.238869
0.251999
0.251545
0.250653
0.249418
0.247979
0.246517
0.245208
0.244176
0.243492
0.243192
0.260461
0.259228
0.257786
0.256013
0.25403
0.252055
0.250284
0.24885
0.247782
0.246997
0.269789
0.26726
0.265011
0.26259
0.26001
0.2575
0.255244
0.253357
0.251785
0.25027
0.280046
0.275308
0.271988
0.268883
0.265759
0.262806
0.26014
0.257808
0.255621
0.253055
0.290906
0.28261
0.278011
0.274373
0.270959
0.267862
0.265039
0.262391
0.25952
0.255524
0.30235
0.288182
0.281909
0.278113
0.275
0.272406
0.269982
0.267371
0.263854
0.258025
0.313386
0.288458
0.280489
0.277935
0.276624
0.275868
0.274925
0.27309
0.269194
0.261159
0.252861
0.26148
0.266732
0.270839
0.274401
0.277648
0.279859
0.280036
0.27639
0.265916
0.223737
0.239566
0.250802
0.260356
0.26944
0.278092
0.285167
0.288997
0.28671
0.273864
0.206268
0.221605
0.234971
0.248474
0.262937
0.277908
0.291554
0.301129
0.301988
0.287461
0.192761
0.206601
0.220797
0.237222
0.256658
0.278482
0.300329
0.318193
0.324917
0.31065
0.182928
0.195579
0.210249
0.229004
0.252998
0.281953
0.313543
0.342763
0.359476
0.349895
0.177025
0.189358
0.204853
0.225926
0.254363
0.290747
0.333678
0.378133
0.411252
0.415306
0.174867
0.18794
0.205022
0.228902
0.262128
0.306572
0.362805
0.427518
0.48675
0.521206
0.175571
0.190122
0.209362
0.236471
0.27491
0.328321
0.400371
0.491141
0.590931
0.694772
0.177505
0.193181
0.213859
0.243016
0.285074
0.34593
0.433897
0.557205
0.726036
1.00589
0.17887
0.19405
0.213542
0.240721
0.280279
0.339572
0.432594
0.586871
0.873223
1.49034
0.253199
0.261014
0.266605
0.270828
0.274399
0.277656
0.279864
0.280069
0.276586
0.265803
0.224157
0.239493
0.250738
0.260322
0.269418
0.278086
0.285159
0.289034
0.286973
0.273711
0.206524
0.221623
0.234939
0.248433
0.262897
0.277881
0.291523
0.301163
0.302328
0.287266
0.19285
0.206585
0.220745
0.237153
0.256585
0.278415
0.300255
0.318209
0.325328
0.310411
0.182955
0.195546
0.210178
0.228906
0.252884
0.281831
0.313404
0.342739
0.359909
0.34964
0.177032
0.189321
0.204773
0.225806
0.254205
0.290547
0.333436
0.378015
0.411607
0.415258
0.174882
0.187918
0.204955
0.22878
0.261931
0.306259
0.362374
0.427183
0.486727
0.521696
0.175615
0.190156
0.209383
0.236472
0.274858
0.32812
0.399994
0.490796
0.589631
0.694453
0.177573
0.193293
0.214043
0.243306
0.285504
0.34649
0.434639
0.557808
0.722804
1.00359
0.17892
0.194089
0.213561
0.240724
0.280292
0.339647
0.432951
0.587305
0.869534
1.49959
0.253199
0.261014
0.266605
0.270828
0.274399
0.277656
0.279864
0.280069
0.276586
0.265803
0.224157
0.239493
0.250738
0.260322
0.269418
0.278086
0.285159
0.289034
0.286973
0.273711
0.206524
0.221623
0.234939
0.248433
0.262897
0.277881
0.291523
0.301163
0.302328
0.287266
0.19285
0.206585
0.220745
0.237153
0.256585
0.278415
0.300255
0.318209
0.325328
0.310411
0.182955
0.195546
0.210178
0.228906
0.252884
0.281831
0.313404
0.342739
0.359909
0.34964
0.177032
0.189321
0.204773
0.225806
0.254205
0.290547
0.333436
0.378015
0.411607
0.415258
0.174882
0.187918
0.204955
0.22878
0.261931
0.306259
0.362374
0.427183
0.486727
0.521696
0.175615
0.190156
0.209383
0.236472
0.274858
0.32812
0.399994
0.490796
0.589631
0.694453
0.177573
0.193293
0.214043
0.243306
0.285504
0.34649
0.434639
0.557808
0.722804
1.00359
0.17892
0.194089
0.213561
0.240724
0.280292
0.339647
0.432951
0.587305
0.869534
1.49959
0.252861
0.26148
0.266732
0.270839
0.274401
0.277648
0.279859
0.280036
0.27639
0.265916
0.223737
0.239566
0.250802
0.260356
0.26944
0.278092
0.285167
0.288997
0.28671
0.273864
0.206268
0.221605
0.234971
0.248474
0.262937
0.277908
0.291554
0.301129
0.301988
0.287461
0.192761
0.206601
0.220797
0.237222
0.256658
0.278482
0.30033
0.318193
0.324917
0.31065
0.182928
0.195579
0.210249
0.229004
0.252998
0.281953
0.313543
0.342763
0.359476
0.349895
0.177025
0.189358
0.204853
0.225926
0.254363
0.290747
0.333678
0.378133
0.411252
0.415306
0.174867
0.18794
0.205022
0.228902
0.262128
0.306572
0.362805
0.427518
0.48675
0.521206
0.175571
0.190122
0.209362
0.236471
0.27491
0.328321
0.400371
0.491141
0.590931
0.694772
0.177505
0.193181
0.213859
0.243016
0.285074
0.34593
0.433897
0.557205
0.726036
1.00589
0.17887
0.19405
0.213542
0.240721
0.280279
0.339572
0.432594
0.586871
0.873223
1.49034
-0.153584
-0.132928
-0.114901
-0.0982717
-0.0816623
-0.0648674
-0.0478795
-0.0307342
-0.0134923
0.00377464
0.02099
0.0380816
0.0549826
0.071644
0.0880919
0.104514
0.121392
0.139765
0.162932
0.200684
-0.139657
-0.126176
-0.111659
-0.0964125
-0.0804855
-0.0640885
-0.0473565
-0.0303865
-0.013263
0.00393915
0.0211546
0.0383244
0.0554091
0.0724114
0.0894031
0.10659
0.124371
0.143366
0.165089
0.192997
-0.136464
-0.124468
-0.110768
-0.0959116
-0.0802182
-0.0639516
-0.0472847
-0.0303396
-0.0132101
0.00402888
0.0213165
0.0386036
0.0558568
0.0730692
0.0902796
0.107604
0.125257
0.143532
0.162987
0.184528
-0.137664
-0.125358
-0.111479
-0.0964873
-0.0806894
-0.0643252
-0.0475639
-0.0305255
-0.0132978
0.00405245
0.0214722
0.0389163
0.0563442
0.0737204
0.0910177
0.108224
0.125341
0.14237
0.159369
0.176441
-0.140373
-0.127388
-0.113016
-0.097643
-0.0815512
-0.0649564
-0.04801
-0.0308163
-0.0134484
0.00404046
0.0216065
0.0392062
0.0567869
0.0742779
0.0915815
0.108566
0.12506
0.140858
0.155789
0.169814
-0.142819
-0.129212
-0.11437
-0.0986321
-0.0822629
-0.065457
-0.0483474
-0.0310225
-0.0135413
0.00405387
0.021725
0.0394264
0.0570914
0.0746166
0.0918483
0.108574
0.12452
0.139392
0.152983
0.165352
-0.143338
-0.129489
-0.114508
-0.0986889
-0.0822716
-0.0654359
-0.0483054
-0.0309622
-0.0134613
0.00415612
0.0218501
0.0395677
0.0572283
0.0747062
0.0918166
0.108311
0.123892
0.138275
0.151319
0.163241
-0.141052
-0.127557
-0.112957
-0.097485
-0.0813592
-0.0647545
-0.0478002
-0.030588
-0.0131838
0.00436041
0.0219932
0.0396496
0.0572364
0.0746168
0.0915991
0.107939
0.123366
0.137658
0.15078
0.16309
-0.135971
-0.123608
-0.109981
-0.0952978
-0.0797826
-0.063635
-0.0470148
-0.0300438
-0.012814
0.004601
0.0221349
0.039707
0.0572151
0.0745211
0.0914402
0.107748
0.123211
0.137665
0.151143
0.164074
-0.12773
-0.117659
-0.105788
-0.0924033
-0.0778213
-0.0623278
-0.0461573
-0.0294915
-0.0124668
0.00481131
0.022253
0.0397766
0.0572791
0.074625
0.0916395
0.10811
0.123808
0.138559
0.152347
0.165497
-0.153963
-0.13281
-0.114887
-0.098294
-0.081675
-0.064875
-0.0478848
-0.0307375
-0.013494
0.00377428
0.0209906
0.0380824
0.0549826
0.0716411
0.0880822
0.104493
0.121369
0.139716
0.162602
0.200081
-0.1396
-0.126006
-0.111582
-0.0963756
-0.0804591
-0.06407
-0.0473439
-0.0303779
-0.0132575
0.00394254
0.021157
0.0383272
0.0554143
0.0724222
0.0894223
0.106623
0.12443
0.143438
0.164989
0.192739
-0.136524
-0.124442
-0.110744
-0.0958933
-0.0802034
-0.0639409
-0.0472773
-0.0303344
-0.0132065
0.00403126
0.021318
0.0386046
0.0558575
0.0730695
0.0902782
0.1076
0.125251
0.143514
0.162896