/*--------------------------------*- C++ -*----------------------------------*\
| =========                 |                                                 |
| \\      /  F ield         | OpenFOAM: The Open Source CFD Toolbox           |
|  \\    /   O peration     | Version:  2.4.0                                 |
|   \\  /    A nd           | Web:      www.OpenFOAM.org                      |
|    \\/     M anipulation  |                                                 |
\*---------------------------------------------------------------------------*/
FoamFile
{
    version     2.0;
    format      ascii;
    class       surfaceScalarField;
    location    "3.1";
    object      phi;
}
// * * * * * * * * * * * * * * * * * * * * * * * * * * * * * * * * * * * * * //

dimensions      [0 3 -1 0 0 0 0];

internalField   nonuniform List<scalar> 
12720
(
1.52285e-07
-1.53231e-07
-1.11778e-10
-5.43188e-07
6.93774e-07
1.69881e-09
-2.06797e-06
1.52221e-06
2.57463e-09
-4.17532e-06
2.10403e-06
3.31536e-09
-6.62955e-06
2.45048e-06
3.75886e-09
-9.23655e-06
2.60305e-06
3.94755e-09
-1.18365e-05
2.59594e-06
3.97211e-09
-1.42909e-05
2.45066e-06
3.80447e-09
-1.6479e-05
2.18459e-06
3.44925e-09
1.82651e-06
2.88081e-09
-1.83084e-05
-7.2548e-07
5.73725e-07
-1.47557e-09
-3.29066e-06
3.25857e-06
3.89174e-10
-7.48345e-06
5.71651e-06
-1.50828e-09
-1.28805e-05
7.50343e-06
-2.38124e-09
-1.90345e-05
8.6073e-06
-2.81542e-09
-2.55278e-05
9.09944e-06
-3.07243e-09
-3.19814e-05
9.05314e-06
-3.59664e-09
-3.80545e-05
8.52666e-06
-2.86099e-09
-4.34525e-05
7.58505e-06
-2.52424e-09
6.33632e-06
-2.18085e-09
-4.79601e-05
-1.68941e-06
2.26564e-06
-2.50576e-09
-6.11602e-06
7.68292e-06
2.25771e-09
-1.2685e-05
1.22853e-05
1.07406e-10
-2.08021e-05
1.56206e-05
-8.73745e-11
-2.98826e-05
1.76878e-05
1.27631e-10
-3.93703e-05
1.8587e-05
1.2597e-10
-4.87391e-05
1.84217e-05
1.51433e-10
-5.74972e-05
1.72846e-05
1.9721e-10
-6.52111e-05
1.52987e-05
2.59353e-10
1.2687e-05
1.59578e-10
-7.1562e-05
-2.48055e-06
4.74982e-06
-3.6288e-09
-8.48203e-06
1.36812e-05
3.18678e-09
-1.70217e-05
2.0825e-05
-8.75578e-12
-2.73178e-05
2.5917e-05
-2.75836e-10
-3.86722e-05
2.9042e-05
9.31936e-11
-5.04319e-05
3.03465e-05
1.37484e-10
-6.19656e-05
2.99553e-05
1.80062e-10
-7.26598e-05
2.79785e-05
2.84393e-10
-8.19491e-05
2.45876e-05
4.81946e-10
2.01353e-05
4.23262e-10
-8.93978e-05
-3.03953e-06
7.79377e-06
-4.42479e-09
-1.01915e-05
2.08294e-05
3.75269e-09
-2.01715e-05
3.08055e-05
-4.18584e-10
-3.20406e-05
3.7787e-05
-9.16128e-10
-4.5012e-05
4.2014e-05
-5.51514e-10
-5.83657e-05
4.37008e-05
-5.25819e-10
-7.13932e-05
4.29832e-05
-4.6831e-10
-8.33739e-05
3.99594e-05
-2.72895e-10
-9.3596e-05
3.48094e-05
3.05133e-10
2.79922e-05
5.91233e-10
-0.000101453
-3.34257e-06
1.11411e-05
-4.78243e-09
-1.11398e-05
2.86225e-05
4.1644e-09
-2.19353e-05
4.16015e-05
-5.44574e-10
-3.46926e-05
5.05455e-05
-1.16421e-09
-4.85723e-05
5.58945e-05
-8.07195e-10
-6.28182e-05
5.79475e-05
-8.03121e-10
-7.66741e-05
5.684e-05
-7.85519e-10
-8.93297e-05
5.26156e-05
-6.31437e-10
-9.99045e-05
4.53837e-05
5.21228e-10
3.56001e-05
1.63729e-09
-0.000107514
-3.38077e-06
1.45275e-05
-5.55387e-09
-1.12779e-05
3.65153e-05
4.29319e-09
-2.22013e-05
5.25255e-05
-5.79007e-10
-3.50876e-05
6.34331e-05
-1.2725e-09
-4.90846e-05
6.98924e-05
-9.71788e-10
-6.34346e-05
7.22985e-05
-1.01097e-09
-7.7374e-05
7.07806e-05
-1.12163e-09
-9.00423e-05
6.52853e-05
-1.34623e-09
-0.000100393
5.5734e-05
6.82502e-10
4.23057e-05
4.15284e-09
-0.000107103
-3.16129e-06
1.76932e-05
-4.41339e-09
-1.06124e-05
4.39623e-05
4.09945e-09
-2.09555e-05
6.28691e-05
-5.31344e-10
-3.31602e-05
7.56391e-05
-1.2394e-09
-4.63907e-05
8.31239e-05
-1.01558e-09
-5.99124e-05
8.58213e-05
-1.03526e-09
-7.29973e-05
8.38666e-05
-1.17418e-09
-8.48067e-05
7.70968e-05
-2.0855e-09
-9.42153e-05
6.51405e-05
2.00738e-09
4.73583e-05
1.44558e-08
-9.92823e-05
-2.71459e-06
2.04115e-05
-3.70772e-09
-9.22793e-06
5.0472e-05
3.70539e-09
-1.83272e-05
7.19687e-05
-3.69132e-10
-2.90494e-05
8.63623e-05
-1.0402e-09
-4.05729e-05
9.46484e-05
-9.56577e-10
-5.21697e-05
9.74191e-05
-1.03906e-09
-6.31464e-05
9.48447e-05
-1.39882e-09
-7.27397e-05
8.6695e-05
-4.89453e-09
-7.99641e-05
7.23663e-05
-1.45031e-09
4.96646e-05
3.24489e-08
-8.23028e-05
-2.1047e-06
-2.69388e-09
2.25189e-05
-7.31292e-06
3.19635e-09
5.5677e-05
-1.4648e-05
-6.12885e-11
7.93038e-05
-2.32177e-05
-5.93161e-10
9.49326e-05
-3.21705e-05
-6.3236e-10
0.000103602
-4.06818e-05
-9.31767e-10
0.000105931
-4.7934e-05
-1.98344e-09
0.000102099
-5.3011e-05
-1.22014e-08
9.17842e-05
-5.48033e-05
-2.85206e-08
7.41871e-05
9.74809e-09
-5.21343e-05
4.69859e-05
1.53961e-07
-1.54037e-07
-3.64708e-11
-5.43704e-07
6.99387e-07
-2.21206e-11
-2.06866e-06
1.52755e-06
-1.79998e-11
-4.1754e-06
2.11007e-06
-1.2551e-11
-6.62936e-06
2.45773e-06
-8.42376e-12
-9.23635e-06
2.61095e-06
-5.6421e-12
-1.18365e-05
2.6041e-06
-3.5693e-12
-1.42911e-05
2.45844e-06
-2.30088e-12
-1.64794e-05
2.19173e-06
-1.55266e-12
1.83249e-06
-9.69776e-13
-1.8309e-05
-7.30104e-07
5.74615e-07
-2.2252e-11
-3.29622e-06
3.26591e-06
-1.99507e-11
-7.48838e-06
5.71822e-06
-1.65404e-11
-1.28838e-05
7.50317e-06
-1.20828e-11
-1.9036e-05
8.60711e-06
-8.42049e-12
-2.55276e-05
9.09949e-06
-5.86095e-12
-3.19805e-05
9.05341e-06
-3.8817e-12
-3.80527e-05
8.52771e-06
-2.48648e-12
-4.34502e-05
7.58676e-06
-1.66605e-12
6.33791e-06
-1.05852e-12
-4.79578e-05
-1.69479e-06
2.26692e-06
-1.79616e-11
-6.11676e-06
7.69015e-06
-1.6367e-11
-1.26857e-05
1.22873e-05
-1.3276e-11
-2.0803e-05
1.56204e-05
-9.93826e-12
-2.98832e-05
1.76874e-05
-7.23427e-12
-3.93703e-05
1.85868e-05
-5.2117e-12
-4.87388e-05
1.8422e-05
-3.47678e-12
-5.74967e-05
1.72858e-05
-2.27451e-12
-6.52108e-05
1.53012e-05
-1.52228e-12
1.26893e-05
-9.61853e-13
-7.1562e-05
-2.48737e-06
4.75067e-06
-1.244e-11
-8.48092e-06
1.36869e-05
-1.1988e-11
-1.70205e-05
2.0827e-05
-9.89431e-12
-2.73176e-05
2.59172e-05
-7.60112e-12
-3.86722e-05
2.9042e-05
-5.77331e-12
-5.04319e-05
3.03467e-05
-4.30556e-12
-6.19655e-05
2.99558e-05
-2.90525e-12
-7.26597e-05
2.79802e-05
-1.90168e-12
-8.19496e-05
2.45916e-05
-1.254e-12
2.01393e-05
-7.75546e-13
-8.93992e-05
-3.04808e-06
7.79433e-06
-8.16417e-12
-1.01901e-05
2.08327e-05
-8.17158e-12
-2.01699e-05
3.08064e-05
-6.87885e-12
-3.20402e-05
3.77866e-05
-5.38323e-12
-4.5012e-05
4.20132e-05
-4.21813e-12
-5.83659e-05
4.37e-05
-3.19291e-12
-7.13932e-05
4.29827e-05
-2.1075e-12
-8.33735e-05
3.99603e-05
-1.30894e-12
-9.35965e-05
3.48149e-05
-7.84089e-13
2.79994e-05
-4.4501e-13
-0.000101456
-3.35215e-06
1.11417e-05
-5.22219e-12
-1.11385e-05
2.86232e-05
-5.29598e-12
-2.19337e-05
4.16011e-05
-4.5108e-12
-3.46926e-05
5.05443e-05
-3.55794e-12
-4.85729e-05
5.58927e-05
-2.83738e-12
-6.28191e-05
5.79454e-05
-2.12323e-12
-7.66749e-05
5.68377e-05
-1.32542e-12
-8.93294e-05
5.26141e-05
-7.21655e-13
-9.99048e-05
4.53909e-05
-3.31545e-13
3.56148e-05
-1.09244e-13
-0.000107519
-3.39079e-06
1.45269e-05
-3.44789e-12
-1.12766e-05
3.65133e-05
-3.44195e-12
-2.22e-05
5.25239e-05
-2.94311e-12
-3.50882e-05
6.34312e-05
-2.3142e-12
-4.90862e-05
6.98897e-05
-1.83444e-12
-6.3437e-05
7.22952e-05
-1.32656e-12
-7.73764e-05
7.0776e-05
-8.121e-13
-9.00425e-05
6.52789e-05
-4.05417e-13
-0.000100392
5.57414e-05
-1.09166e-14
4.23381e-05
2.00906e-13
-0.000107111
-3.17028e-06
1.76928e-05
-2.09873e-12
-1.06112e-05
4.39583e-05
-2.16249e-12
-2.09545e-05
6.28667e-05
-1.80549e-12
-3.31614e-05
7.56369e-05
-1.35038e-12
-4.63935e-05
8.31208e-05
-1.00602e-12
-5.99166e-05
8.58172e-05
-7.04857e-13
-7.30019e-05
8.38602e-05
-4.52676e-13
-8.4807e-05
7.7082e-05
-2.59582e-13
-9.42028e-05
6.51392e-05
1.16535e-13
4.7441e-05
4.21544e-13
-9.92912e-05
-2.72204e-06
2.04111e-05
-1.23698e-12
-9.2267e-06
5.04667e-05
-1.26951e-12
-1.83265e-05
7.19662e-05
-9.70741e-13
-2.90513e-05
8.63606e-05
-6.14661e-13
-4.05777e-05
9.46463e-05
-3.67675e-13
-5.21783e-05
9.74167e-05
-2.05793e-13
-6.31609e-05
9.48414e-05
-2.14221e-13
-7.27596e-05
8.66757e-05
-2.2453e-13
-7.99403e-05
7.23185e-05
-1.16826e-14
4.97821e-05
2.50427e-13
-8.2249e-05
-2.1101e-06
-7.38531e-13
2.25186e-05
-7.31136e-06
-7.37179e-13
5.56711e-05
-1.46467e-05
-4.46738e-13
7.93014e-05
-2.32186e-05
-1.6686e-13
9.4932e-05
-3.21753e-05
1.57095e-14
0.000103602
-4.06937e-05
1.59496e-13
0.000105934
-4.79629e-05
8.05525e-14
0.000102109
-5.30994e-05
-2.02106e-13
9.18e-05
-5.49442e-05
-3.04891e-13
7.41348e-05
-1.21985e-13
-5.19062e-05
4.67538e-05
1.54033e-07
-1.53965e-07
-1.04561e-10
-5.43648e-07
6.99427e-07
-1.76875e-09
-2.06862e-06
1.52757e-06
-2.60867e-09
-4.17538e-06
2.11008e-06
-3.33621e-09
-6.62935e-06
2.45773e-06
-3.77208e-09
-9.23634e-06
2.61095e-06
-3.9561e-09
-1.18365e-05
2.60411e-06
-3.97782e-09
-1.42911e-05
2.45844e-06
-3.80817e-09
-1.64794e-05
2.19173e-06
-3.45165e-09
1.83249e-06
-2.8824e-09
-1.8309e-05
-7.30063e-07
5.74671e-07
1.40589e-09
-3.29617e-06
3.26595e-06
-4.32426e-10
-7.48835e-06
5.71825e-06
1.47939e-09
-1.28838e-05
7.50318e-06
2.36187e-09
-1.9036e-05
8.60712e-06
2.80251e-09
-2.55276e-05
9.09949e-06
3.06401e-09
-3.19805e-05
9.05341e-06
3.59055e-09
-3.80527e-05
8.52771e-06
2.85724e-09
-4.34502e-05
7.58676e-06
2.52183e-09
6.33791e-06
2.17931e-09
-4.79578e-05
-1.69477e-06
2.26695e-06
2.47227e-09
-6.11673e-06
7.69018e-06
-2.28619e-09
-1.26857e-05
1.22873e-05
-1.28925e-10
-2.0803e-05
1.56204e-05
7.20963e-11
-2.98832e-05
1.76874e-05
-1.3825e-10
-3.93703e-05
1.85868e-05
-1.33169e-10
-4.87388e-05
1.8422e-05
-1.56394e-10
-5.74966e-05
1.72858e-05
-2.00511e-10
-6.52108e-05
1.53012e-05
-2.61443e-10
1.26893e-05
-1.60882e-10
-7.1562e-05
-2.48736e-06
4.75069e-06
3.60868e-09
-8.4809e-06
1.36869e-05
-3.20564e-09
-1.70205e-05
2.0827e-05
-6.57261e-12
-2.73176e-05
2.59172e-05
2.64379e-10
-3.86721e-05
2.9042e-05
-1.01503e-10
-5.04319e-05
3.03467e-05
-1.43351e-10
-6.19655e-05
2.99558e-05
-1.84236e-10
-7.26597e-05
2.79802e-05
-2.87175e-10
-8.19496e-05
2.45916e-05
-4.83692e-10
2.01393e-05
-4.24327e-10
-8.93992e-05
-3.04807e-06
7.79435e-06
4.41266e-09
-1.01901e-05
2.08327e-05
-3.76481e-09
-2.01699e-05
3.08064e-05
4.08096e-10
-3.20402e-05
3.77866e-05
9.07981e-10
-4.5012e-05
4.20132e-05
5.45421e-10
-5.83659e-05
4.37e-05
5.21415e-10
-7.13932e-05
4.29827e-05
4.65161e-10
-8.33735e-05
3.99603e-05
2.70825e-10
-9.35965e-05
3.48149e-05
-3.06415e-10
2.79994e-05
-5.91977e-10
-0.000101456
-3.35215e-06
1.11417e-05
4.77521e-09
-1.11385e-05
2.86232e-05
-4.17209e-09
-2.19337e-05
4.16011e-05
5.37584e-10
-3.46926e-05
5.05443e-05
1.15869e-09
-4.85729e-05
5.58927e-05
8.03047e-10
-6.28191e-05
5.79454e-05
8.00141e-10
-7.66749e-05
5.68377e-05
7.83463e-10
-8.93294e-05
5.26141e-05
6.30151e-10
-9.99048e-05
4.53909e-05
-5.22033e-10
3.56148e-05
-1.63773e-09
-0.000107519
-3.39078e-06
1.45269e-05
5.54914e-09
-1.12766e-05
3.65133e-05
-4.29787e-09
-2.22e-05
5.25239e-05
5.74575e-10
-3.50882e-05
6.34312e-05
1.26907e-09
-4.90862e-05
6.98897e-05
9.69294e-10
-6.34369e-05
7.22952e-05
1.00927e-09
-7.73764e-05
7.0776e-05
1.12058e-09
-9.00425e-05
6.52789e-05
1.34564e-09
-0.000100392
5.57414e-05
-6.82959e-10
4.23381e-05
-4.15317e-09
-0.000107111
-3.17028e-06
1.76928e-05
4.41104e-09
-1.06112e-05
4.39583e-05
-4.10227e-09
-2.09545e-05
6.28667e-05
5.2861e-10
-3.31614e-05
7.56369e-05
1.2374e-09
-4.63935e-05
8.31208e-05
1.01425e-09
-5.99166e-05
8.58172e-05
1.03445e-09
-7.30019e-05
8.38602e-05
1.17381e-09
-8.4807e-05
7.70819e-05
2.08536e-09
-9.42028e-05
6.51392e-05
-2.00776e-09
4.7441e-05
-1.44564e-08
-9.92912e-05
-2.72204e-06
2.04111e-05
3.70641e-09
-9.2267e-06
5.04667e-05
-3.70707e-09
-1.83265e-05
7.19662e-05
3.67522e-10
-2.90513e-05
8.63606e-05
1.03918e-09
-4.05777e-05
9.46463e-05
9.56013e-10
-5.21783e-05
9.74167e-05
1.03878e-09
-6.31609e-05
9.48414e-05
1.39882e-09
-7.27596e-05
8.66757e-05
4.89466e-09
-7.99403e-05
7.23185e-05
1.45003e-09
4.97821e-05
-3.24495e-08
-8.2249e-05
-2.1101e-06
2.69321e-09
2.25185e-05
-7.31136e-06
-3.1973e-09
5.56711e-05
-1.46467e-05
6.04479e-11
7.93014e-05
-2.32186e-05
5.92774e-10
9.4932e-05
-3.21753e-05
6.32247e-10
0.000103602
-4.06937e-05
9.31732e-10
0.000105934
-4.79629e-05
1.98344e-09
0.000102109
-5.30994e-05
1.22014e-08
9.18e-05
-5.49442e-05
2.85205e-08
7.41348e-05
-9.74812e-09
-5.19062e-05
4.67538e-05
1.52706e-07
-1.5281e-07
-5.42994e-07
6.93931e-07
-2.06787e-06
1.52226e-06
-4.17526e-06
2.10405e-06
-6.62951e-06
2.45049e-06
-9.23653e-06
2.60306e-06
-1.18364e-05
2.59594e-06
-1.42909e-05
2.45066e-06
-1.6479e-05
2.18459e-06
1.82651e-06
-1.83083e-05
-7.25323e-07
5.7392e-07
-3.29052e-06
3.2587e-06
-7.48336e-06
5.71657e-06
-1.28804e-05
7.50346e-06
-1.90344e-05
8.60732e-06
-2.55278e-05
9.09944e-06
-3.19814e-05
9.05314e-06
-3.80545e-05
8.52666e-06
-4.34524e-05
7.58505e-06
6.33632e-06
-4.79601e-05
-1.68935e-06
2.26574e-06
-6.11595e-06
7.68301e-06
-1.26849e-05
1.22854e-05
-2.0802e-05
1.56206e-05
-2.98826e-05
1.76878e-05
-3.93703e-05
1.8587e-05
-4.8739e-05
1.84217e-05
-5.74971e-05
1.72846e-05
-6.52111e-05
1.52987e-05
1.2687e-05
-7.1562e-05
-2.48052e-06
4.74987e-06
-8.48199e-06
1.36813e-05
-1.70217e-05
2.08251e-05
-2.73178e-05
2.5917e-05
-3.86722e-05
2.9042e-05
-5.04319e-05
3.03465e-05
-6.19656e-05
2.99553e-05
-7.26598e-05
2.79785e-05
-8.19491e-05
2.45876e-05
2.01353e-05
-8.93978e-05
-3.03952e-06
7.7938e-06
-1.01914e-05
2.08294e-05
-2.01715e-05
3.08055e-05
-3.20405e-05
3.7787e-05
-4.5012e-05
4.2014e-05
-5.83657e-05
4.37008e-05
-7.13932e-05
4.29832e-05
-8.33738e-05
3.99594e-05
-9.3596e-05
3.48094e-05
2.79922e-05
-0.000101453
-3.34257e-06
1.11411e-05
-1.11398e-05
2.86225e-05
-2.19353e-05
4.16015e-05
-3.46926e-05
5.05455e-05
-4.85723e-05
5.58945e-05
-6.28181e-05
5.79475e-05
-7.66741e-05
5.684e-05
-8.93297e-05
5.26156e-05
-9.99045e-05
4.53837e-05
3.56001e-05
-0.000107514
-3.38076e-06
1.45275e-05
-1.12779e-05
3.65153e-05
-2.22013e-05
5.25255e-05
-3.50876e-05
6.34331e-05
-4.90845e-05
6.98924e-05
-6.34345e-05
7.22985e-05
-7.7374e-05
7.07806e-05
-9.00423e-05
6.52853e-05
-0.000100393
5.5734e-05
4.23057e-05
-0.000107103
-3.16129e-06
1.76932e-05
-1.06124e-05
4.39623e-05
-2.09554e-05
6.28691e-05
-3.31602e-05
7.56391e-05
-4.63906e-05
8.31238e-05
-5.99124e-05
8.58212e-05
-7.29972e-05
8.38666e-05
-8.48067e-05
7.70968e-05
-9.42153e-05
6.51405e-05
4.73583e-05
-9.92823e-05
-2.71459e-06
2.04115e-05
-9.22793e-06
5.0472e-05
-1.83272e-05
7.19687e-05
-2.90493e-05
8.63623e-05
-4.05729e-05
9.46483e-05
-5.21697e-05
9.74191e-05
-6.31464e-05
9.48447e-05
-7.27397e-05
8.6695e-05
-7.99641e-05
7.23663e-05
4.96646e-05
-8.23028e-05
-2.1047e-06
2.25188e-05
-7.31291e-06
5.5677e-05
-1.4648e-05
7.93038e-05
-2.32177e-05
9.49326e-05
-3.21705e-05
0.000103602
-4.06818e-05
0.000105931
-4.7934e-05
0.000102099
-5.3011e-05
9.17842e-05
-5.48033e-05
7.41871e-05
-5.21343e-05
4.69859e-05
-1.97377e-05
1.42713e-06
2.16647e-09
-2.07881e-05
1.04896e-06
1.51612e-09
-2.15225e-05
7.33364e-07
1.00438e-09
-2.20178e-05
4.94677e-07
6.34792e-10
-2.23473e-05
3.29075e-07
3.903e-10
-2.2572e-05
2.24449e-07
2.43147e-10
-2.27396e-05
1.6742e-07
1.66679e-10
-2.28865e-05
1.4675e-07
1.40789e-10
-2.30407e-05
1.54048e-07
1.51757e-10
-2.32238e-05
1.82934e-07
1.90831e-10
-2.34515e-05
2.2744e-07
2.52106e-10
-2.37318e-05
2.80014e-07
3.2918e-10
-2.40616e-05
3.29335e-07
4.1227e-10
-2.44202e-05
3.58189e-07
4.85271e-10
-2.47627e-05
3.41989e-07
5.21474e-10
-2.50122e-05
2.48986e-07
4.7764e-10
-2.50574e-05
4.48515e-08
2.99314e-10
-2.47543e-05
-3.03058e-07
-4.64476e-11
-2.3951e-05
-8.02591e-07
-6.55462e-10
-1.42842e-06
-1.57265e-09
-2.2521e-05
-5.14891e-05
4.95808e-06
-1.93107e-09
-5.40995e-05
3.66094e-06
-1.61327e-09
-5.5945e-05
2.58013e-06
-1.27684e-09
-5.72096e-05
1.76032e-06
-9.76286e-10
-5.80667e-05
1.18691e-06
-7.30896e-10
-5.86605e-05
8.18754e-07
-5.50327e-10
-5.91032e-05
6.10562e-07
-4.34346e-10
-5.94796e-05
5.2354e-07
-3.75442e-10
-5.98527e-05
5.27537e-07
-3.63141e-10
-6.02678e-05
5.98436e-07
-3.85558e-10
-6.07531e-05
7.13176e-07
-4.27765e-10
-6.13163e-05
8.43662e-07
-4.70129e-10
-6.19368e-05
9.50303e-07
-4.86117e-10
-6.25543e-05
9.76114e-07
-4.40521e-10
-6.30552e-05
8.43191e-07
-2.8996e-10
-6.3261e-05
4.54732e-07
1.09577e-11
-6.2924e-05
-2.9264e-07
4.92177e-10
-6.17451e-05
-1.4831e-06
1.14185e-09
-5.94125e-05
-3.13708e-06
1.92043e-09
-5.16089e-06
2.65274e-09
-5.56827e-05
-7.64326e-05
9.82896e-06
-2.35377e-10
-7.99546e-05
7.18333e-06
-4.1377e-10
-8.23929e-05
5.01891e-06
-4.54928e-10
-8.40349e-05
3.40274e-06
-4.33208e-10
-8.51325e-05
2.28487e-06
-3.70671e-10
-8.58838e-05
1.57038e-06
-2.96325e-10
-8.6436e-05
1.16297e-06
-2.2895e-10
-8.68955e-05
9.83183e-07
-1.75626e-10
-8.73381e-05
9.70306e-07
-1.3702e-10
-8.78158e-05
1.0762e-06
-1.1091e-10
-8.8358e-05
1.25546e-06
-9.27497e-11
-8.89683e-05
1.45407e-06
-7.67011e-11
-8.96156e-05
1.59762e-06
-5.60364e-11
-9.02199e-05
1.58052e-06
-2.24738e-11
-9.0636e-05
1.25923e-06
3.50796e-11
-9.06362e-05
4.54826e-07
1.25837e-10
-8.99029e-05
-1.02625e-06
2.44526e-10
-8.80409e-05
-3.3454e-06
3.83422e-10
-8.46269e-05
-6.55161e-06
5.26356e-10
-1.04764e-05
4.47523e-10
-7.93119e-05
-9.48602e-05
1.52917e-05
-3.76587e-10
-9.86038e-05
1.09276e-05
-6.09797e-10
-0.000101059
7.47435e-06
-6.06611e-10
-0.00010263
4.97451e-06
-5.39926e-10
-0.000103634
3.28902e-06
-4.30237e-10
-0.000104294
2.23105e-06
-3.18637e-10
-0.000104763
1.63203e-06
-2.26081e-10
-0.000105142
1.36219e-06
-1.56074e-10
-0.000105499
1.32725e-06
-1.06026e-10
-0.000105878
1.4554e-06
-7.22497e-11
-0.000106303
1.68131e-06
-5.05546e-11
-0.000106778
1.92888e-06
-3.69906e-11
-0.000107274
2.09379e-06
-2.80087e-11
-0.00010772
2.02665e-06
-1.80542e-11
-0.000107981
1.52018e-06
7.12859e-12
-0.000107834
3.06866e-07
6.31091e-11
-0.000106942
-1.91767e-06
1.31833e-10
-0.000104853
-5.43497e-06
2.61497e-10
-0.000101024
-1.0381e-05
5.09366e-10
-1.65591e-05
4.4945e-10
-9.49417e-05
-0.000106736
2.05758e-05
-1.0292e-09
-0.000109972
1.41646e-05
-1.15479e-09
-0.000111849
9.35164e-06
-9.36233e-10
-0.000112906
6.03282e-06
-7.32541e-10
-0.000113502
3.8848e-06
-5.16205e-10
-0.000113848
2.57828e-06
-3.39432e-10
-0.00011407
1.85335e-06
-2.16905e-10
-0.000114235
1.52756e-06
-1.37974e-10
-0.000114385
1.4777e-06
-9.03247e-11
-0.000114546
1.61601e-06
-6.4914e-11
-0.000114731
1.86682e-06
-5.53736e-11
-0.000114946
2.14416e-06
-5.73672e-11
-0.000115182
2.32915e-06
-6.78015e-11
-0.000115402
2.24668e-06
-8.04253e-11
-0.000115524
1.64286e-06
-7.03645e-11
-0.000115386
1.68236e-07
-2.85235e-12
-0.000114694
-2.60903e-06
6.55777e-11
-0.000112975
-7.15455e-06
2.58487e-10
-0.000109547
-1.38103e-05
8.96132e-10
-2.24968e-05
1.28351e-09
-0.00010361
-0.000111763
2.48266e-05
-2.20044e-09
-0.000113702
1.61061e-05
-1.8784e-09
-0.000114419
1.00697e-05
-1.17749e-09
-0.000114584
6.19809e-06
-7.88875e-10
-0.000114537
3.8386e-06
-4.64447e-10
-0.000114428
2.46977e-06
-2.45022e-10
-0.000114311
1.73606e-06
-1.21302e-10
-0.000114197
1.41401e-06
-5.58322e-11
-0.000114086
1.36627e-06
-2.37975e-11
-0.000113973
1.50331e-06
-1.15434e-11
-0.00011386
1.75362e-06
-1.23187e-11
-0.000113754
2.03842e-06
-2.36578e-11
-0.000113672
2.24663e-06
-4.57253e-11
-0.000113631
2.20665e-06
-7.75719e-11
-0.000113641
1.65272e-06
-9.61312e-11
-0.000113658
1.84708e-07
-5.66685e-11
-0.000113513
-2.75368e-06
-2.94086e-11
-0.000112793
-7.87478e-06
1.44152e-10
-0.000110688
-1.59166e-05
1.5411e-09
-2.72511e-05
3.25816e-09
-0.000105937
-0.000109268
2.69972e-05
-5.85709e-09
-0.00010906
1.59023e-05
-3.86754e-09
-0.00010813
9.14162e-06
-1.78775e-09
-0.000107181
5.24957e-06
-9.32322e-10
-0.000106418
3.07582e-06
-3.96392e-10
-0.000105846
1.89844e-06
-1.22537e-10
-0.00010541
1.29983e-06
-1.4899e-11
-0.000105046
1.04982e-06
2.0434e-11
-0.000104702
1.02237e-06
2.48898e-11
-0.000104343
1.14412e-06
1.5099e-11
-0.000103951
1.36224e-06
-3.33959e-12
-0.000103534
1.621e-06
-2.98387e-11
-0.000103126
1.8393e-06
-6.56621e-11
-0.000102803
1.883e-06
-1.14069e-10
-0.000102675
1.52481e-06
-1.51106e-10
-0.000102871
3.81011e-07
-7.81629e-11
-0.000103453
-2.17133e-06
9.39802e-11
-0.000104236
-7.0926e-06
4.6812e-10
-0.000104422
-1.57346e-05
3.72329e-09
-2.9582e-05
8.9524e-09
-0.0001021
-9.78884e-05
2.56133e-05
-9.95097e-09
-9.47308e-05
1.27487e-05
-4.04286e-09
-9.19805e-05
6.39213e-06
-8.20189e-10
-9.00277e-05
3.29716e-06
-3.12025e-10
-8.87326e-05
1.78065e-06
4.02974e-11
-8.78743e-05
1.03998e-06
1.64544e-10
-8.7268e-05
6.93326e-07
1.55673e-10
-8.67802e-05
5.61958e-07
1.28124e-10
-8.63195e-05
5.61554e-07
1.06322e-10
-8.58253e-05
6.49873e-07
9.09922e-11
-8.5264e-05
8.00784e-07
7.83168e-11
-8.46315e-05
9.88512e-07
6.23622e-11
-8.39658e-05
1.17356e-06
3.38451e-11
-8.33664e-05
1.28364e-06
-3.34347e-11
-8.30216e-05
1.18015e-06
-1.31963e-10
-8.32308e-05
5.90172e-07
-4.32668e-11
-8.43679e-05
-1.03429e-06
1.24926e-10
-8.67462e-05
-4.71387e-06
-4.59069e-10
-9.00331e-05
-1.2451e-05
3.29238e-09
-2.78515e-05
1.43042e-08
-9.17779e-05
-7.47689e-05
1.80918e-05
-1.24347e-08
-6.84775e-05
6.45181e-06
5.50963e-09
-6.46051e-05
2.51357e-06
6.16766e-09
-6.23747e-05
1.06414e-06
2.63372e-09
-6.10904e-05
4.95003e-07
1.36273e-09
-6.03162e-05
2.64933e-07
8.27332e-10
-5.97977e-05
1.74312e-07
5.20343e-10
-5.93849e-05
1.48827e-07
3.94381e-10
-5.89847e-05
1.60927e-07
3.79089e-10
-5.85355e-05
2.00197e-07
4.26558e-10
-5.79974e-05
2.62172e-07
5.11778e-10
-5.73527e-05
3.4327e-07
6.13167e-10
-5.66168e-05
4.36919e-07
6.92863e-10
-5.58613e-05
5.27525e-07
6.53223e-10
-5.52585e-05
5.76926e-07
3.69319e-10
-5.51647e-05
4.96509e-07
-9.30627e-11
-5.61603e-05
-3.69897e-08
-1.66001e-09
-5.92838e-05
-1.58276e-06
-7.65594e-09
-6.56227e-05
-6.1017e-06
-1.03875e-08
-1.93168e-05
1.54719e-08
-7.41729e-05
-3.39736e-05
-6.8976e-08
-2.75101e-05
-1.17274e-08
-2.49957e-05
-8.47611e-10
-2.39296e-05
-1.88469e-09
-2.34334e-05
-1.2246e-09
-2.31679e-05
-5.75187e-10
-2.29933e-05
-3.25575e-10
-2.28442e-05
-2.30942e-10
-2.26831e-05
-2.0481e-10
-2.24826e-05
-2.25429e-10
-2.22202e-05
-2.79072e-10
-2.18766e-05
-3.52285e-10
-2.14392e-05
-4.26007e-10
-2.09112e-05
-4.66702e-10
-2.03339e-05
-3.5856e-10
-1.98377e-05
2.12495e-10
-1.98754e-05
7.71457e-10
-2.14556e-05
-2.54663e-09
-2.75624e-05
5.07348e-09
8.7216e-08
-4.69664e-05
-1.97383e-05
1.43144e-06
-5.63769e-13
-2.07886e-05
1.05188e-06
-3.39443e-13
-2.15229e-05
7.35247e-07
-2.04395e-13
-2.20181e-05
4.95832e-07
-9.39045e-14
-2.23475e-05
3.29767e-07
-1.72682e-14
-2.25721e-05
2.2488e-07
2.95316e-14
-2.27397e-05
1.67732e-07
1.01402e-13
-2.28866e-05
1.4704e-07
1.49372e-13
-2.30408e-05
1.54384e-07
5.30732e-14
-2.3224e-05
1.83366e-07
-2.45212e-14
-2.34517e-05
2.28002e-07
-3.7192e-14
-2.37321e-05
2.80725e-07
-6.04723e-14
-2.40619e-05
3.30187e-07
-6.41751e-14
-2.44205e-05
3.59138e-07
-1.96393e-14
-2.4763e-05
3.42945e-07
5.34396e-14
-2.50123e-05
2.49808e-07
1.21586e-13
-2.50571e-05
4.50951e-08
1.25345e-13
-2.47539e-05
-3.03277e-07
6.83657e-14
-2.39506e-05
-8.03903e-07
2.30659e-14
-1.43144e-06
-2.35301e-14
-2.25207e-05
-5.14867e-05
4.95836e-06
-6.26554e-13
-5.4097e-05
3.6606e-06
-3.60987e-13
-5.59427e-05
2.57969e-06
-2.0985e-13
-5.72078e-05
1.75992e-06
-9.5067e-14
-5.80654e-05
1.18661e-06
-3.28792e-15
-5.86596e-05
8.18562e-07
-1.28495e-15
-5.91027e-05
6.10443e-07
1.04284e-15
-5.94795e-05
5.23457e-07
7.48885e-14
-5.9853e-05
5.27453e-07
-1.77059e-14
-6.02683e-05
5.98314e-07
-1.00298e-13
-6.07537e-05
7.12976e-07
-9.9059e-14
-6.13168e-05
8.43349e-07
-7.27129e-14
-6.19369e-05
9.49851e-07
-5.33562e-14
-6.25538e-05
9.75534e-07
-1.66451e-14
-6.30537e-05
8.42561e-07
2.22497e-14
-6.32581e-05
4.54225e-07
3.67407e-14
-6.29197e-05
-2.92784e-07
2.85234e-14
-6.17395e-05
-1.48233e-06
-9.81072e-15
-5.94064e-05
-3.1351e-06
-4.13041e-14
-5.15836e-06
-4.4137e-14
-5.56768e-05
-7.6432e-05
9.82807e-06
-5.5935e-13
-7.99533e-05
7.18148e-06
-3.06815e-13
-8.23913e-05
5.01728e-06
-1.72822e-13
-8.40334e-05
3.40152e-06
-8.25963e-14
-8.51312e-05
2.28408e-06
2.22517e-15
-8.58829e-05
1.56993e-06
-5.37077e-14
-8.64354e-05
1.16274e-06
-1.15171e-13
-8.68952e-05
9.83063e-07
-4.44659e-14
-8.73381e-05
9.7021e-07
-9.44119e-14
-8.78159e-05
1.07605e-06
-1.99403e-13
-8.83582e-05
1.25518e-06
-1.64698e-13
-8.89685e-05
1.4536e-06
-8.58451e-14
-8.96157e-05
1.5969e-06
-3.9655e-14
-9.02197e-05
1.57955e-06
-2.64494e-14
-9.06352e-05
1.2581e-06
-3.42864e-14
-9.06347e-05
4.5381e-07
-3.34615e-14
-8.99005e-05
-1.02675e-06
-1.34791e-14
-8.80379e-05
-3.34454e-06
4.20298e-14
-8.46239e-05
-6.54852e-06
1.08302e-13
-1.04723e-05
1.97056e-13
-7.93095e-05
-9.48601e-05
1.52885e-05
-4.31749e-13
-9.86024e-05
1.09231e-05
-2.02432e-13
-0.000101057
7.47104e-06
-1.04546e-13
-0.000102628
4.97228e-06
-5.5049e-14
-0.000103632
3.2877e-06
1.11975e-13
-0.000104293
2.23037e-06
3.46432e-14
-0.000104762
1.63172e-06
-1.05545e-13
-0.000105141
1.36208e-06
-2.6103e-14
-0.000105498
1.32719e-06
-4.8607e-14
-0.000105878
1.45531e-06
-1.43432e-13
-0.000106304
1.68108e-06
-1.47511e-13
-0.000106778
1.92843e-06
-1.03905e-13
-0.000107275
2.09301e-06
-1.01795e-13
-0.000107721
2.0255e-06
-1.47342e-13
-0.000107981
1.51874e-06
-1.80841e-13
-0.000107833
3.05521e-07
-1.43584e-13
-0.000106941
-1.91866e-06
-2.35685e-14
-0.000104851
-5.43424e-06
1.59075e-13
-0.000101022
-1.03766e-05
3.63593e-13
-1.6553e-05
5.14135e-13
-9.49411e-05
-0.000106736
2.05672e-05
-2.42626e-13
-0.00010997
1.41559e-05
-1.02794e-13
-0.000111846
9.34624e-06
-4.05119e-14
-0.000112904
6.02964e-06
-8.42559e-14
-0.0001135
3.88313e-06
1.15875e-13
-0.000113847
2.57753e-06
5.50466e-14
-0.000114069
1.85309e-06
-7.68161e-14
-0.000114234
1.5275e-06
9.76677e-15
-0.000114385
1.4777e-06
5.82501e-14
-0.000114546
1.61596e-06
5.02641e-15
-0.000114731
1.86662e-06
-3.15387e-14
-0.000114947
2.14371e-06
-4.96039e-14
-0.000115182
2.32832e-06
-1.09206e-13
-0.000115402
2.24535e-06
-1.87342e-13
-0.000115524
1.64104e-06
-2.08133e-13
-0.000115385
1.6662e-07
-1.22286e-13
-0.000114693
-2.61083e-06
1.27811e-14
-0.000112973
-7.15436e-06
2.04676e-13
-0.000109545
-1.38036e-05
3.40649e-13
-2.24858e-05
3.65281e-13
-0.000103611
-0.00011176
2.48064e-05
-1.12302e-13
-0.000113697
1.60908e-05
-6.72705e-14
-0.000114414
1.00628e-05
-2.42721e-14
-0.00011458
6.19485e-06
-1.64679e-13
-0.000114535
3.83726e-06
5.27467e-14
-0.000114427
2.46938e-06
-3.44454e-14
-0.00011431
1.73605e-06
-1.45768e-13
-0.000114197
1.41412e-06
-4.47621e-14
-0.000114086
1.36637e-06
2.25358e-14
-0.000113973
1.50333e-06
9.11432e-15
-0.00011386
1.75349e-06
-3.20523e-14
-0.000113754
2.03804e-06
-9.32279e-14
-0.000113672
2.24585e-06
-1.84351e-13
-0.000113632
2.20529e-06
-2.4515e-13
-0.000113642
1.65068e-06
-2.21832e-13
-0.000113658
1.82723e-07
-1.39365e-13
-0.000113512
-2.75668e-06
-4.44898e-14
-0.00011279
-7.87611e-06
4.12302e-15
-0.000110686
-1.59065e-05
4.36e-14
-2.72281e-05
6.71017e-14
-0.00010594
-0.00010926
2.69494e-05
4.56489e-14
-0.00010905
1.58765e-05
-1.84575e-15
-0.000108124
9.13471e-06
-3.72793e-14
-0.000107177
5.24767e-06
-4.74823e-14
-0.000106416
3.07555e-06
2.13639e-13
-0.000105846
1.89872e-06
9.71209e-14
-0.00010541
1.30016e-06
-3.32132e-14
-0.000105046
1.05006e-06
-2.61983e-14
-0.000104702
1.02252e-06
-1.77093e-14
-0.000104343
1.14415e-06
-6.91134e-14
-0.000103951
1.36212e-06
-1.35057e-13
-0.000103534
1.62064e-06
-1.95325e-13
-0.000103127
1.83856e-06
-2.23013e-13
-0.000102803
1.88165e-06
-1.67898e-13
-0.000102675
1.52261e-06
-4.60895e-14
-0.000102871
3.78378e-07
3.05373e-14
-0.000103452
-2.17543e-06
-3.81831e-14
-0.000104232
-7.09575e-06
-5.94644e-14
-0.000104417
-1.57173e-05
9.08322e-14
-2.95273e-05
2.01209e-13
-0.000102109
-9.78741e-05
2.55224e-05
2.45095e-13
-9.47205e-05
1.27188e-05
9.22936e-14
-9.19772e-05
6.39056e-06
-1.30954e-13
-9.00277e-05
3.29785e-06
-7.56338e-14
-8.87334e-05
1.78128e-06
1.74392e-13
-8.7875e-05
1.04053e-06
1.34944e-13
-8.72684e-05
6.93675e-07
5.74478e-14
-8.67803e-05
5.62149e-07
5.03272e-14
-8.63193e-05
5.61647e-07
5.76815e-15
-8.5825e-05
6.49893e-07
-9.08829e-14
-8.52635e-05
8.00724e-07
-1.76294e-13
-8.46312e-05
9.88337e-07
-2.10838e-13
-8.39657e-05
1.17319e-06
-1.55838e-13
-8.3367e-05
1.28288e-06
-1.02391e-14
-8.30232e-05
1.17868e-06
1.34136e-13
-8.32328e-05
5.8797e-07
8.33623e-14
-8.43717e-05
-1.03645e-06
-1.15778e-13
-8.6749e-05
-4.7189e-06
-1.55023e-13
-9.0031e-05
-1.2432e-05
3.03546e-14
-2.77502e-05
-1.45201e-15
-9.17937e-05
-7.47505e-05
1.80115e-05
3.66274e-13
-6.84852e-05
6.45902e-06
1.04038e-14
-6.46139e-05
2.52549e-06
-1.1582e-13
-6.23812e-05
1.06776e-06
-1.49291e-13
-6.10943e-05
4.9571e-07
3.57225e-14
-6.03181e-05
2.6517e-07
1.20233e-13
-5.97984e-05
1.74509e-07
1.15798e-13
-5.93849e-05
1.49074e-07
9.81898e-14
-5.89842e-05
1.61279e-07
1.96245e-14
-5.85346e-05
2.00708e-07
-9.3715e-14
-5.79962e-05
2.62906e-07
-1.80054e-13
-5.73516e-05
3.44305e-07
-1.78539e-13
-5.66161e-05
4.38347e-07
-6.53533e-14
-5.5862e-05
5.29465e-07
7.9889e-14
-5.52623e-05
5.79332e-07
1.40402e-13
-5.51711e-05
4.96726e-07
-3.78819e-14
-5.61755e-05
-3.37361e-08
-2.4078e-13
-5.93103e-05
-1.59178e-06
-4.57929e-13
-6.56387e-05
-6.114e-06
-1.5838e-13
-1.92529e-05
-6.51667e-13
-7.41206e-05
-3.39637e-05
-1.96511e-13
-2.75164e-05
-3.19028e-13
-2.49917e-05
1.66502e-13
-2.39259e-05
1.04492e-13
-2.34314e-05
4.08702e-14
-2.31668e-05
7.85639e-14
-2.29926e-05
1.1434e-13
-2.28438e-05
9.53875e-14
-2.26827e-05
8.52238e-15
-2.24822e-05
-9.03661e-14
-2.22196e-05
-1.54824e-13
-2.18756e-05
-1.12061e-13
-2.14377e-05
-6.80646e-15
-2.09087e-05
9.33626e-14
-2.03297e-05
3.85345e-14
-1.98328e-05
-6.72436e-14
-1.98658e-05
-3.72933e-13
-2.14601e-05
-5.63102e-13
-2.7569e-05
-9.6221e-13
-1.05004e-12
-4.67346e-05
-1.97383e-05
1.43144e-06
-2.16744e-09
-2.07886e-05
1.05188e-06
-1.51669e-09
-2.15229e-05
7.35247e-07
-1.00474e-09
-2.20181e-05
4.95832e-07
-6.35035e-10
-2.23475e-05
3.29767e-07
-3.90457e-10
-2.25721e-05
2.2488e-07
-2.4322e-10
-2.27397e-05
1.67731e-07
-1.66718e-10
-2.28866e-05
1.47039e-07
-1.40831e-10
-2.30408e-05
1.54384e-07
-1.51815e-10
-2.3224e-05
1.83366e-07
-1.90963e-10
-2.34517e-05
2.28002e-07
-2.52267e-10
-2.37321e-05
2.80725e-07
-3.29351e-10
-2.40619e-05
3.30187e-07
-4.12456e-10
-2.44205e-05
3.59138e-07
-4.85431e-10
-2.4763e-05
3.42945e-07
-5.21543e-10
-2.50123e-05
2.49808e-07
-4.77557e-10
-2.50571e-05
4.50951e-08
-2.99079e-10
-2.47538e-05
-3.03277e-07
4.67997e-11
-2.39506e-05
-8.03903e-07
6.55903e-10
-1.43144e-06
1.57318e-09
-2.25207e-05
-5.14867e-05
4.95836e-06
1.93012e-09
-5.4097e-05
3.6606e-06
1.61268e-09
-5.59427e-05
2.57969e-06
1.27646e-09
-5.72078e-05
1.75992e-06
9.76082e-10
-5.80654e-05
1.18661e-06
7.30825e-10
-5.86596e-05
8.18562e-07
5.50375e-10