/*--------------------------------*- C++ -*----------------------------------*\
| =========                 |                                                 |
| \\      /  F ield         | OpenFOAM: The Open Source CFD Toolbox           |
|  \\    /   O peration     | Version:  2.4.0                                 |
|   \\  /    A nd           | Web:      www.OpenFOAM.org                      |
|    \\/     M anipulation  |                                                 |
\*---------------------------------------------------------------------------*/
FoamFile
{
    version     2.0;
    format      ascii;
    class       volVectorField;
    location    "3.1";
    object      U;
}
// * * * * * * * * * * * * * * * * * * * * * * * * * * * * * * * * * * * * * //

dimensions      [0 1 -1 0 0 0 0];

internalField   nonuniform List<vector> 
4800
(
(0.000304513 -0.000308649 -6.48452e-07)
(1.31095e-05 0.000158242 0.000216185)
(-0.00184758 0.000664897 0.000442899)
(-0.00483593 0.00100702 0.000610428)
(-0.00855633 0.00120101 0.000674922)
(-0.012668 0.00128458 0.000616045)
(-0.0168881 0.00128523 0.000427548)
(-0.0209792 0.00121694 0.000109974)
(-0.0247318 0.00108696 -0.000330607)
(-0.0279691 0.000907361 -0.000881248)
(-0.000183872 -1.52105e-05 -0.000217109)
(-0.00248347 0.00239343 4.46939e-06)
(-0.00805804 0.00474002 0.00017256)
(-0.0159197 0.00643112 0.000272219)
(-0.0253252 0.00746178 0.00028538)
(-0.035597 0.00792505 0.000196138)
(-0.0460957 0.00790745 -2.1735e-06)
(-0.0562425 0.00746908 -0.000311907)
(-0.0655202 0.00666553 -0.000731691)
(-0.0735035 0.00558649 -0.00125495)
(-0.000778574 0.00197462 -0.000449289)
(-0.00520807 0.00808706 -0.000156645)
(-0.014275 0.0135249 1.2352e-05)
(-0.0262997 0.0175007 9.04312e-05)
(-0.0402815 0.0199744 8.61718e-05)
(-0.0553508 0.0210767 -9.28998e-06)
(-0.0706408 0.0209504 -0.000200239)
(-0.0853296 0.019718 -0.000490481)
(-0.0986604 0.0175275 -0.000883111)
(-0.109999 0.0146296 -0.00137774)
(-0.00125511 0.00538643 -0.000606264)
(-0.00747977 0.0165812 -0.000227549)
(-0.0194958 0.0258328 -3.46173e-05)
(-0.0349171 0.032506 4.55707e-05)
(-0.0525037 0.0366353 4.3597e-05)
(-0.0712524 0.0384083 -4.34136e-05)
(-0.090141 0.0380103 -0.000218052)
(-0.108165 0.0356113 -0.000486727)
(-0.12436 0.0314542 -0.000858788)
(-0.137867 0.0259937 -0.00134252)
(-0.00158151 0.00988816 -0.000613394)
(-0.00910251 0.027271 -0.000159973)
(-0.0232849 0.0408689 5.84518e-05)
(-0.0411786 0.0504843 0.000151138)
(-0.0613484 0.0563535 0.000164677)
(-0.0826965 0.0587571 9.97035e-05)
(-0.104095 0.057908 -4.7237e-05)
(-0.124398 0.0539871 -0.000288045)
(-0.142439 0.0472966 -0.000642178)
(-0.157068 0.0384965 -0.00113348)
(-0.00175189 0.0150885 -0.000421318)
(-0.00998919 0.0394196 8.77706e-05)
(-0.0253977 0.0577398 0.000327336)
(-0.044693 0.0704616 0.0004398)
(-0.066319 0.0781179 0.000481308)
(-0.089126 0.0811149 0.000453298)
(-0.11193 0.079675 0.000348212)
(-0.133491 0.0739316 0.000144776)
(-0.152458 0.0641575 -0.000192187)
(-0.167264 0.0511326 -0.000717014)
(-0.00176656 0.0205642 -6.20603e-06)
(-0.0101049 0.0521732 0.000536531)
(-0.025711 0.0753836 0.000789681)
(-0.0452245 0.0912798 0.000927067)
(-0.0670537 0.100739 0.00100844)
(-0.0900429 0.104314 0.00103397)
(-0.113008 0.102219 0.000989015)
(-0.134692 0.0944641 0.000839061)
(-0.153645 0.0811336 0.00052735)
(-0.167739 0.0628573 -6.16765e-05)
(-0.00163301 0.025889 0.000632279)
(-0.00946657 0.0646417 0.00118673)
(-0.0242286 0.0926635 0.00144464)
(-0.0427226 0.111667 0.00161052)
(-0.0633912 0.122873 0.00174288)
(-0.0850996 0.126994 0.0018401)
(-0.106706 0.124235 0.001879)
(-0.127031 0.114418 0.00180982)
(-0.144761 0.0972311 0.00155354)
(-0.157169 0.0725437 0.000877444)
(-0.00137103 0.0306642 0.00147191)
(-0.00816262 0.0759732 0.00201889)
(-0.0211289 0.108453 0.00227254)
(-0.0374203 0.130306 0.00246806)
(-0.0555401 0.143041 0.00265946)
(-0.074347 0.147543 0.00284458)
(-0.0927068 0.144057 0.00299253)
(-0.109532 0.132263 0.00303765)
(-0.124029 0.111399 0.00289066)
(-0.133312 0.0797325 0.0021132)
(-0.00102008 0.0345657 0.00247031)
(-0.00637837 0.0854515 0.0029961)
(-0.0168245 0.121761 0.00323666)
(-0.0299618 0.145954 0.00345885)
(-0.0443298 0.159712 0.00371094)
(-0.0586657 0.164051 0.00399521)
(-0.0716253 0.159306 0.00428265)
(-0.0818236 0.145149 0.0045037)
(-0.0889704 0.120683 0.00462661)
(-0.0920528 0.0831933 0.00402781)
(0.000309773 -0.000312873 -1.17357e-07)
(2.06222e-05 0.00015247 1.30338e-06)
(-0.0018437 0.000650961 1.99165e-06)
(-0.00483324 0.000987332 2.57309e-06)
(-0.00855477 0.00117816 2.92171e-06)
(-0.0126673 0.00126023 3.07076e-06)
(-0.0168883 0.00126095 3.09139e-06)
(-0.0209804 0.00119385 2.96175e-06)
(-0.0247341 0.00106624 2.68562e-06)
(-0.0279725 0.000889691 2.24326e-06)
(-0.000176408 -2.21189e-05 -1.16936e-06)
(-0.00248028 0.00239161 2.86723e-07)
(-0.00806546 0.00472888 -1.18554e-06)
(-0.0159243 0.00641482 -1.86101e-06)
(-0.0253275 0.00744364 -2.19596e-06)
(-0.0355974 0.00790605 -2.39394e-06)
(-0.0460948 0.00788857 -2.33851e-06)
(-0.0562408 0.00745138 -2.22706e-06)
(-0.0655184 0.00664989 -1.96453e-06)
(-0.0735024 0.00557298 -1.69701e-06)
(-0.000762563 0.00196922 -1.96557e-06)
(-0.00519678 0.00809375 1.74376e-06)
(-0.0142818 0.0135282 7.37333e-08)
(-0.0263019 0.017504 -7.52429e-08)
(-0.0402815 0.0199796 9.39932e-08)
(-0.0553506 0.0210829 9.41973e-08)
(-0.0706401 0.0209567 1.15237e-07)
(-0.0853286 0.0197247 1.51711e-07)
(-0.0986604 0.0175344 2.00606e-07)
(-0.110001 0.0146353 1.23409e-07)
(-0.00123218 0.00538169 -2.83585e-06)
(-0.00746346 0.0165854 2.46982e-06)
(-0.0195049 0.025832 -1.40622e-08)
(-0.034919 0.0325034 -2.20098e-07)
(-0.0525027 0.0366331 6.82775e-08)
(-0.0712516 0.0384065 1.03806e-07)
(-0.0901397 0.0380088 1.37912e-07)
(-0.108164 0.035611 2.19787e-07)
(-0.12436 0.031456 3.73925e-07)
(-0.137872 0.0259958 3.28632e-07)
(-0.00155407 0.00988531 -3.45266e-06)
(-0.00908406 0.0272735 2.91281e-06)
(-0.0232976 0.040867 -3.30607e-07)
(-0.0411817 0.0504802 -7.16494e-07)
(-0.0613475 0.056349 -4.32039e-07)
(-0.0826955 0.0587525 -4.113e-07)
(-0.104093 0.0579035 -3.65815e-07)
(-0.124394 0.0539839 -2.13246e-07)
(-0.142437 0.0472979 2.36725e-07)
(-0.157075 0.0385 4.59505e-07)
(-0.00172206 0.015088 -3.72907e-06)
(-0.00996992 0.0394212 3.23511e-06)
(-0.0254128 0.0577389 -4.26887e-07)
(-0.0446972 0.0704592 -9.08129e-07)
(-0.0663186 0.0781148 -6.29912e-07)
(-0.0891252 0.0811113 -6.2622e-07)
(-0.111927 0.0796709 -6.1198e-07)
(-0.133483 0.0739281 -4.91705e-07)
(-0.152451 0.0641621 4.05125e-07)
(-0.167279 0.0511446 1.27334e-06)
(-0.00173673 0.0205654 -3.62167e-06)
(-0.0100863 0.0521734 3.33664e-06)
(-0.0257273 0.0753835 -4.52513e-07)
(-0.0452296 0.0912791 -9.9144e-07)
(-0.0670539 0.100737 -7.57194e-07)
(-0.0900429 0.104312 -7.87302e-07)
(-0.113006 0.102216 -8.73008e-07)
(-0.134679 0.0944594 -1.0474e-06)
(-0.153627 0.0811444 5.30775e-07)
(-0.167769 0.0628957 3.23008e-06)
(-0.00160473 0.0258919 -3.43931e-06)
(-0.00944911 0.0646409 3.18688e-06)
(-0.0242446 0.0926644 -4.14615e-07)
(-0.0427283 0.111669 -9.64993e-07)
(-0.0633922 0.122873 -7.90663e-07)
(-0.0851007 0.126993 -8.05734e-07)
(-0.106706 0.12423 -9.13613e-07)
(-0.127009 0.114402 -1.62226e-06)
(-0.144708 0.0972271 1.56134e-06)
(-0.157216 0.0726048 1.12436e-05)
(-0.00134632 0.0306691 -2.88901e-06)
(-0.00814749 0.075972 2.88103e-06)
(-0.0211434 0.108456 -2.87855e-07)
(-0.0374261 0.13031 -8.09543e-07)
(-0.0555422 0.143045 -7.44317e-07)
(-0.0743516 0.147546 -8.08333e-07)
(-0.092718 0.144054 -1.08813e-06)
(-0.109515 0.13223 -3.80704e-06)
(-0.123923 0.111324 -1.12803e-06)
(-0.13336 0.0797022 2.52382e-05)
(-0.00100027 0.0345717 -2.09892e-06)
(-0.00636613 0.0854502 2.48551e-06)
(-0.0168359 0.121765 -4.80386e-08)
(-0.029966 0.145963 -4.61513e-07)
(-0.0443312 0.159725 -4.91868e-07)
(-0.0586725 0.164074 -7.24641e-07)
(-0.0716587 0.15935 -1.54264e-06)
(-0.0818651 0.145215 -9.49009e-06)
(-0.088881 0.120746 -2.21828e-05)
(-0.0921318 0.0833123 7.58176e-06)
(0.000309847 -0.000312799 -1.11727e-07)
(2.07404e-05 0.000152513 -1.39768e-06)
(-0.00184363 0.00065098 -2.04586e-06)
(-0.0048332 0.00098734 -2.60813e-06)
(-0.00855474 0.00117817 -2.9445e-06)
(-0.0126673 0.00126023 -3.08576e-06)
(-0.0168883 0.00126095 -3.10118e-06)
(-0.0209804 0.00119385 -2.9681e-06)
(-0.0247341 0.00106624 -2.68981e-06)
(-0.0279725 0.000889691 -2.24598e-06)
(-0.000176365 -2.20006e-05 1.07515e-06)
(-0.0024802 0.00239169 -3.52299e-07)
(-0.0080654 0.00472892 1.1382e-06)
(-0.0159243 0.00641484 1.82808e-06)
(-0.0253274 0.00744365 2.17354e-06)
(-0.0355974 0.00790605 2.37885e-06)
(-0.0460948 0.00788857 2.32849e-06)
(-0.0562408 0.00745138 2.22046e-06)
(-0.0655183 0.00664989 1.96019e-06)
(-0.0735024 0.00557298 1.69422e-06)
(-0.000762544 0.00196929 1.91206e-06)
(-0.00519674 0.00809381 -1.79039e-06)
(-0.0142818 0.0135282 -1.1008e-07)
(-0.0263019 0.017504 4.87899e-08)
(-0.0402815 0.0199796 -1.12803e-07)
(-0.0553506 0.0210829 -1.07355e-07)
(-0.07064 0.0209567 -1.24184e-07)
(-0.0853285 0.0197247 -1.57627e-07)
(-0.0986604 0.0175344 -2.04458e-07)
(-0.110001 0.0146353 -1.25837e-07)
(-0.00123217 0.00538173 2.80177e-06)
(-0.00746343 0.0165854 -2.50207e-06)
(-0.0195049 0.025832 -1.23642e-08)
(-0.034919 0.0325034 2.00069e-07)
(-0.0525027 0.0366331 -8.31535e-08)
(-0.0712516 0.0384065 -1.1462e-07)
(-0.0901397 0.0380088 -1.45431e-07)
(-0.108164 0.035611 -2.24766e-07)
(-0.12436 0.031456 -3.77127e-07)
(-0.137872 0.0259958 -3.30605e-07)
(-0.00155406 0.00988533 3.43125e-06)
(-0.00908405 0.0272736 -2.93414e-06)
(-0.0232976 0.040867 3.12366e-07)
(-0.0411817 0.0504803 7.02258e-07)
(-0.0613475 0.056349 4.21133e-07)
(-0.0826955 0.0587525 4.03215e-07)
(-0.104093 0.0579035 3.60218e-07)
(-0.124394 0.0539839 2.09647e-07)
(-0.142437 0.0472979 -2.38924e-07)
(-0.157075 0.0385 -4.6077e-07)
(-0.00172206 0.015088 3.71583e-06)
(-0.00996991 0.0394212 -3.24883e-06)
(-0.0254128 0.0577389 4.14791e-07)
(-0.0446972 0.0704592 8.98572e-07)
(-0.0663185 0.0781148 6.22499e-07)
(-0.0891252 0.0811113 6.20761e-07)
(-0.111927 0.0796709 6.0834e-07)
(-0.133483 0.0739281 4.8953e-07)
(-0.152451 0.0641621 -4.06301e-07)
(-0.167279 0.0511446 -1.2739e-06)
(-0.00173673 0.0205655 3.61359e-06)
(-0.0100863 0.0521734 -3.3453e-06)
(-0.0257273 0.0753835 4.44717e-07)
(-0.0452296 0.091279 9.85337e-07)
(-0.0670539 0.100737 7.52537e-07)
(-0.0900429 0.104312 7.83994e-07)
(-0.113006 0.102216 8.70933e-07)
(-0.134679 0.0944594 1.04628e-06)
(-0.153627 0.0811444 -5.3125e-07)
(-0.167769 0.0628957 -3.23015e-06)
(-0.00160473 0.0258919 3.43445e-06)
(-0.00944911 0.0646409 -3.19223e-06)
(-0.0242446 0.0926644 4.09794e-07)
(-0.0427283 0.111669 9.61402e-07)
(-0.0633921 0.122873 7.88097e-07)
(-0.0851007 0.126993 8.04037e-07)
(-0.106706 0.12423 9.12599e-07)
(-0.127009 0.114402 1.62174e-06)
(-0.144708 0.0972271 -1.56154e-06)
(-0.157216 0.0726048 -1.12436e-05)
(-0.00134632 0.0306691 2.8862e-06)
(-0.00814749 0.075972 -2.88421e-06)
(-0.0211434 0.108456 2.85098e-07)
(-0.0374261 0.13031 8.07753e-07)
(-0.0555422 0.143045 7.43253e-07)
(-0.0743516 0.147546 8.07761e-07)
(-0.092718 0.144054 1.08781e-06)
(-0.109515 0.13223 3.80678e-06)
(-0.123923 0.111324 1.12779e-06)
(-0.13336 0.0797022 -2.52383e-05)
(-0.00100027 0.0345717 2.09734e-06)
(-0.00636613 0.0854502 -2.48733e-06)
(-0.0168359 0.121765 4.66453e-08)
(-0.029966 0.145963 4.6088e-07)
(-0.0443312 0.159725 4.91715e-07)
(-0.0586725 0.164074 7.24746e-07)
(-0.0716587 0.15935 1.54271e-06)
(-0.0818651 0.145215 9.48984e-06)
(-0.088881 0.120746 2.21824e-05)
(-0.0921318 0.0833123 -7.58196e-06)
(0.000304902 -0.000308259 8.89283e-07)
(1.36639e-05 0.000158404 -0.000216086)
(-0.00184734 0.000664953 -0.000442842)
(-0.00483581 0.00100705 -0.000610391)
(-0.00855626 0.00120102 -0.000674898)
(-0.0126679 0.00128459 -0.00061603)
(-0.0168881 0.00128523 -0.000427537)
(-0.0209792 0.00121694 -0.000109967)
(-0.0247317 0.00108696 0.000330612)
(-0.0279691 0.000907361 0.000881251)
(-0.00018371 -1.46555e-05 0.000217209)
(-0.0024832 0.0023937 -4.40007e-06)
(-0.00805785 0.00474014 -0.00017251)
(-0.0159196 0.00643117 -0.000272184)
(-0.0253251 0.0074618 -0.000285356)
(-0.0355969 0.00792506 -0.000196122)
(-0.0460957 0.00790745 2.18409e-06)
(-0.0562425 0.00746908 0.000311914)
(-0.0655202 0.00666553 0.000731696)
(-0.0735034 0.00558649 0.00125495)
(-0.000778517 0.00197486 0.000449345)
(-0.00520796 0.00808724 0.000156694)
(-0.0142748 0.013525 -1.23135e-05)
(-0.0262996 0.0175007 -9.04032e-05)
(-0.0402814 0.0199745 -8.61519e-05)
(-0.0553508 0.0210768 9.30389e-06)
(-0.0706408 0.0209504 0.000200248)
(-0.0853295 0.019718 0.000490487)
(-0.0986604 0.0175275 0.000883115)
(-0.109999 0.0146296 0.00137774)
(-0.00125508 0.00538655 0.0006063)
(-0.00747971 0.0165813 0.000227583)
(-0.0194957 0.0258329 3.46452e-05)
(-0.034917 0.032506 -4.55495e-05)
(-0.0525036 0.0366353 -4.35813e-05)
(-0.0712523 0.0384083 4.3425e-05)
(-0.090141 0.0380103 0.00021806)
(-0.108165 0.0356113 0.000486732)
(-0.12436 0.0314542 0.000858791)
(-0.137867 0.0259937 0.00134253)
(-0.0015815 0.00988823 0.000613417)
(-0.00910248 0.0272711 0.000159995)
(-0.0232849 0.040869 -5.84325e-05)
(-0.0411785 0.0504843 -0.000151123)
(-0.0613484 0.0563535 -0.000164666)
(-0.0826965 0.0587571 -9.9695e-05)
(-0.104095 0.057908 4.72429e-05)
(-0.124398 0.0539871 0.000288048)
(-0.142439 0.0472966 0.00064218)
(-0.157068 0.0384965 0.00113348)
(-0.00175189 0.0150885 0.000421332)
(-0.00998917 0.0394197 -8.77561e-05)
(-0.0253976 0.0577398 -0.000327324)
(-0.0446929 0.0704616 -0.00043979)
(-0.066319 0.0781179 -0.0004813)
(-0.089126 0.0811149 -0.000453292)
(-0.111929 0.079675 -0.000348208)
(-0.13349 0.0739316 -0.000144774)
(-0.152458 0.0641575 0.000192188)
(-0.167264 0.0511326 0.000717015)
(-0.00176656 0.0205642 6.21455e-06)
(-0.0101049 0.0521732 -0.000536522)
(-0.025711 0.0753836 -0.000789673)
(-0.0452244 0.0912798 -0.00092706)
(-0.0670537 0.100739 -0.00100843)
(-0.0900429 0.104314 -0.00103396)
(-0.113008 0.102219 -0.000989013)
(-0.134692 0.0944641 -0.00083906)
(-0.153645 0.0811336 -0.000527349)
(-0.167739 0.0628573 6.16765e-05)
(-0.00163301 0.025889 -0.000632273)
(-0.00946656 0.0646417 -0.00118673)
(-0.0242285 0.0926635 -0.00144464)
(-0.0427226 0.111667 -0.00161051)
(-0.0633912 0.122873 -0.00174288)
(-0.0850996 0.126994 -0.0018401)
(-0.106706 0.124235 -0.001879)
(-0.127031 0.114418 -0.00180982)
(-0.144761 0.0972311 -0.00155354)
(-0.157169 0.0725437 -0.000877445)
(-0.00137103 0.0306642 -0.00147191)
(-0.00816261 0.0759732 -0.00201889)
(-0.0211289 0.108453 -0.00227253)
(-0.0374203 0.130306 -0.00246806)
(-0.0555401 0.143041 -0.00265946)
(-0.0743469 0.147543 -0.00284457)
(-0.0927068 0.144057 -0.00299253)
(-0.109532 0.132263 -0.00303765)
(-0.124029 0.111399 -0.00289066)
(-0.133312 0.0797325 -0.0021132)
(-0.00102008 0.0345657 -0.00247031)
(-0.00637837 0.0854515 -0.0029961)
(-0.0168245 0.121761 -0.00323665)
(-0.0299618 0.145954 -0.00345885)
(-0.0443298 0.159712 -0.00371094)
(-0.0586657 0.164051 -0.00399521)
(-0.0716253 0.159306 -0.00428265)
(-0.0818235 0.145149 -0.0045037)
(-0.0889704 0.120683 -0.00462661)
(-0.0920528 0.0831933 -0.00402781)
(-0.0305787 0.000703615 -0.00152123)
(-0.0325466 0.000509854 -0.00222508)
(-0.0339489 0.000348965 -0.00296991)
(-0.0349055 0.000228783 -0.00373846)
(-0.0355412 0.000147077 -0.00451932)
(-0.0359651 9.71484e-05 -0.00530583)
(-0.036264 7.18193e-05 -0.00609483)
(-0.0365043 6.53592e-05 -0.00688558)
(-0.0367366 7.38521e-05 -0.00767918)
(-0.0370002 9.47027e-05 -0.00847833)
(-0.0373253 0.000125697 -0.0092874)
(-0.0377317 0.000163809 -0.0101125)
(-0.0382248 0.000203834 -0.0109617)
(-0.038788 0.000236965 -0.0118445)
(-0.039371 0.000249584 -0.0127711)
(-0.0398779 0.000222919 -0.0137508)
(-0.0401575 0.000134893 -0.0147888)
(-0.0400014 -3.41034e-05 -0.0158828)
(-0.0391629 -0.000295911 -0.017017)
(-0.0374041 -0.000638704 -0.0181592)
(-0.0799344 0.00438381 -0.00186791)
(-0.0847984 0.00324209 -0.00255074)
(-0.0882931 0.00228419 -0.00328494)
(-0.0907102 0.00155449 -0.00405521)
(-0.0923462 0.00104363 -0.00484976)
(-0.0934583 0.000716994 -0.00566036)
(-0.0942506 0.000535169 -0.00648185)
(-0.0948786 0.000464246 -0.0073116)
(-0.0954584 0.000478161 -0.00814907)
(-0.0960756 0.000556489 -0.00899558)
(-0.0967895 0.000679859 -0.00985414)
(-0.097631 0.000824171 -0.0107293)
(-0.0985934 0.000954308 -0.0116272)
(-0.0996168 0.00101823 -0.0125546)
(-0.100567 0.000943141 -0.0135188)
(-0.101214 0.000636849 -0.0145254)
(-0.101213 -8.64896e-07 -0.0155767)
(-0.100119 -0.00105233 -0.0166682)
(-0.0974174 -0.0025439 -0.017786)
(-0.0926289 -0.0043929 -0.0189026)
(-0.118965 0.0114363 -0.00196512)
(-0.125589 0.00844 -0.00262504)
(-0.13024 0.00594991 -0.00334001)
(-0.133396 0.00406389 -0.00409535)
(-0.1355 0.00274467 -0.0048791)
(-0.136913 0.00189562 -0.00568245)
(-0.137909 0.0014116 -0.00649947)
(-0.138684 0.00120276 -0.00732668)
(-0.139382 0.00119896 -0.00816266)
(-0.140103 0.00134374 -0.00900776)
(-0.140913 0.0015831 -0.00986388)
(-0.14184 0.00185196 -0.0107343)
(-0.142868 0.0020599 -0.0116235)
(-0.143912 0.00207841 -0.0125367)
(-0.1448 0.00173341 -0.0134797)
(-0.14524 0.000810107 -0.0144574)
(-0.144793 -0.000919813 -0.0154726)
(-0.14288 -0.00363989 -0.0165236)
(-0.138815 -0.00739349 -0.017601)
(-0.131925 -0.0119696 -0.0186842)
(-0.148156 0.020027 -0.00193252)
(-0.155361 0.0145472 -0.00259887)
(-0.160144 0.0101062 -0.00332104)
(-0.163222 0.00681859 -0.00408326)
(-0.165178 0.00456062 -0.0048728)
(-0.166439 0.0031239 -0.00568064)
(-0.167296 0.00230462 -0.00650085)
(-0.167943 0.00193792 -0.00732984)
(-0.16851 0.00189951 -0.00816592)
(-0.169087 0.00209175 -0.00900885)
(-0.169726 0.00242349 -0.00985963)
(-0.170451 0.00278728 -0.0107203)
(-0.171247 0.00303601 -0.011594)
(-0.17204 0.00296141 -0.0124848)
(-0.172675 0.00227978 -0.0133976)
(-0.172875 0.000635492 -0.014338)
(-0.172199 -0.00236067 -0.0153117)
(-0.170015 -0.00704052 -0.0163228)
(-0.165497 -0.0135191 -0.0173707)
(-0.15772 -0.0214779 -0.0184455)
(-0.167484 0.0289189 -0.00176296)
(-0.174022 0.0204075 -0.00247105)
(-0.177859 0.013789 -0.00322993)
(-0.180034 0.00907651 -0.00402208)
(-0.181252 0.0059445 -0.00483415)
(-0.181945 0.00400039 -0.00565798)
(-0.182365 0.0029069 -0.00648884)
(-0.182655 0.002413 -0.0073241)
(-0.182896 0.00234104 -0.00816245)
(-0.183137 0.00255894 -0.00900349)
(-0.183411 0.00294878 -0.00984744)
(-0.183732 0.00337465 -0.0106951)
(-0.184101 0.0036501 -0.0115481)
(-0.184488 0.00350605 -0.0124089)
(-0.184809 0.00256417 -0.0132816)
(-0.184885 0.000326925 -0.0141728)
(-0.184371 -0.00379106 -0.0150921)
(-0.182674 -0.0103535 -0.0160521)
(-0.178863 -0.0196822 -0.0170657)
(-0.171641 -0.031483 -0.0181433)
(-0.17655 0.0368908 -0.00144939)
(-0.181021 0.024853 -0.00224915)
(-0.182798 0.0160691 -0.00307947)
(-0.183324 0.010173 -0.003925)
(-0.183336 0.00644593 -0.00477435)
(-0.18318 0.00422198 -0.00562303)
(-0.18299 0.00300513 -0.0064697)
(-0.182805 0.00246257 -0.00731404)
(-0.182626 0.0023782 -0.008156)
(-0.182448 0.00260367 -0.00899538)
(-0.182265 0.00301506 -0.00983178)
(-0.182086 0.0034733 -0.0106646)
(-0.181928 0.00378468 -0.0114936)
(-0.181825 0.00365837 -0.012319)
(-0.181807 0.00266165 -0.0131434)
(-0.181868 0.000179925 -0.0139734)
(-0.181875 -0.00459241 -0.0148226)
(-0.181423 -0.0125654 -0.0157129)
(-0.179599 -0.0245131 -0.0166759)
(-0.174607 -0.0404999 -0.0177612)
(-0.174413 0.0424514 -0.00101214)
(-0.175168 0.0265561 -0.0019721)
(-0.173826 0.0160474 -0.0029086)
(-0.172189 0.00958479 -0.00382417)
(-0.170798 0.00578799 -0.00471708)
(-0.169747 0.00365079 -0.00559206)
(-0.168966 0.0025319 -0.00645424)
(-0.168348 0.00205082 -0.007307)
(-0.167798 0.00198572 -0.00815204)
(-0.167246 0.00219938 -0.00898956)
(-0.166647 0.00258737 -0.00981846)
(-0.165992 0.00303673 -0.0106366)
(-0.165312 0.00338566 -0.0114412)
(-0.164692 0.00337591 -0.0122298)
(-0.164285 0.00259036 -0.0130015)
(-0.164302 0.000369841 -0.0137606)
(-0.164938 -0.00427692 -0.0145229)
(-0.16621 -0.0126922 -0.0153185)
(-0.167556 -0.026452 -0.0162013)
(-0.166732 -0.0466993 -0.0172932)
(-0.159086 0.0434366 -0.000508568)
(-0.154185 0.0239208 -0.00171233)
(-0.149059 0.0129762 -0.00277703)
(-0.145319 0.00709632 -0.00376282)
(-0.142808 0.00399653 -0.00469069)
(-0.141162 0.00239584 -0.00558256)
(-0.140049 0.00161287 -0.00645301)
(-0.139214 0.00129924 -0.0073095)
(-0.138483 0.00127741 -0.00815519)
(-0.137736 0.00145152 -0.00899027)
(-0.136898 0.00175763 -0.00981266)
(-0.135937 0.00213049 -0.0106183)
(-0.134873 0.00247249 -0.0114018)
(-0.133808 0.00261318 -0.0121566)
(-0.132964 0.00224402 -0.0128769)
(-0.132732 0.000803061 -0.013562)
(-0.133663 -0.00271517 -0.0142268)
(-0.136444 -0.00998707 -0.0149041)
(-0.141556 -0.0237032 -0.0156638)
(-0.147069 -0.0475071 -0.0167401)
(-0.12615 0.0373329 -0.000228566)
(-0.113873 0.0160384 -0.00170275)
(-0.105696 0.007088 -0.00281488)
(-0.10113 0.0032937 -0.003808)
(-0.0985271 0.00163832 -0.00472844)
(-0.0969954 0.000906864 -0.00561077)
(-0.0960295 0.000593584 -0.00647439)
(-0.0953266 0.00048923 -0.00732685)
(-0.0947032 0.000507271 -0.0081702)
(-0.0940413 0.00061056 -0.00900327)
(-0.0932612 0.000780081 -0.0098223)
(-0.0923149 0.000998895 -0.0106211)
(-0.091194 0.00123886 -0.0113908)
(-0.0899562 0.00144094 -0.0121201)
(-0.0887808 0.00147491 -0.0127958)
(-0.0880589 0.00104772 -0.0134068)
(-0.0884726 -0.000518515 -0.013961)
(-0.0913285 -0.00483782 -0.0144638)
(-0.099099 -0.0154641 -0.0149592)
(-0.112866 -0.0403911 -0.0158413)
(-0.0642213 0.0228823 -0.000877472)
(-0.0479097 0.00659566 -0.0023428)
(-0.041228 0.00201017 -0.00309567)
(-0.0388082 0.000645176 -0.00384366)
(-0.0377589 0.000221735 -0.00460817)
(-0.0372239 9.21455e-05 -0.00538565)
(-0.0369056 5.74413e-05 -0.00617381)
(-0.0366652 5.68115e-05 -0.00696746)
(-0.0364286 7.33704e-05 -0.00776158)
(-0.0361477 0.000103792 -0.00855118)
(-0.0357836 0.000148863 -0.00933008)
(-0.0353022 0.000210495 -0.0100897)
(-0.0346758 0.00029013 -0.0108179)
(-0.0338911 0.000385458 -0.0114971)
(-0.0329706 0.000480087 -0.0121021)
(-0.0320247 0.000511912 -0.0125974)
(-0.0313951 0.000257201 -0.0129356)
(-0.0320405 -0.0011377 -0.0130805)
(-0.0376381 -0.00639036 -0.0129119)
(-0.0562686 -0.0255983 -0.01306)
(-0.0305824 0.000689136 1.68712e-06)
(-0.0325497 0.000498627 1.1807e-06)
(-0.0339512 0.000340672 7.82191e-07)
(-0.034907 0.000222864 4.94389e-07)
(-0.0355421 0.000142926 3.04009e-07)
(-0.0359656 9.42024e-05 1.89422e-07)
(-0.0362642 6.96012e-05 1.29901e-07)
(-0.0365042 6.34844e-05 1.0976e-07)
(-0.0367364 7.20205e-05 1.18237e-07)
(-0.0369999 9.26892e-05 1.48625e-07)
(-0.0373249 0.000123352 1.96343e-07)
(-0.0377311 0.000161074 2.56364e-07)
(-0.0382242 0.000200779 3.21085e-07)
(-0.0387874 0.000233839 3.77985e-07)
(-0.0393706 0.00024688 4.0624e-07)
(-0.0398779 0.000221429 3.72134e-07)
(-0.0401583 0.000135679 2.33239e-07)
(-0.0400034 -2.98585e-05 -3.61151e-08)
(-0.0391667 -0.000286951 -5.10552e-07)
(-0.0374097 -0.000624288 -1.22503e-06)
(-0.0799335 0.00437184 -1.50243e-06)
(-0.0847969 0.00323227 -1.25506e-06)
(-0.0882912 0.0022767 -9.93268e-07)
(-0.0907083 0.00154901 -7.59411e-07)
(-0.0923446 0.00103975 -5.68483e-07)
(-0.093457 0.000714265 -4.28036e-07)
(-0.0942498 0.000533195 -3.37824e-07)
(-0.0948782 0.000462692 -2.91966e-07)
(-0.0954582 0.000476762 -2.82452e-07)
(-0.0960756 0.000555038 -2.99949e-07)
(-0.0967896 0.000678204 -3.32781e-07)
(-0.0976309 0.00082222 -3.65718e-07)
(-0.0985929 0.000952055 -3.78134e-07)
(-0.0996156 0.0010158 -3.42641e-07)
(-0.100565 0.000940842 -2.25508e-07)
(-0.10121 0.000635255 8.55456e-09)
(-0.101209 -9.43752e-07 3.82827e-07)
(-0.100114 -0.0010499 8.8811e-07)
(-0.097413 -0.00253791 1.49365e-06)
(-0.0926263 -0.00438327 2.06323e-06)
(-0.118967 0.0114383 -1.83493e-07)
(-0.125589 0.0084404 -3.22064e-07)
(-0.13024 0.00594989 -3.5397e-07)
(-0.133395 0.00406379 -3.37001e-07)
(-0.135499 0.00274468 -2.88298e-07)
(-0.136912 0.00189579 -2.30518e-07)
(-0.137908 0.00141195 -1.78165e-07)
(-0.138683 0.00120328 -1.36633e-07)
(-0.139382 0.00119967 -1.06647e-07)
(-0.140103 0.00134463 -8.63927e-08)
(-0.140913 0.00158415 -7.22492e-08)
(-0.14184 0.00185308 -5.97201e-08)
(-0.142867 0.00206095 -4.36156e-08)
(-0.143911 0.00207919 -1.75008e-08)
(-0.144799 0.00173367 2.72631e-08)
(-0.145238 0.000809571 9.78508e-08)
(-0.144791 -0.000921402 1.90174e-07)
(-0.142877 -0.00364248 2.9824e-07)
(-0.138814 -0.00739696 4.09475e-07)
(-0.131928 -0.0119754 3.48231e-07)
(-0.148161 0.0200235 -2.9323e-07)
(-0.155362 0.0145433 -4.74459e-07)
(-0.160143 0.0101036 -4.71898e-07)
(-0.16322 0.0068172 -4.19985e-07)
(-0.165176 0.00456009 -3.34564e-07)
(-0.166438 0.00312391 -2.47812e-07)
(-0.167294 0.00230492 -1.75911e-07)
(-0.167942 0.00193835 -1.21411e-07)
(-0.16851 0.00189999 -8.25034e-08)
(-0.169086 0.00209224 -5.62922e-08)
(-0.169725 0.00242394 -3.9419e-08)
(-0.170451 0.00278763 -2.88403e-08)
(-0.171246 0.00303617 -2.18514e-08)
(-0.17204 0.00296128 -1.41365e-08)
(-0.172674 0.00227932 5.42853e-09)
(-0.172874 0.000634785 4.89906e-08)
(-0.172197 -0.00236146 1.02521e-07)
(-0.170012 -0.00704051 2.03491e-07)
(-0.165497 -0.0135168 3.96408e-07)
(-0.157726 -0.0214751 3.49903e-07)
(-0.167493 0.0289101 -8.00681e-07)
(-0.174022 0.0204 -8.98254e-07)
(-0.177856 0.0137854 -7.28214e-07)
(-0.180031 0.00907517 -5.69817e-07)
(-0.181249 0.00594447 -4.01412e-07)
(-0.181943 0.00400096 -2.63961e-07)
(-0.182364 0.00290764 -1.68752e-07)
(-0.182654 0.0024137 -1.07305e-07)
(-0.182895 0.00234164 -7.02182e-08)
(-0.183137 0.00255942 -5.049e-08)
(-0.18341 0.00294912 -4.30907e-08)
(-0.183732 0.00337484 -4.46573e-08)
(-0.184101 0.00365007 -5.28161e-08)
(-0.184487 0.00350576 -6.26904e-08)
(-0.184808 0.00256364 -5.48829e-08)
(-0.184883 0.000326389 -2.32155e-09)
(-0.184368 -0.00379112 5.10151e-08)
(-0.182669 -0.0103514 2.01171e-07)
(-0.17886 -0.0196736 6.97209e-07)
(-0.171651 -0.0314702 9.98528e-07)
(-0.176566 0.0368729 -1.71153e-06)
(-0.181017 0.0248409 -1.46103e-06)
(-0.182791 0.0160655 -9.15849e-07)
(-0.183318 0.0101728 -6.1368e-07)
(-0.183333 0.00644708 -3.61205e-07)
(-0.183178 0.00422345 -1.90596e-07)
(-0.182989 0.00300644 -9.44377e-08)
(-0.182804 0.00246361 -4.34581e-08)
(-0.182626 0.002379 -1.8494e-08)
(-0.182448 0.00260429 -8.97438e-09)
(-0.182265 0.00301553 -9.60648e-09)
(-0.182086 0.00347364 -1.84708e-08)
(-0.181928 0.00378485 -3.56962e-08)
(-0.181825 0.00365828 -6.05082e-08)
(-0.181807 0.00266129 -7.49252e-08)
(-0.181866 0.000179626 -4.41671e-08)
(-0.18187 -0.00459186 -2.2909e-08)
(-0.181413 -0.0125616 1.12122e-07)
(-0.179589 -0.0244968 1.19869e-06)
(-0.174624 -0.0404724 2.53421e-06)
(-0.174446 0.0424266 -4.55549e-06)
(-0.175154 0.026548 -3.00808e-06)
(-0.173811 0.0160511 -1.39049e-06)
(-0.172181 0.00958914 -7.25171e-07)
(-0.170794 0.00579154 -3.08168e-07)
(-0.169745 0.00365342 -9.52378e-08)
(-0.168965 0.00253371 -1.16147e-08)
(-0.168348 0.0020521 1.58778e-08)
(-0.167798 0.00198671 1.93471e-08)
(-0.167246 0.00220027 1.1699e-08)
(-0.166647 0.00258825 -2.68606e-09)
(-0.165992 0.00303762 -2.33404e-08)
(-0.165312 0.0033865 -5.12255e-08)
(-0.164692 0.00337648 -8.88425e-08)
(-0.164284 0.00259036 -1.17564e-07)
(-0.164299 0.00036928 -6.07759e-08)
(-0.164931 -0.00427845 7.30927e-08)
(-0.16619 -0.0126947 3.64061e-07)
(-0.16753 -0.0264406 2.89595e-06)
(-0.166765 -0.0466638 6.9631e-06)
(-0.159146 0.0433955 -7.7395e-06)
(-0.154153 0.0239311 -3.14439e-06)
(-0.14904 0.0129979 -6.38018e-07)
(-0.145314 0.0071086 -2.4275e-07)
(-0.142806 0.0040028 3.14553e-08)
(-0.141162 0.00239925 1.28092e-07)
(-0.140049 0.00161482 1.21137e-07)
(-0.139214 0.00130059 9.96949e-08)
(-0.138483 0.00127865 8.27003e-08)
(-0.137736 0.00145292 7.07129e-08)
(-0.136898 0.00175935 6.07947e-08)
(-0.135937 0.00213258 4.83595e-08)
(-0.134873 0.00247484 2.62141e-08)
(-0.133808 0.00261538 -2.6022e-08)
(-0.132964 0.00224518 -1.02568e-07)
(-0.132732 0.000801644 -3.35929e-08)
(-0.133662 -0.00272365 9.71044e-08)
(-0.136423 -0.0100095 -3.57178e-07)
(-0.141511 -0.0237164 2.56076e-06)
(-0.147128 -0.0474513 1.11255e-05)
(-0.126224 0.0371364 -9.67119e-06)
(-0.113805 0.0159789 4.28531e-06)
(-0.105685 0.00707698 4.79698e-06)
(-0.101139 0.00328653 2.04835e-06)
(-0.0985326 0.00163298 1.05993e-06)
(-0.096998 0.000903539 6.43564e-07)
(-0.0960309 0.0005914 4.04795e-07)
(-0.0953271 0.000487598 3.06808e-07)
(-0.0947031 0.000505852 2.94859e-07)
(-0.0940409 0.000609123 3.31699e-07)
(-0.0932607 0.000778479 3.9792e-07)
(-0.0923145 0.000997075 4.76779e-07)
(-0.0911943 0.00123691 5.38839e-07)
(-0.0899579 0.00143923 5.08106e-07)
(-0.0887844 0.00147419 2.87328e-07)
(-0.0880676 0.00104896 -7.23789e-08)
(-0.0884917 -0.000515215 -1.29129e-06)
(-0.0913249 -0.00483057 -5.95489e-06)
(-0.0990092 -0.0153999 -8.07938e-06)
(-0.112917 -0.0401357 1.20332e-05)
(-0.064264 0.0227375 -5.37289e-05)
(-0.0477511 0.00652689 -9.13528e-06)
(-0.0411831 0.00198245 -6.60128e-07)
(-0.0388039 0.000629527 -1.46799e-06)
(-0.037756 0.00021262 -9.53869e-07)
(-0.0372218 8.7014e-05 -4.4799e-07)
(-0.0369048 5.4314e-05 -2.53531e-07)
(-0.0366648 5.45313e-05 -1.79829e-07)
(-0.0364286 7.12976e-05 -1.59531e-07)
(-0.0361479 0.000101541 -1.75673e-07)
(-0.0357839 0.000146196 -2.17504e-07)
(-0.0353026 0.000207316 -2.74505e-07)
(-0.0346762 0.00028657 -3.31843e-07)
(-0.0338911 0.000382103 -3.63481e-07)
(-0.0329696 0.000478281 -2.79251e-07)
(-0.0320237 0.00051388 1.6547e-07)
(-0.0313975 0.000266528 6.00692e-07)
(-0.0319988 -0.00111416 -1.98402e-06)
(-0.0374228 -0.00631646 3.95134e-06)
(-0.0562555 -0.0254041 6.79359e-05)
(-0.0305824 0.000689136 -1.68877e-06)
(-0.0325497 0.000498627 -1.1817e-06)
(-0.0339511 0.000340672 -7.82808e-07)
(-0.034907 0.000222864 -4.94739e-07)
(-0.0355421 0.000142926 -3.04159e-07)
(-0.0359656 9.42023e-05 -1.89432e-07)
(-0.0362642 6.9601e-05 -1.29798e-07)
(-0.0365042 6.34842e-05 -1.09608e-07)
(-0.0367364 7.20204e-05 -1.1823e-07)
(-0.0369999 9.2689e-05 -1.48773e-07)
(-0.0373249 0.000123352 -1.96538e-07)
(-0.0377311 0.000161074 -2.56598e-07)
(-0.0382242 0.000200779 -3.21332e-07)
(-0.0387874 0.000233839 -3.78141e-07)
(-0.0393706 0.00024688 -4.06216e-07)
(-0.0398779 0.000221429 -3.71915e-07)
(-0.0401583 0.000135679 -2.32878e-07)
(-0.0400034 -2.98584e-05 3.65197e-08)
(-0.0391667 -0.000286951 5.10932e-07)
(-0.0374097 -0.000624287 1.2254e-06)
(-0.0799335 0.00437183 1.50072e-06)
(-0.0847969 0.00323227 1.25401e-06)
(-0.0882912 0.0022767 9.92627e-07)
(-0.0907083 0.00154901 7.59097e-07)
(-0.0923446 0.00103975 5.68411e-07)