/*--------------------------------*- C++ -*----------------------------------*\
| =========                 |                                                 |
| \\      /  F ield         | OpenFOAM: The Open Source CFD Toolbox           |
|  \\    /   O peration     | Version:  2.4.0                                 |
|   \\  /    A nd           | Web:      www.OpenFOAM.org                      |
|    \\/     M anipulation  |                                                 |
\*---------------------------------------------------------------------------*/
FoamFile
{
    version     2.0;
    format      ascii;
    class       volScalarField;
    location    "0.33";
    object      T;
}
// * * * * * * * * * * * * * * * * * * * * * * * * * * * * * * * * * * * * * //

dimensions      [0 0 0 1 0 0 0];

internalField   nonuniform List<scalar> 
1600
(
101.101
103.303
105.509
107.72
109.938
112.166
114.404
116.656
118.921
121.203
123.501
125.818
128.154
130.51
132.887
135.286
137.706
140.148
142.613
145.099
147.607
150.137
152.688
155.259
157.851
160.463
163.094
165.743
168.411
171.094
173.794
176.509
179.238
181.979
184.732
187.494
190.265
193.041
195.823
198.607
101.102
103.306
105.513
107.726
109.946
112.175
114.416
116.669
118.936
121.219
123.519
125.837
128.174
130.532
132.91
135.31
137.731
140.174
142.639
145.125
147.633
150.163
152.714
155.285
157.876
160.487
163.117
165.766
168.431
171.114
173.812
176.525
179.252
181.992
184.743
187.503
190.272
193.047
195.826
198.608
101.103
103.311
105.522
107.738
109.962
112.194
114.438
116.694
118.964
121.25
123.553
125.874
128.214
130.574
132.955
135.356
137.779
140.223
142.689
145.177
147.686
150.215
152.766
155.336
157.927
160.536
163.164
165.81
168.474
171.153
173.848
176.558
179.282
182.017
184.764
187.521
190.285
193.056
195.832
198.61
101.106
103.319
105.535
107.756
109.985
112.222
114.471
116.732
119.007
121.297
123.604
125.929
128.273
130.637
133.021
135.425
137.85
140.297
142.764
145.253
147.763
150.293
152.843
155.413
158.001
160.609
163.234
165.877
168.537
171.212
173.903
176.607
179.326
182.056
184.797
187.548
190.306
193.071
195.841
198.613
101.109
103.329
105.552
107.78
110.015
112.259
114.514
116.782
119.063
121.359
123.672
126.002
128.351
130.719
133.107
135.515
137.944
140.393
142.863
145.353
147.864
150.394
152.944
155.513
158.1
160.705
163.327
165.966
168.62
171.29
173.975
176.673
179.384
182.107
184.841
187.584
190.335
193.092
195.853
198.617
101.114
103.342
105.573
107.81
110.053
112.306
114.569
116.844
119.132
121.436
123.756
126.092
128.447
130.821
133.214
135.627
138.059
140.512
142.985
145.477
147.989
150.52
153.069
155.637
158.222
160.823
163.442
166.075
168.724
171.388
174.065
176.755
179.458
182.172
184.896
187.629
190.37
193.117
195.868
198.622
101.119
103.357
105.599
107.845
110.099
112.361
114.633
116.918
119.215
121.527
123.855
126.2
128.562
130.942
133.341
135.759
138.197
140.653
143.129
145.624
148.137
150.669
153.218
155.784
158.366
160.965
163.578
166.206
168.849
171.504
174.173
176.853
179.546
182.249
184.962
187.683
190.412
193.147
195.886
198.629
101.125
103.375
105.628
107.887
110.152
112.425
114.708
117.003
119.311
121.633
123.97
126.324
128.694
131.082
133.488
135.912
138.355
140.816
143.295
145.793
148.308
150.84
153.389
155.953
158.533
161.128
163.736
166.358
168.993
171.639
174.298
176.968
179.648
182.339
185.039
187.747
190.462
193.183
195.908
198.636
101.131
103.395
105.662
107.934
110.212
112.498
114.794
117.101
119.421
121.754
124.101
126.465
128.844
131.24
133.654
136.085
138.534
141
143.483
145.984
148.501
151.034
153.582
156.145
158.722
161.312
163.915
166.53
169.156
171.793
174.441
177.098
179.766
182.442
185.127
187.819
190.518
193.223
195.932
198.644
101.139
103.418
105.7
107.987
110.28
112.581
114.891
117.211
119.544
121.889
124.248
126.622
129.012
131.418
133.84
136.278
138.733
141.205
143.692
146.196
148.715
151.249
153.797
156.358
158.932
161.517
164.114
166.721
169.339
171.965
174.601
177.245
179.897
182.558
185.226
187.901
190.582
193.269
195.96
198.653
101.148
103.444
105.743
108.047
110.356
112.673
114.998
117.334
119.681
122.039
124.411
126.797
129.198
131.614
134.044
136.491
138.953
141.43
143.922
146.429
148.95
151.484
154.032
156.591
159.161
161.742
164.332
166.932
169.539
172.155
174.777
177.407
180.043
182.686
185.336
187.992
190.654
193.32
195.991
198.663
101.157
103.472
105.79
108.113
110.44
112.775
115.117
117.469
119.832
122.205
124.591
126.99
129.402
131.829
134.269
136.724
139.193
141.676
144.172
146.682
149.205
151.74
154.286
156.843
159.41
161.986
164.569
167.16
169.758
172.361
174.97
177.584
180.203
182.828
185.457
188.092
190.732
193.377
196.025
198.674
101.168
103.504
105.843
108.185
110.533
112.887
115.248
117.618
119.997
122.387
124.788
127.2
129.625
132.063
134.513
136.977
139.453
141.942
144.443
146.956
149.481
152.016
154.561
157.115
159.678
162.248
164.824
167.406
169.993
172.584
175.178
177.776
180.377
182.982
185.59
188.202
190.818
193.438
196.062
198.687
101.179
103.538
105.9
108.265
110.635
113.01
115.392
117.781
120.179
122.586
125.002
127.43
129.868
132.318
134.779
137.251
139.735
142.229
144.735
147.251
149.777
152.312
154.855
157.406
159.964
162.528
165.096
167.669
170.244
172.822
175.402
177.983
180.565
183.148
185.734
188.321
190.912
193.506
196.102
198.7
101.192
103.576
105.963
108.353
110.746
113.144
115.548
117.959
120.376
122.802
125.236
127.679
130.132
132.594
135.066
137.547
140.038
142.539
145.049
147.568
150.095
152.629
155.17
157.718
160.27
162.827
165.387
167.949
170.513
173.077
175.641
178.204
180.766
183.327
185.889
188.45
191.013
193.578
196.146
198.715
101.206
103.618
106.032
108.449
110.868
113.292
115.72
118.153
120.592
123.038
125.49
127.95
130.418
132.893
135.376
137.867
140.367
142.873
145.387
147.909
150.436
152.97
155.508
158.051
160.598
163.147
165.698
168.249
170.799
173.348
175.895
178.44
180.981
183.519
186.055
188.589
191.123
193.657
196.194
198.731
101.221
103.664
106.108
108.554
111.002
113.453
115.907
118.365
120.828
123.295
125.767
128.245
130.728
133.217
135.713
138.214
140.721
143.234
145.753
148.276
150.804
153.336
155.872
158.41
160.949
163.49
166.03
168.569
171.105
173.638
176.167
178.692
181.211
183.725
186.234
188.739
191.241
193.743
196.246
198.748
101.238
103.714
106.191
108.669
111.148
113.629
116.112
118.597
121.084
123.575
126.068
128.565
131.066
133.57
136.078
138.59
141.105
143.625
146.147
148.673
151.202
153.732
156.264
158.796
161.328
163.859
166.388
168.913
171.434
173.949
176.459
178.961
181.456
183.944
186.425
188.899
191.368
193.834
196.301
198.766
101.256
103.769
106.282
108.795
111.308
113.822
116.336
118.85
121.365
123.88
126.397
128.914
131.433
133.953
136.475
138.998
141.522
144.048
146.576
149.104
151.632
154.161
156.688
159.214
161.738
164.258
166.774
169.284
171.788
174.284
176.772
179.251
181.72
184.18
186.63
189.072
191.505
193.934
196.361
198.786
101.276
103.829
106.382
108.933
111.484
114.033
116.581
119.127
121.672
124.214
126.756
129.295
131.833
134.371
136.907
139.442
141.976
144.509
147.041
149.572
152.1
154.626
157.149
159.668
162.183
164.691
167.192
169.686
172.171
174.646
177.11
179.563
182.004
184.433
186.851
189.257
191.653
194.041
196.426
198.808
101.299
103.896
106.492
109.086
111.677
114.266
116.851
119.432
122.008
124.58
127.148
129.712
132.271
134.826
137.378
139.926
142.47
145.011
147.548
150.081
152.61
155.134
157.651
160.163
162.667
165.162
167.648
170.124
172.588
175.04
177.478
179.903
182.312
184.708
187.09
189.458
191.813
194.158
196.497
198.831
101.323
103.969
106.613
109.254
111.891
114.522
117.147
119.766
122.378
124.982
127.579
130.168
132.75
135.325
137.893
140.455
143.011
145.559
148.102
150.638
153.166
155.687
158.199
160.702
163.195
165.676
168.145
170.602
173.043
175.47
177.88
180.273
182.648
185.007
187.349
189.675
191.986
194.284
196.574
198.856
101.35
104.05
106.747
109.44
112.126
114.804
117.474
120.134
122.784
125.423
128.051
130.668
133.275
135.871
138.457
141.034
143.601
146.158
148.707
151.245
153.773
156.291
158.797
161.291
163.772
166.238
168.689
171.124
173.541
175.939
178.319
180.677
183.016
185.334
187.632
189.913
192.175
194.422
196.659
198.884
101.381
104.14
106.896
109.645
112.386
115.117
117.835
120.54
123.231
125.908
128.57
131.218
133.851
136.47
139.075
141.667
144.247
146.813
149.368
151.909
154.437
156.951
159.451
161.935
164.402
166.853
169.284
171.696
174.086
176.455
178.8
181.122
183.419
185.693
187.944
190.173
192.382
194.573
196.751
198.915
101.414
104.24
107.061
109.874
112.675
115.462
118.234
120.989
123.725
126.443
129.141
131.821
134.483
137.126
139.752
142.361
144.953
147.53
150.09
152.634
155.162
157.673
160.165
162.639
165.093
167.525
169.936
172.323
174.684
177.02
179.329
181.61
183.863
186.088
188.286
190.46
192.61
194.739
196.853
198.949
101.451
104.352
107.245
110.127
112.995
115.846
118.676
121.485
124.27
127.032
129.77
132.485
135.177
137.846
140.494
143.12
145.727
148.313
150.88
153.427
155.955
158.461
160.946
163.409
165.848
168.262
170.65
173.01
175.342
177.642
179.912
182.149
184.353
186.525
188.665
190.777
192.861
194.923
196.966
198.986
101.493
104.476
107.45
110.41
113.352
116.272
119.166
122.034
124.873
127.683
130.463
133.215
135.939
138.636
141.306
143.952
146.573
149.17
151.743
154.294
156.82
159.322
161.8
164.251
166.674
169.069
171.433
173.765
176.063
178.327
180.554
182.743
184.895
187.008
189.086
191.129
193.141
195.126
197.091
199.028
101.54
104.615
107.679
110.726
113.75
116.746
119.711
122.642
125.539
128.4
131.227
134.018
136.776
139.502
142.196
144.861
147.497
150.105
152.685
155.239
157.765
160.262
162.731
165.17
167.577
169.951
172.29
174.593
176.857
179.08
181.261
183.4
185.494
187.545
189.553
191.521
193.453
195.353
197.231
199.074
101.592
104.771
107.937
111.08
114.195
117.275
120.317
123.318
126.277
129.193
132.068
134.901
137.695
140.45
143.17
145.855
148.506
151.125
153.713
156.269
158.794
161.287
163.747
166.173
168.564
170.916
173.229
175.501
177.728
179.909
182.042
184.126
186.159
188.141
190.073
191.959
193.802
195.608
197.387
199.126
101.651
104.948
108.227
111.479
114.694
117.866
120.992
124.068
127.094
130.069
132.994
135.871
138.702
141.489
144.234
146.939
149.606
152.237
154.831
157.39
159.914
162.402
164.853
167.266
169.639
171.97
174.256
176.496
178.685
180.822
182.905
184.93
186.897
188.805
190.655
192.449
194.193
195.895
197.562
199.185
101.719
105.149
108.556
111.929
115.255
118.53
121.746
124.903
127.999
131.035
134.013
136.936
139.805
142.623
145.395
148.121
150.804
153.445
156.047
158.609
161.132
163.614
166.056
168.456
170.811
173.12
175.379
177.585
179.736
181.827
183.857
185.821
187.717
189.546
191.306
193.001
194.635
196.219
197.76
199.252
101.796
105.378
108.931
112.439
115.89
119.275
122.59
125.832
129.002
132.102
135.135
138.103
141.011
143.862
146.659
149.406
152.104
154.757
157.365
159.93
162.452
164.929
167.362
169.748
172.086
174.372
176.604
178.777
180.888
182.933
184.908
186.808
188.631
190.375
192.038
193.624
195.137
196.588
197.985
199.328
101.886
105.643
109.362
113.023
116.611
120.116
123.535
126.868
130.115
133.28
136.368
139.382
142.328
145.211
148.034
150.8
153.514
156.178
158.793
161.36
163.88
166.352
168.776
171.149
173.47
175.734
177.939
180.079
182.151
184.15
186.069
187.904
189.651
191.305
192.865
194.332
195.709
197.01
198.244
199.416
101.99
105.952
109.863
113.695
117.433
121.068
124.597
128.022
131.348
134.578
137.721
140.781
143.764
146.677
149.525
152.311
155.039
157.713
160.334
162.903
165.422
167.889
170.304
172.665
174.969
177.212
179.391
181.5
183.534
185.487
187.352
189.122
190.791
192.352
193.803
195.141
196.369
197.5
198.546
199.521
102.116
106.319
110.452
114.477
118.378
122.15
125.792
129.311
132.714
136.008
139.203
142.306
145.326
148.267
151.138
153.942
156.684
159.367
161.993
164.565
167.082
169.545
171.952
174.301
176.589
178.813
180.968
183.047
185.046
186.955
188.768
190.475
192.067
193.535
194.872
196.074
197.138
198.078
198.904
199.648
102.27
106.767
111.157
115.396
119.472
123.384
127.14
130.75
134.226
137.581
140.825
143.968
147.019
149.987
152.878
155.698
158.452
161.144
163.775
166.349
168.865
171.324
173.723
176.062
178.337
180.544
182.677
184.73
186.696
188.567
190.331
191.979
193.498
194.875
196.099
197.157
198.045
198.771
199.338
199.802
102.469
107.331
112.019
116.491
120.747
124.797
128.66
132.355
135.898
139.306
142.593
145.771
148.851
151.842
154.751
157.585
160.349
163.048
165.684
168.259
170.775
173.23
175.624
177.955
180.219
182.411
184.526
186.557
188.496
190.333
192.056
193.652
195.106
196.4
197.515
198.433
199.133
199.62
199.876
199.995
102.742
108.076
113.101
117.812
122.24
126.417
130.375
134.143
137.742
141.195
144.518
147.724
150.827
153.836
156.76
159.606
162.379
165.084
167.724
170.301
172.817
175.27
177.66
179.985
182.24
184.422
186.523
188.537
190.455
192.266
193.956
195.512
196.913
198.139
199.161
199.951
200.47
200.697
200.576
200.254
103.203
109.119
114.481
119.414
123.992
128.273
132.306
136.129
139.771
143.258
146.607
149.835
152.955
155.978
158.913
161.768
164.548
167.258
169.902
172.481
174.997
177.45
179.838
182.159
184.409
186.584
188.677
190.68
192.583
194.377
196.045
197.573
198.938
200.115
201.072
201.767
202.138
202.125
201.583
200.692
104.052
110.707
116.345
121.428
126.097
130.437
134.51
138.362
142.027
145.53
148.893
152.133
155.262
158.293
161.234
164.094
166.878
169.591
172.236
174.817
177.333
179.785
182.172
184.491
186.739
188.91
190.998
192.995
194.891
196.675
198.332
199.844
201.188
202.339
203.257
203.901
204.189
204.041
203.208
201.739
)
;

boundaryField
{
    carasuperior
    {
        type            fixedGradient;
        gradient        uniform 100;
    }
    lateralizquierda
    {
        type            fixedValue;
        value           uniform 100;
    }
    lateralderecha
    {
        type            fixedValue;
        value           uniform 200;
    }
    carainferior
    {
        type            zeroGradient;
    }
    frontAndBack
    {
        type            empty;
    }
}


// ************************************************************************* //
