/*--------------------------------*- C++ -*----------------------------------*\
| =========                 |                                                 |
| \\      /  F ield         | OpenFOAM: The Open Source CFD Toolbox           |
|  \\    /   O peration     | Version:  2.4.0                                 |
|   \\  /    A nd           | Web:      www.OpenFOAM.org                      |
|    \\/     M anipulation  |                                                 |
\*---------------------------------------------------------------------------*/
FoamFile
{
    version     2.0;
    format      ascii;
    class       volScalarField;
    location    "0.07";
    object      T;
}
// * * * * * * * * * * * * * * * * * * * * * * * * * * * * * * * * * * * * * //

dimensions      [0 0 0 1 0 0 0];

internalField   nonuniform List<scalar> 
1600
(
97.6242
92.8931
88.2234
83.6558
79.2305
74.9869
70.9636
67.1983
63.727
60.5847
57.8047
55.4182
53.4551
51.9427
50.9065
50.3695
50.3525
50.8735
51.948
53.5885
55.8048
58.6034
61.9878
65.9581
70.5108
75.6391
81.3323
87.5761
94.3521
101.638
109.407
117.63
126.271
135.293
144.652
154.305
164.201
174.29
184.518
194.83
97.6243
92.8933
88.2237
83.6562
79.231
74.9875
70.9644
67.1992
63.7282
60.5863
57.8068
55.421
53.4586
51.9471
50.912
50.3763
50.3606
50.8831
51.9591
53.6012
55.819
58.619
62.0046
65.9759
70.5293
75.658
81.3513
87.5948
94.3702
101.655
109.423
117.644
126.284
135.304
144.662
154.313
164.207
174.294
184.521
194.831
97.6244
92.8936
88.2243
83.6571
79.2321
74.9889
70.9661
67.2014
63.7311
60.59
57.8114
55.4269
53.466
51.9563
50.9232
50.3898
50.3767
50.902
51.9808
53.6258
55.8465
58.6492
62.0373
66.0106
70.5657
75.6954
81.3891
87.6323
94.4067
101.69
109.456
117.674
126.311
135.327
144.682
154.329
164.22
174.303
184.526
194.833
97.6246
92.8943
88.2255
83.6587
79.2342
74.9915
70.9694
67.2055
63.7362
60.5963
57.8193
55.4365
53.4778
51.9707
50.9405
50.4104
50.4009
50.9299
52.0128
53.6619
55.8866
58.6932
62.0847
66.0611
70.6185
75.7499
81.4443
87.6873
94.4605
101.742
109.505
117.719
126.351
135.363
144.712
154.353
164.239
174.317
184.534
194.835
97.6251
92.8956
88.2276
83.6616
79.2379
74.9961
70.975
67.2123
63.7444
60.6062
57.8311
55.4508
53.4948
51.9909
50.9644
50.4383
50.4332
50.967
52.0549
53.7091
55.9388
58.7503
62.1463
66.1266
70.6872
75.8208
81.5164
87.7593
94.5312
101.81
109.569
117.778
126.405
135.41
144.752
154.386
164.265
174.335
184.545
194.839
97.6257
92.8974
88.2307
83.6659
79.2435
75.003
70.9834
67.2223
63.7562
60.6202
57.8476
55.4701
53.5175
52.0174
50.9951
50.4738
50.4738
51.0131
52.1068
53.7669
56.0026
58.8198
62.2212
66.2062
70.7708
75.9072
81.6043
87.8474
94.6179
101.894
109.648
117.852
126.472
135.469
144.802
154.428
164.297
174.358
184.559
194.844
97.6266
92.9001
88.2352
83.6722
79.2515
75.0129
70.9952
67.2362
63.7725
60.6391
57.8695
55.4954
53.5466
52.0507
51.0332
50.5171
50.5229
51.0683
52.1684
53.8351
56.0774
58.901
62.3085
66.299
70.8681
76.0079
81.7071
87.9506
94.7198
101.992
109.742
117.939
126.551
135.539
144.862
154.477
164.335
174.385
184.575
194.849
97.6279
92.9038
88.2414
83.6809
79.2626
75.0265
71.0114
67.2551
63.7942
60.664
57.8978
55.5275
53.5829
52.0917
51.0794
50.5689
50.5807
51.1326
52.2395
53.9132
56.1626
58.9932
62.4073
66.4037
70.9778
76.1216
81.8232
88.0674
94.8355
102.105
109.849
118.039
126.642
135.619
144.932
154.534
164.379
174.417
184.594
194.855
97.6296
92.9088
88.2497
83.6925
79.2775
75.0446
71.0327
67.2798
63.8224
60.6958
57.9336
55.5676
53.6275
52.1413
51.1344
50.6297
50.6478
51.2064
52.3202
54.001
56.2576
59.0954
62.5163
66.5189
71.0985
76.2464
81.9509
88.1962
94.9632
102.229
109.969
118.151
126.744
135.71
145.009
154.598
164.429
174.453
184.615
194.862
97.6318
92.9154
88.2607
83.7076
79.2968
75.068
71.0603
67.3115
63.8583
60.736
57.9782
55.6167
53.6816
52.2006
51.1992
50.7004
50.7247
51.2898
52.4104
54.0982
56.3619
59.2065
62.6341
66.643
71.228
76.3804
82.0879
88.3346
95.1009
102.364
110.098
118.273
126.855
135.809
145.095
154.669
164.484
174.492
184.639
194.87
97.6346
92.9238
88.2746
83.727
79.3215
75.0979
71.0952
67.3514
63.9031
60.7857
58.0329
55.6765
53.7465
52.2708
51.2749
50.7819
50.8122
51.3834
52.5103
54.2046
56.4747
59.3257
62.7595
66.7742
71.3644
76.5211
82.2317
88.48
95.246
102.507
110.235
118.402
126.975
135.916
145.187
154.745
164.544
174.535
184.664
194.879
97.6382
92.9343
88.2921
83.7512
79.3523
75.1351
71.1386
67.4008
63.9584
60.8466
58.0993
55.7484
53.8239
52.3535
51.363
50.8754
50.9111
51.4879
52.6203
54.3201
56.5957
59.4522
62.8912
66.9108
71.5055
76.6661
82.3797
88.6296
95.3957
102.654
110.378
118.538
127.1
136.029
145.285
154.827
164.608
174.58
184.692
194.888
97.6425
92.9474
88.3136
83.7812
79.3903
75.1809
71.1919
67.4613
64.0256
60.9204
58.1793
55.8343
53.9154
52.4504
51.4651
50.9825
51.023
51.6043
52.7412
54.4452
56.7249
59.5854
63.0282
67.0516
71.6497
76.8134
82.5293
88.7807
95.5469
102.804
110.524
118.677
127.23
136.147
145.388
154.912
164.675
174.628
184.721
194.897
97.6479
92.9632
88.3399
83.8176
79.4366
75.2366
71.2566
67.5344
64.1068
61.009
58.2748
55.9362
54.0231
52.5636
51.5831
51.1048
51.1493
51.7341
52.874
54.5809
56.863
59.7257
63.1707
67.196
71.796
76.9614
82.6788
88.9311
95.6973
102.953
110.67
118.817
127.362
136.267
145.493
155.001
164.745
174.678
184.751
194.907
97.6543
92.9824
88.3716
83.8615
79.4923
75.3036
71.3342
67.622
64.2037
61.1145
58.388
56.0563
54.1494
52.6952
51.7193
51.2447
51.2921
51.8792
53.0208
54.7286
57.0114
59.8743
63.3192
67.3445
71.9445
77.1099
82.8273
89.0794
95.8451
103.099
110.814
118.956
127.493
136.388
145.601
155.092
164.817
174.73
184.782
194.917
97.6619
93.0052
88.4094
83.9139
79.5587
75.3833
71.4265
67.7261
64.3185
61.2391
58.5213
56.1973
54.2969
52.848
51.8762
51.4048
51.4542
52.0422
53.1838
54.8909
57.1722
60.0332
63.4759
67.4989
72.0966
77.2599
82.9755
89.226
95.99
103.242
110.954
119.092
127.623
136.508
145.709
155.184
164.89
174.783
184.814
194.928
97.6709
93.0322
88.4541
83.9758
79.6371
75.4775
71.5355
67.8487
64.4536
61.3853
58.6774
56.3618
54.4683
53.0248
52.057
51.588
51.6384
52.2262
53.3663
55.0708
57.3486
60.2056
63.6438
67.662
72.255
77.4139
83.1255
89.3724
96.1333
103.383
111.091
119.225
127.75
136.626
145.816
155.276
164.965
174.838
184.847
194.939
97.6815
93.064
88.5066
84.0484
79.7291
75.5878
71.663
67.9921
64.6114
61.5559
58.8591
56.5528
54.6668
53.229
52.2649
51.7979
51.8485
52.4347
53.5719
55.2721
57.5446
60.3953
63.8268
67.8379
72.4238
77.5758
83.281
89.5221
96.2777
103.522
111.226
119.355
127.874
136.743
145.922
155.369
165.04
174.893
184.881
194.95
97.6939
93.1009
88.5677
84.133
79.8362
75.7163
71.8115
68.1589
64.7948
61.7539
59.0697
56.7737
54.8959
53.4641
52.5038
52.0383
52.0883
52.6721
53.805
55.4994
57.7647
60.6073
64.0298
68.0315
72.608
77.7506
83.4467
89.6795
96.4275
103.665
111.362
119.486
127.998
136.859
146.028
155.461
165.116
174.949
184.915
194.961
97.7082
93.1438
88.6386
84.2311
79.9604
75.8652
71.9833
68.3518
65.0066
61.9824
59.3124
57.0282
55.1595
53.7341
52.7777
52.3135
52.3625
52.9429
54.0703
55.7575
58.0142
60.8467
64.2583
68.2485
72.8131
77.9439
83.6286
89.8503
96.5881
103.816
111.505
119.62
128.124
136.976
146.135
155.555
165.194
175.007
184.951
194.973
97.7247
93.1933
88.7203
84.3442
80.1035
76.0367
72.1812
68.5738
65.2502
62.245
59.5912
57.3201
55.4616
54.0434
53.0912
52.6283
52.6758
53.2522
54.3733
56.0521
58.2986
61.1195
64.5184
68.4951
73.0456
78.1622
83.8328
90.0409
96.7656
103.982
111.659
119.763
128.257
137.098
146.245
155.652
165.274
175.067
184.988
194.985
97.7437
93.2501
88.8142
84.4741
80.2679
76.2335
72.4081
68.8283
65.5294
62.5457
59.9101
57.654
55.807
54.3968
53.4492
52.9878
53.0336
53.6055
54.7195
56.3889
58.624
61.4319
64.8163
68.7776
73.3121
78.4122
84.0662
90.258
96.9668
104.168
111.83
119.921
128.401
137.23
146.363
155.755
165.359
175.131
185.028
194.998
97.7655
93.3153
88.9218
84.6228
80.4559
76.4585
72.6675
69.1189
65.848
62.8887
60.2738
58.0345
56.2004
54.7994
53.8572
53.3975
53.4418
54.0088
55.1151
56.7742
58.9968
61.7903
65.1588
69.1029
73.6193
78.7008
84.3358
90.5086
97.1987
104.381
112.026
120.1
128.564
137.376
146.492
155.866
165.451
175.2
185.071
195.013
97.7904
93.3897
89.0448
84.7927
80.6706
76.7153
72.9632
69.45
66.2106
63.2788
60.6872
58.4669
56.6475
55.2569
54.321
53.8635
53.9063
54.4684
55.5665
57.2146
59.4237
62.2016
65.5528
69.4781
73.9746
79.0352
84.649
90.8002
97.4687
104.63
112.254
120.307
128.75
137.543
146.638
155.991
165.553
175.277
185.119
195.028
97.8188
93.4747
89.1851
84.9865
80.9152
77.0076
73.2995
69.8262
66.6223
63.7214
61.1559
58.957
57.1542
55.7754
54.8467
54.3921
54.4337
54.9908
56.0804
57.717
59.9118
62.673
66.0055
69.9104
74.3851
79.423
85.0131
91.1401
97.7841
104.92
112.52
120.548
128.968
137.736
146.807
156.134
165.668
175.363
185.174
195.046
97.8513
93.5716
89.345
85.2071
81.1935
77.3398
73.6812
70.2528
67.0887
64.2224
61.6861
59.511
57.7268
56.3613
55.441
54.9901
55.0308
55.583
56.664
58.2885
60.4683
63.2118
66.5243
70.4074
74.8587
79.8718
85.4361
91.5363
98.1528
105.261
112.832
120.832
129.223
137.962
147.003
156.299
165.802
175.462
185.236
195.067
97.8883
93.6822
89.5273
85.4583
81.51
77.717
74.1142
70.7359
67.6162
64.7883
62.2845
60.1359
58.3722
57.0218
56.1111
55.6646
55.705
56.2525
57.3247
58.9367
61.1008
63.8257
67.1172
70.977
75.4031
80.3895
85.9257
91.9967
98.5829
105.66
113.199
121.166
129.523
138.227
147.234
156.493
165.958
175.577
185.308
195.091
97.9306
93.8084
89.7352
85.7445
81.8699
78.1453
74.6048
71.2825
68.212
65.4265
62.9584
60.8389
59.098
57.7642
56.8643
56.4231
56.4637
57.0066
58.07
59.6693
61.817
64.5226
67.7919
71.6272
76.0267
80.9845
86.4904
92.5296
99.0826
106.125
113.628
121.558
129.876
138.541
147.505
156.722
166.14
175.712
185.392
195.119
97.9791
93.9527
89.9727
86.0709
82.2796
78.6317
75.1607
71.9003
68.884
66.1451
63.716
61.6282
59.9121
58.5965
57.7084
57.2734
57.3147
57.8533
58.9078
60.4941
62.6251
65.3105
68.5568
72.3663
76.7377
81.6652
87.1389
93.1439
99.6607
106.665
114.128
122.016
130.29
138.909
147.825
156.991
166.356
175.871
185.49
195.152
98.0347
94.1183
90.2448
86.4439
82.7465
79.1845
75.7906
72.5984
69.6414
66.953
64.566
62.5124
60.8229
59.5268
58.6517
58.2235
58.2659
58.8004
59.846
61.4191
63.5329
66.1977
69.42
73.2028
77.5447
82.4404
87.8799
93.8484
100.326
107.29
114.709
122.55
130.775
139.341
148.201
157.308
166.61
176.058
185.606
195.191
98.0989
94.3091
90.5576
86.8715
83.2799
79.8135
76.5048
73.3871
70.4942
67.8601
65.5181
63.5008
61.8394
60.5639
59.7024
59.2815
59.3253
59.8558
60.8926
62.4522
64.5487
67.1923
70.3901
74.1452
78.4566
83.3191
88.7227
94.6527
101.089
108.009
115.38
123.17
131.34
139.847
148.643
157.681
166.909
176.279
185.742
195.237
98.1734
94.5302
90.919
87.3637
83.891
80.5308
77.3153
74.2782
71.454
68.8774
66.5826
64.6029
62.9707
61.7164
60.869
60.4556
60.5009
61.0275
62.0552
63.6014
65.6802
68.3023
71.4751
75.202
79.4821
84.3103
89.6767
95.5665
101.96
108.832
116.153
123.888
131.997
140.438
149.162
158.121
167.264
176.542
185.904
195.292
98.2607
94.7885
91.3397
87.9333
84.5939
81.3508
78.2364
75.2853
72.5334
70.0166
67.7703
65.8292
64.2263
62.9933
62.16
61.7539
61.8005
62.3229
63.3416
64.8742
66.9351
69.5356
72.6832
76.3815
80.6299
85.4232
90.7515
96.5999
102.948
109.772
117.039
124.715
132.759
141.128
149.772
158.642
167.685
176.853
186.096
195.358
98.3642
95.0938
91.8338
88.5972
85.4065
82.291
79.2845
76.4238
73.7465
71.2904
69.0929
67.1899
65.6159
64.4035
63.5834
63.1841
63.2316
63.7495
64.7589
66.2777
68.3207
70.8996
74.022
77.6918
81.9084
86.6667
91.9567
97.7633
104.066
110.839
118.052
125.666
133.642
141.933
150.489
159.259
168.188
177.228
186.327
195.44
98.4893
95.4604
92.4216
89.378
86.3512
83.3727
80.4793
77.7109
75.1084
72.7123
70.5621
68.6955
67.1487
65.9554
65.1472
64.7535
64.801
65.3139
66.3136
67.8185
69.8439
72.4014
75.499
79.1407
83.3261
88.0499
93.3022
99.0675
105.325
112.049
119.206
126.759
134.664
142.874
151.336
159.996
168.795
177.686
186.612
195.541
98.6445
95.911
93.1325
90.3063
87.4571
84.6216
81.8428
79.1656
76.6353
74.2959
72.1896
70.3563
68.8337
67.6569
66.8586
66.4689
66.5152
67.0222
68.0118
69.5028
71.5107
74.0474
77.1211
80.7358
84.8912
89.5821
94.7984
100.524
106.739
113.415
120.519
128.012
135.848
143.977
152.342
160.882
169.537
178.254
186.969
195.67
98.8461
96.4838
94.0106
91.424
88.7603
86.068
83.3996
80.8078
78.3434
76.0546
73.9865
72.1816
70.6789
69.5151
68.7238
68.3359
68.3795
68.8797
69.859
71.3362
73.3272
75.8442
78.8955
82.4852
86.613
91.2737
96.457
102.147
108.322
114.955
122.011
129.449
137.221
145.274
153.543
161.963
170.461
178.976
187.428
195.836
99.1252
97.2452
95.1213
92.7852
90.3033
87.7441
85.1743
82.6561
80.2469
77.9993
75.9616
74.1782
72.6901
71.535
70.7474
70.359
70.3983
70.8912
71.86
73.3242
75.2998
77.7992
80.8306
84.3985
88.5024
93.1372
98.2924
103.952
110.094
116.691
123.706
131.098
138.817
146.803
154.989
163.297
171.638
179.928
188.05
196.067
99.5947
98.316
96.5496
94.4504
92.1278
89.6782
87.1855
84.7229
82.3539
80.1352
78.118
76.3484
74.8689
73.7179
72.931
72.5401
72.5745
73.0601
74.0196
75.4728
77.4357
79.9208
82.9366
86.4875
90.5731
95.1883
100.322
105.959
112.077
118.647
125.632
132.991
140.67
148.608
156.732
164.954
173.163
181.241
188.982
196.478
100.46
99.9401
98.4677
96.5277
94.3014
91.9121
89.4591
87.0235
84.6733
82.4675
80.4587
78.6942
77.217
76.0663
75.2777
74.8838
74.9138
75.3939
76.3471
77.793
79.7479
82.2242
85.2307
88.7715
92.8463
97.4501
102.572
108.196
114.3
120.855
127.823
135.162
142.818
150.728
158.814
166.987
175.119
183.072
190.546
197.499
)
;

boundaryField
{
    carasuperior
    {
        type            fixedGradient;
        gradient        uniform 100;
    }
    lateralizquierda
    {
        type            fixedValue;
        value           uniform 100;
    }
    lateralderecha
    {
        type            fixedValue;
        value           uniform 200;
    }
    carainferior
    {
        type            zeroGradient;
    }
    frontAndBack
    {
        type            empty;
    }
}


// ************************************************************************* //
