/*--------------------------------*- C++ -*----------------------------------*\
| =========                 |                                                 |
| \\      /  F ield         | OpenFOAM: The Open Source CFD Toolbox           |
|  \\    /   O peration     | Version:  2.4.0                                 |
|   \\  /    A nd           | Web:      www.OpenFOAM.org                      |
|    \\/     M anipulation  |                                                 |
\*---------------------------------------------------------------------------*/
FoamFile
{
    version     2.0;
    format      ascii;
    class       volScalarField;
    location    "0.005";
    object      T;
}
// * * * * * * * * * * * * * * * * * * * * * * * * * * * * * * * * * * * * * //

dimensions      [0 0 0 1 0 0 0];

internalField   nonuniform List<scalar> 
1600
(
89.0596
68.1997
49.984
35.2206
23.9724
15.829
10.1783
6.39446
3.93595
2.37926
1.41534
0.829942
0.480468
0.27501
0.155922
0.0878904
0.0497557
0.0291679
0.0192393
0.0165797
0.0202991
0.0317592
0.0550257
0.0981501
0.175611
0.312498
0.551342
0.96289
1.66248
2.83394
4.76242
7.87625
12.7934
20.3607
31.6612
47.9467
70.4418
99.9679
136.399
178.119
89.0593
68.1993
49.9834
35.2198
23.9715
15.8281
10.1775
6.39379
3.93542
2.37887
1.41504
0.829726
0.480315
0.274903
0.15585
0.0878423
0.0497248
0.0291487
0.0192287
0.0165761
0.0203029
0.0317729
0.0550541
0.0982011
0.175695
0.312629
0.551535
0.963156
1.66283
2.83435
4.76289
7.87673
12.7938
20.3611
31.6613
47.9466
70.4416
99.9676
136.399
178.119
89.0592
68.1985
49.9821
35.2182
23.9698
15.8265
10.1761
6.39263
3.9345
2.37817
1.41453
0.829366
0.480067
0.274737
0.155741
0.0877734
0.0496827
0.029125
0.0192184
0.0165777
0.0203177
0.0318056
0.0551139
0.0983015
0.175855
0.312872
0.551889
0.963646
1.66347
2.83514
4.7638
7.87772
12.7948
20.3619
31.662
47.9471
70.4418
99.9676
136.399
178.119
89.0589
68.1975
49.9805
35.2162
23.9677
15.8245
10.1743
6.39116
3.93334
2.3773
1.41389
0.828917
0.479759
0.274531
0.155607
0.0876891
0.0496317
0.0290971
0.019208
0.0165831
0.0203417
0.0318559
0.0552037
0.0984518
0.176096
0.313243
0.552438
0.964428
1.66454
2.83653
4.76551
7.87972
12.797
20.3642
31.6641
47.9488
70.443
99.9684
136.399
178.119
89.0585
68.1963
49.9786
35.214
23.9653
15.8222
10.1723
6.38949
3.93203
2.37631
1.41318
0.828412
0.479413
0.274301
0.155458
0.0875945
0.0495746
0.0290661
0.0191969
0.0165906
0.0203712
0.0319164
0.0553112
0.0986314
0.176384
0.313687
0.553097
0.965371
1.66583
2.83823
4.76766
7.8823
12.8
20.3674
31.6674
47.9519
70.4456
99.9702
136.4
178.119
89.0581
68.195
49.9767
35.2115
23.9628
15.8198
10.1702
6.38771
3.93064
2.37526
1.41241
0.827873
0.479045
0.274055
0.155297
0.0874935
0.049514
0.0290342
0.0191876
0.0166035
0.0204114
0.0319963
0.0554526
0.0988682
0.176765
0.314282
0.553993
0.96667
1.66764
2.84065
4.77074
7.88603
12.8043
20.3721
31.6722
47.9565
70.4495
99.9732
136.402
178.12
89.0576
68.1937
49.9747
35.2091
23.9602
15.8173
10.168
6.38589
3.9292
2.37418
1.41163
0.827319
0.478664
0.2738
0.155132
0.0873887
0.0494514
0.0290016
0.0191794
0.0166196
0.0204585
0.0320891
0.0556168
0.0991448
0.177216
0.314991
0.555075
0.968262
1.6699
2.84371
4.77471
7.89093
12.81
20.3784
31.6787
47.9626
70.4548
99.9771
136.405
178.121
89.0572
68.1924
49.9727
35.2067
23.9576
15.8148
10.1658
6.38408
3.92778
2.3731
1.41084
0.826764
0.478283
0.273545
0.154965
0.087283
0.0493882
0.0289693
0.0191725
0.0166388
0.0205115
0.0321925
0.0558002
0.0994552
0.177724
0.315799
0.55632
0.970116
1.67256
2.84738
4.77953
7.89695
12.8171
20.3863
31.6868
47.9704
70.4615
99.9822
136.408
178.122
89.0568
68.1912
49.9708
35.2043
23.9551
15.8124
10.1637
6.38233
3.9264
2.37205
1.41008
0.826223
0.47791
0.273294
0.154801
0.0871793
0.0493266
0.0289385
0.0191676
0.0166612
0.0205699
0.0323057
0.0560008
0.0997959
0.178286
0.316699
0.557719
0.972222
1.67561
2.85164
4.7852
7.90412
12.8257
20.3959
31.6968
47.9799
70.4698
99.9884
136.411
178.123
89.0564
68.1901
49.969
35.2021
23.9528
15.8102
10.1617
6.3807
3.92511
2.37107
1.40936
0.825713
0.477557
0.273057
0.154645
0.0870812
0.0492686
0.0289103
0.0191649
0.016686
0.0206319
0.032425
0.0562126
0.100158
0.178886
0.31767
0.559246
0.974547
1.67903
2.85646
4.79171
7.91247
12.8358
20.4073
31.7088
47.9914
70.4798
99.996
136.416
178.125
89.0561
68.189
49.9675
35.2002
23.9507
15.8082
10.16
6.37923
3.92394
2.37019
1.40871
0.825251
0.477238
0.272842
0.154505
0.0869925
0.0492166
0.0288858
0.0191644
0.0167119
0.0206943
0.0325444
0.0564256
0.100524
0.179501
0.318676
0.560846
0.97702
1.68272
2.86175
4.79897
7.92191
12.8473
20.4206
31.7229
48.0051
70.4916
100.005
136.422
178.126
89.0558
68.1882
49.9662
35.1986
23.949
15.8066
10.1585
6.37799
3.92296
2.36943
1.40816
0.824856
0.476965
0.272659
0.154385
0.0869179
0.0491735
0.0288664
0.0191659
0.0167371
0.020753
0.0326567
0.056627
0.100874
0.180095
0.319662
0.562442
0.979529
1.68654
2.86733
4.80677
7.93226
12.8603
20.4356
31.7391
48.021
70.5056
100.016
136.428
178.128
89.0556
68.1876
49.9652
35.1974
23.9477
15.8053
10.1573
6.37703
3.92219
2.36885
1.40772
0.82455
0.476754
0.272518
0.154294
0.0868618
0.0491418
0.0288532
0.0191694
0.01676
0.0208042
0.0327542
0.0568031
0.101185
0.180631
0.320568
0.563939
0.981935
1.69028
2.87294
4.8148
7.94318
12.8742
20.4522
31.7573
48.0391
70.5216
100.028
136.436
178.131
89.0555
68.1872
49.9646
35.1967
23.9469
15.8045
10.1566
6.37641
3.92169
2.36846
1.40744
0.824351
0.476619
0.272429
0.154238
0.0868285
0.0491244
0.0288478
0.019175
0.0167794
0.0208445
0.0328302
0.0569418
0.101433
0.18107
0.321331
0.565235
0.98408
1.69372
2.87826
4.82265
7.95416
12.8887
20.4699
31.7771
48.0592
70.5398
100.042
136.444
178.134
89.0555
68.1871
49.9645
35.1965
23.9466
15.8042
10.1563
6.37617
3.92149
2.36831
1.40733
0.824277
0.476572
0.272401
0.154223
0.0868219
0.0491237
0.0288515
0.0191835
0.0167947
0.0208719
0.0328801
0.0570338
0.101604
0.181383
0.321897
0.56624
0.985816
1.69662
2.88293
4.82982
7.9646
12.9029
20.4879
31.7979
48.0809
70.5597
100.058
136.454
178.137
89.0556
68.1874
49.9648
35.1968
23.9469
15.8045
10.1566
6.37635
3.92163
2.36842
1.40742
0.824341
0.476621
0.272439
0.154253
0.0868454
0.049142
0.0288662
0.0191959
0.0168067
0.0208863
0.0329023
0.057075
0.101686
0.18155
0.32223
0.566885
0.987022
1.69879
2.88663
4.83584
7.97381
12.9161
20.5053
31.8188
48.1034
70.5809
100.075
136.465
178.14
89.0557
68.1879
49.9656
35.1978
23.9479
15.8054
10.1573
6.37698
3.92212
2.3688
1.4077
0.82455
0.476774
0.27255
0.154332
0.0869019
0.0491823
0.0288946
0.0192151
0.016818
0.0208903
0.0328993
0.057067
0.10168
0.181567
0.322316
0.567138
0.987628
1.70007
2.88912
4.84029
7.98117
12.9273
20.521
31.8386
48.1257
70.6027
100.092
136.476
178.144
89.056
68.1888
49.9669
35.1993
23.9495
15.8069
10.1587
6.37806
3.92298
2.36945
1.40819
0.82491
0.477034
0.272735
0.154465
0.0869957
0.0492489
0.0289413
0.019246
0.0168341
0.02089
0.0328781
0.0570181
0.101596
0.181444
0.322164
0.567002
0.987619
1.70043
2.89026
4.84291
7.98622
12.9359
20.534
31.8562
48.1465
70.624
100.11
136.488
178.148
89.0564
68.1899
49.9687
35.2014
23.9517
15.809
10.1605
6.37957
3.92419
2.37038
1.40889
0.825422
0.477404
0.273002
0.154656
0.0871339
0.0493497
0.0290149
0.0192978
0.0168652
0.0208966
0.0328516
0.0569439
0.101453
0.181207
0.321808
0.566516
0.987037
1.69988
2.89005
4.84358
7.98867
12.9413
20.5435
31.8704
48.1648
70.6437
100.128
136.5
178.152
89.0569
68.1914
49.9708
35.2041
23.9545
15.8116
10.1628
6.38151
3.92573
2.37158
1.40979
0.826089
0.477893
0.273359
0.154918
0.0873306
0.0495001
0.0291319
0.019388
0.0169295
0.02093
0.0328417
0.0568697
0.101283
0.180895
0.321297
0.565746
0.985967
1.69852
2.88857
4.84239
7.98852
12.9433
20.549
31.8805
48.1794
70.6609
100.144
136.511
178.155
89.0574
68.193
49.9734
35.2071
23.9578
15.8147
10.1656
6.38382
3.9276
2.37303
1.4109
0.826923
0.478517
0.273829
0.155278
0.0876135
0.0497296
0.0293229
0.0195483
0.01706
0.0210244
0.032885
0.0568354
0.101129
0.180561
0.320702
0.564784
0.984527
1.69653
2.88603
4.83954
7.98594
12.942
20.5504
31.886
48.1895
70.6745
100.158
136.521
178.159
89.058
68.1948
49.9762
35.2106
23.9614
15.8182
10.1687
6.3865
3.92978
2.37476
1.41224
0.827958
0.479319
0.274459
0.155786
0.0880362
0.0500933
0.0296444
0.0198363
0.0173155
0.02124
0.0330437
0.0569067
0.101065
0.180287
0.320114
0.563744
0.982867
1.69408
2.88268
4.83534
7.98127
12.9377
20.5479
31.8869
48.195
70.6842
100.169
136.53
178.162
89.0586
68.1968
49.9792
35.2143
23.9654
15.8221
10.1722
6.38953
3.93229
2.3768
1.41388
0.829271
0.480383
0.27534
0.156538
0.0886982
0.050693
0.0301997
0.0203563
0.0178012
0.0216836
0.0334264
0.0571948
0.101204
0.180195
0.319669
0.56278
0.981171
1.6914
2.8788
4.83015
7.97496
12.931
20.542
31.8836
48.1958
70.6895
100.177
136.537
178.164
89.0593
68.1988
49.9823
35.2182
23.9696
15.8263
10.1761
6.39297
3.93524
2.37928
1.41595
0.831015
0.481876
0.276648
0.157713
0.0897812
0.0517124
0.0311739
0.0212947
0.0187047
0.0225438
0.0342232
0.0578924
0.101744
0.180487
0.31958
0.562121
0.979692
1.6888
2.87475
4.82441
7.96753
12.9223
20.5333
31.8765
48.1924
70.6909
100.182
136.543
178.166
89.06
68.2008
49.9855
35.2223
23.9742
15.831
10.1805
6.39701
3.93884
2.38245
1.41874
0.833489
0.484106
0.278697
0.159633
0.0916102
0.0534787
0.0328957
0.0229814
0.0203571
0.0241531
0.0357684
0.0593356
0.103023
0.181506
0.320195
0.562126
0.978807
1.68667
2.87098
4.81865
7.95959
12.9125
20.5225
31.8666
48.1855
70.6887
100.184
136.547
178.168
89.0607
68.203
49.9889
35.2267
23.9793
15.8363
10.1858
6.40206
3.94355
2.3868
1.42276
0.837233
0.487629
0.282053
0.162867
0.094758
0.0565669
0.0359416
0.0259942
0.0233374
0.0270919
0.038644
0.0621087
0.105628
0.183842
0.32211
0.563396
0.979126
1.68564
2.86815
4.81353
7.95189
12.9023
20.5106
31.8546
48.1759
70.6835
100.184
136.55
178.169
89.0615
68.2054
49.9928
35.2319
23.9854
15.8429
10.1927
6.4089
3.95023
2.39325
1.42896
0.843215
0.493424
0.287701
0.168404
0.100217
0.061971
0.0413076
0.0313307
0.0286449
0.0323613
0.0438535
0.0672182
0.110571
0.188511
0.326341
0.566949
0.981664
1.68673
2.86726
4.8101
7.94546
12.8928
20.4986
31.8417
48.1646
70.6764
100.182
136.552
178.17
89.0625
68.2084
49.9978
35.2386
23.9935
15.8521
10.2025
6.41899
3.96041
2.40338
1.43898
0.853086
0.503158
0.297319
0.177932
0.109679
0.0713877
0.050693
0.0406925
0.0379832
0.0416664
0.0531029
0.0763706
0.119557
0.197221
0.334603
0.57451
0.988158
1.69165
2.86997
4.80996
7.94187
12.8854
20.4879
31.8291
48.1526
70.668
100.18
136.554
178.171
89.064
68.2129
50.0051
35.2485
24.0056
15.8659
10.2176
6.43491
3.97677
2.41994
1.45558
0.869657
0.519661
0.313749
0.194299
0.125998
0.0876735
0.0669572
0.0569412
0.0542156
0.0578722
0.0692586
0.0924329
0.135453
0.212833
0.34975
0.588919
1.00143
1.70324
2.87915
4.81584
7.94363
12.8826
20.4807
31.8187
48.1416
70.6597
100.176
136.555
178.172
89.0664
68.22
50.0168
35.2644
24.0252
15.8884
10.2423
6.46105
4.00384
2.44754
1.48344
0.897617
0.547636
0.341703
0.222222
0.153894
0.115552
0.0948257
0.0848045
0.0820718
0.0857102
0.0970532
0.120138
0.162991
0.240076
0.376501
0.614876
1.02615
1.7261
2.89931
4.83224
7.95512
12.8882
20.4804
31.8134
48.1337
70.6531
100.174
136.557
178.173
89.0706
68.2324
50.0369
35.2915
24.0582
15.9262
10.2835
6.50474
4.0491
2.49374
1.53016
0.944598
0.594728
0.38883
0.269354
0.201022
0.162678
0.141955
0.13194
0.129211
0.132841
0.144148
0.167147
0.209829
0.286603
0.422495
0.659998
1.06989
1.76772
2.93781
4.86634
7.98329
12.909
20.4927
31.8181
48.133
70.6509
100.175
136.56
178.175
89.0781
68.2541
50.0719
35.3382
24.1146
15.99
10.3528
6.57779
4.12454
2.57063
1.60787
1.02273
0.673066
0.467259
0.347818
0.279503
0.241172
0.220465
0.210468
0.207753
0.211384
0.222663
0.245579
0.288083
0.364522
0.499824
0.736344
1.14466
1.84003
3.00642
4.92961
8.03919
12.9553
20.5276
31.8412
48.1462
70.6581
100.181
136.567
178.179
89.0912
68.2923
50.133
35.4187
24.2105
16.0975
10.4684
6.69877
4.24889
2.69696
1.73531
1.15075
0.80137
0.59569
0.476307
0.408021
0.369713
0.349032
0.339062
0.33637
0.34001
0.351266
0.374097
0.41641
0.492479
0.627118
0.862508
1.26898
1.96143
3.12335
5.03995
8.14024
13.0439
20.6007
31.8967
48.185
70.6838
100.199
136.58
178.185
89.1143
68.3591
50.2385
35.5557
24.3716
16.2758
10.6582
6.89585
4.45033
2.90089
1.94056
1.35667
1.0076
0.80205
0.68272
0.614459
0.576174
0.555519
0.545579
0.542915
0.546566
0.557798
0.580537
0.622636
0.698287
0.832167
1.06625
1.47054
2.1595
3.31599
5.22443
8.31293
13.2004
20.7363
32.0073
48.269
70.7437
100.24
136.605
178.197
89.1544
68.4744
50.418
35.7849
24.6367
16.5654
10.9633
7.21008
4.76975
3.22304
2.26406
1.68076
1.33192
1.12643
1.0071
0.938835
0.900551
0.87991
0.869992
0.867348
0.871004
0.8822
0.904829
0.946681
1.02185
1.15485
1.38741
1.78914
2.47394
3.62387
5.52229
8.59606
13.4628
20.9709
32.2074
48.4296
70.8642
100.324
136.656
178.22
89.2238
68.6714
50.7183
36.1604
25.0632
17.0241
11.4411
7.6984
5.26341
3.71918
2.76118
2.17814
1.82926
1.62365
1.50421
1.43585
1.39752
1.37686
1.36693
1.36429
1.36793
1.37906
1.40155
1.44311
1.51772
1.64971
1.88052
2.27929
2.95924
4.10144
5.98788
9.04375
13.8847
21.3576
32.5482
48.715
71.0879
100.487
136.755
178.259
89.3446
69.0056
51.2114
36.7605
25.73
17.7296
12.1673
8.43466
6.00394
4.46104
3.50305
2.91956
2.57016
2.3641
2.24433
2.17575
2.13728
2.11653
2.10656
2.10387
2.10746
2.1185
2.1408
2.182
2.25597
2.38684
2.61569
3.01118
3.68569
4.81916
6.69197
9.72717
14.5379
21.9683
33.102
49.1964
71.4821
100.783
136.938
178.327
89.5574
69.5697
52.0043
37.6912
26.7378
18.7767
13.2322
9.50623
7.07676
5.53287
4.57329
3.98829
3.63768
3.43076
3.3104
3.24144
3.20272
3.18182
3.17174
3.16896
3.17245
3.18335
3.20541
3.24622
3.3195
3.44917
3.67599
4.06804
4.73691
5.86125
7.71969
10.7329
15.511
22.8946
33.9639
49.9728
72.1484
101.31
137.278
178.456
89.9865
70.5213
53.2382
39.0762
28.1952
20.2642
14.7289
11.0028
8.56985
7.02194
6.05887
5.47121
5.11874
4.91057
4.7894
4.71992
4.68088
4.65976
4.64952
4.64662
4.64998
4.66071
4.68254
4.72296
4.79558
4.92414
5.14908
5.53801
6.20172
7.31773
9.16295
12.1557
16.903
24.2419
35.2481
51.1712
73.2306
102.231
137.939
178.763
90.8601
72.1257
55.0974
41.0374
30.1923
22.2678
16.7279
12.9943
10.5542
9.0005
8.03323
7.44268
7.0883
6.87891
6.75696
6.687
6.64765
6.62632
6.61594
6.61291
6.61615
6.62674
6.64836
6.68848
6.76064
6.88843
7.11209
7.49892
8.15917
9.26956
11.1058
14.0845
18.8103
26.117
37.0765
52.9342
74.9033
103.78
139.278
179.685
)
;

boundaryField
{
    carasuperior
    {
        type            fixedGradient;
        gradient        uniform 100;
    }
    lateralizquierda
    {
        type            fixedValue;
        value           uniform 100;
    }
    lateralderecha
    {
        type            fixedValue;
        value           uniform 200;
    }
    carainferior
    {
        type            zeroGradient;
    }
    frontAndBack
    {
        type            empty;
    }
}


// ************************************************************************* //
