/*--------------------------------*- C++ -*----------------------------------*\
| =========                 |                                                 |
| \\      /  F ield         | OpenFOAM: The Open Source CFD Toolbox           |
|  \\    /   O peration     | Version:  2.4.0                                 |
|   \\  /    A nd           | Web:      www.OpenFOAM.org                      |
|    \\/     M anipulation  |                                                 |
\*---------------------------------------------------------------------------*/
FoamFile
{
    version     2.0;
    format      ascii;
    class       volScalarField;
    location    "0.0011";
    object      T;
}
// * * * * * * * * * * * * * * * * * * * * * * * * * * * * * * * * * * * * * //

dimensions      [0 0 0 1 0 0 0];

internalField   nonuniform List<scalar> 
4800
(
100.031
100.1
100.189
100.308
100.465
100.663
100.899
101.167
101.455
101.749
100.1
100.321
100.601
100.974
101.462
102.073
102.8
103.623
104.505
105.405
100.189
100.601
101.115
101.786
102.652
103.728
105.002
106.437
107.971
109.527
100.308
100.974
101.786
102.824
104.143
105.766
107.678
109.822
112.104
114.403
100.465
101.462
102.652
104.142
106.01
108.289
110.961
113.949
117.119
120.291
100.663
102.072
103.727
105.765
108.289
111.347
114.926
118.932
123.182
127.414
100.899
102.799
105
107.676
110.959
114.925
119.575
124.807
130.397
135.966
101.166
103.621
106.434
109.819
113.945
118.929
124.806
131.502
138.777
146.125
101.454
104.503
107.967
112.099
117.114
123.177
130.393
138.775
148.171
158.05
101.748
105.401
109.522
114.397
120.284
127.407
135.96
146.121
158.049
171.71
100.031
100.1
100.189
100.308
100.465
100.663
100.899
101.167
101.455
101.749
100.1
100.321
100.601
100.974
101.462
102.073
102.8
103.623
104.505
105.404
100.189
100.601
101.115
101.786
102.652
103.728
105.002
106.437
107.971
109.527
100.308
100.974
101.786
102.824
104.143
105.766
107.678
109.822
112.104
114.403
100.465
101.462
102.652
104.142
106.01
108.289
110.961
113.949
117.119
120.291
100.663
102.072
103.727
105.765
108.289
111.348
114.926
118.932
123.182
127.414
100.899
102.799
105
107.676
110.959
114.925
119.575
124.807
130.397
135.966
101.166
103.621
106.435
109.819
113.946
118.929
124.806
131.503
138.777
146.126
101.454
104.503
107.968
112.099
117.114
123.177
130.393
138.776
148.171
158.051
101.748
105.402
109.522
114.397
120.285
127.408
135.961
146.122
158.049
171.71
100.031
100.1
100.189
100.308
100.465
100.663
100.899
101.167
101.455
101.749
100.1
100.321
100.601
100.974
101.462
102.073
102.8
103.623
104.505
105.404
100.189
100.601
101.115
101.786
102.652
103.728
105.002
106.437
107.971
109.526
100.308
100.974
101.786
102.824
104.143
105.766
107.678
109.822
112.104
114.403
100.465
101.462
102.652
104.142
106.01
108.289
110.961
113.949
117.119
120.291
100.663
102.072
103.727
105.765
108.289
111.348
114.926
118.932
123.182
127.414
100.899
102.799
105
107.676
110.959
114.925
119.575
124.807
130.397
135.966
101.166
103.621
106.435
109.819
113.946
118.929
124.806
131.503
138.777
146.126
101.454
104.503
107.967
112.099
117.114
123.177
130.393
138.776
148.171
158.051
101.748
105.402
109.522
114.397
120.285
127.408
135.961
146.122
158.049
171.71
100.031
100.1
100.189
100.308
100.465
100.663
100.899
101.167
101.455
101.749
100.1
100.321
100.601
100.974
101.462
102.073
102.8
103.623
104.505
105.405
100.189
100.601
101.115
101.786
102.652
103.728
105.002
106.437
107.971
109.527
100.308
100.974
101.786
102.824
104.143
105.766
107.678
109.822
112.104
114.403
100.465
101.462
102.652
104.142
106.01
108.289
110.961
113.949
117.119
120.291
100.663
102.072
103.727
105.765
108.289
111.347
114.926
118.932
123.182
127.414
100.899
102.799
105
107.676
110.959
114.925
119.575
124.807
130.397
135.966
101.166
103.621
106.434
109.819
113.945
118.929
124.806
131.502
138.777
146.125
101.454
104.503
107.967
112.099
117.114
123.177
130.393
138.775
148.171
158.05
101.748
105.401
109.522
114.397
120.284
127.407
135.96
146.121
158.049
171.71
102.035
102.301
102.537
102.739
102.904
103.035
103.135
103.206
103.251
103.274
103.274
103.251
103.206
103.135
103.035
102.904
102.738
102.537
102.3
102.035
106.276
107.082
107.794
108.399
108.894
109.283
109.578
109.787
109.921
109.986
109.986
109.921
109.787
109.577
109.282
108.892
108.398
107.793
107.081
106.275
111.024
112.394
113.593
114.599
115.413
116.049
116.526
116.863
117.077
117.181
117.181
117.077
116.862
116.524
116.047
115.411
114.597
113.59
112.392
111.022
116.593
118.568
120.265
121.664
122.778
123.634
124.269
124.714
124.995
125.131
125.131
124.994
124.712
124.267
123.632
122.775
121.661
120.261
118.564
116.59
123.272
125.902
128.102
129.869
131.242
132.276
133.03
133.552
133.879
134.037
134.036
133.878
133.55
133.028
132.273
131.238
129.865
128.098
125.897
123.268
131.325
134.665
137.351
139.426
140.985
142.128
142.945
143.501
143.847
144.012
144.011
143.845
143.499
142.942
142.125
140.981
139.422
137.347
134.66
131.321
141.019
145.111
148.207
150.469
152.092
153.243
154.043
154.58
154.909
155.065
155.065
154.908
154.578
154.041
153.24
152.089
150.466
148.204
145.108
141.015
152.696
157.522
160.819
163.038
164.537
165.555
166.243
166.696
166.97
167.1
167.1
166.97
166.695
166.242
165.553
164.535
163.035
160.816
157.519
152.694
167.004
172.265
175.262
177.043
178.154
178.874
179.346
179.651
179.834
179.92
179.92
179.834
179.651
179.345
178.873
178.153
177.041
175.261
172.264
167.003
185.651
189.826
191.419
192.182
192.612
192.876
193.046
193.154
193.218
193.248
193.248
193.218
193.154
193.045
192.876
192.611
192.182
191.418
189.825
185.65
102.035
102.301
102.537
102.738
102.904
103.035
103.135
103.206
103.251
103.273
103.273
103.251
103.205
103.134
103.035
102.903
102.738
102.536
102.3
102.034
106.276
107.082
107.794
108.399
108.893
109.283
109.577
109.787
109.921
109.986
109.986
109.92
109.786
109.576
109.281
108.891
108.397
107.792
107.08
106.274
111.024
112.394
113.593
114.599
115.413
116.049
116.525
116.862
117.077
117.181
117.181
117.076
116.861
116.523
116.046
115.41
114.596
113.589
112.391
111.02
116.593
118.568
120.265
121.664
122.777
123.634
124.268
124.713
124.994
125.13
125.13
124.993
124.711
124.266
123.631
122.773
121.66
120.26
118.563
116.588
123.271
125.901
128.102
129.869
131.241
132.276
133.03
133.551
133.879
134.036
134.036
133.878
133.549
133.027
132.272
131.237
129.864
128.097
125.896
123.266
131.325
134.664
137.351
139.426
140.985
142.128
142.944
143.5
143.846
144.011
144.01
143.845
143.498
142.941
142.124
140.98
139.421
137.345
134.659
131.32
141.018
145.111
148.207
150.469
152.092
153.242
154.043
154.579
154.908
155.064
155.064
154.907
154.577
154.04
153.239
152.088
150.464
148.202
145.106
141.014
152.696
157.521
160.819
163.038
164.537
165.555
166.243
166.695
166.969
167.099
167.099
166.969
166.694
166.241
165.552
164.533
163.034
160.815
157.517
152.692
167.004
172.265
175.262
177.042
178.154
178.873
179.346
179.651
179.834
179.919
179.919
179.833
179.65
179.344
178.871
178.152
177.04
175.259
172.263
167.001
185.651
189.826
191.419
192.182
192.611
192.876
193.045
193.153
193.218
193.248
193.248
193.217
193.153
193.045
192.875
192.61
192.181
191.417
189.824
185.649
102.035
102.301
102.537
102.738
102.904
103.035
103.135
103.206
103.251
103.273
103.273
103.251
103.205
103.134
103.035
102.903
102.738
102.536
102.3
102.034
106.276
107.082
107.794
108.399
108.893
109.283
109.577
109.787
109.921
109.986
109.986
109.92
109.786
109.576
109.281
108.891
108.397
107.792
107.08
106.274
111.024
112.394
113.593
114.599
115.413
116.049
116.525
116.862
117.077
117.181
117.181
117.076
116.861
116.523
116.046
115.41
114.596
113.589
112.391
111.02
116.593
118.568
120.265
121.664
122.777
123.634
124.268
124.713
124.994
125.13
125.13
124.993
124.711
124.266
123.631
122.773
121.66
120.26
118.563
116.588
123.271
125.901
128.102
129.869
131.241
132.276
133.03
133.551
133.879
134.036
134.036
133.877
133.549
133.027
132.272
131.237
129.864
128.097
125.896
123.266
131.325
134.664
137.351
139.426
140.984
142.128
142.944
143.5
143.846
144.011
144.01
143.845
143.498
142.941
142.124
140.98
139.421
137.345
134.659
131.32
141.018
145.111
148.207
150.469
152.092
153.242
154.043
154.579
154.908
155.064
155.064
154.907
154.577
154.04
153.239
152.088
150.464
148.202
145.106
141.014
152.696
157.521
160.819
163.038
164.537
165.555
166.243
166.695
166.969
167.099
167.099
166.969
166.694
166.241
165.552
164.533
163.034
160.815
157.517
152.692
167.004
172.265
175.262
177.042
178.154
178.873
179.346
179.651
179.834
179.919
179.919
179.833
179.65
179.344
178.871
178.152
177.04
175.259
172.263
167.001
185.651
189.826
191.419
192.182
192.611
192.876
193.045
193.153
193.218
193.248
193.248
193.217
193.153
193.045
192.875
192.61
192.181
191.417
189.824
185.649
102.035
102.301
102.537
102.738
102.904
103.035
103.135
103.206
103.251
103.274
103.274
103.251
103.206
103.135
103.035
102.904
102.738
102.537
102.3
102.035
106.276
107.082
107.794
108.399
108.894
109.283
109.578
109.787
109.921
109.986
109.986
109.921
109.787
109.577
109.282
108.892
108.397
107.793
107.081
106.275
111.024
112.394
113.593
114.599
115.413
116.049
116.526
116.863
117.077
117.181
117.181
117.077
116.862
116.524
116.047
115.411
114.597
113.59
112.392
111.022
116.593
118.568
120.265
121.664
122.778
123.634
124.269
124.714
124.995
125.131
125.13
124.994
124.712
124.267
123.632
122.774
121.661
120.261
118.564
116.59
123.272
125.902
128.102
129.869
131.242
132.276
133.03
133.552
133.879
134.037
134.036
133.878
133.55
133.028
132.273
131.238
129.865
128.098
125.897
123.268
131.325
134.664
137.351
139.426
140.985
142.128
142.945
143.501
143.847
144.012
144.011
143.845
143.499
142.942
142.125
140.981
139.422
137.347
134.66
131.321
141.018
145.111
148.207
150.469
152.092
153.243
154.043
154.58
154.909
155.065
155.065
154.908
154.578
154.041
153.24
152.089
150.466
148.204
145.108
141.015
152.696
157.522
160.819
163.038
164.537
165.555
166.243
166.696
166.97
167.1
167.1
166.97
166.695
166.242
165.553
164.535
163.035
160.817
157.519
152.694
167.004
172.265
175.262
177.043
178.154
178.874
179.346
179.651
179.834
179.92
179.92
179.834
179.651
179.345
178.873
178.153
177.041
175.261
172.264
167.003
185.651
189.826
191.419
192.182
192.612
192.876
193.046
193.154
193.218
193.248
193.248
193.218
193.154
193.045
192.876
192.611
192.182
191.418
189.825
185.65
101.749
101.455
101.167
100.899
100.663
100.465
100.308
100.189
100.1
100.031
105.403
104.504
103.622
102.8
102.073
101.462
100.975
100.602
100.321
100.1
109.525
107.969
106.436
105.001
103.728
102.652
101.787
101.116
100.602
100.189
114.4
112.102
109.82
107.677
105.766
104.143
102.824
101.787
100.975
100.308
120.288
117.116
113.947
110.96
108.289
106.011
104.143
102.653
101.462
100.465
127.411
123.18
118.931
114.926
111.348
108.29
105.766
103.728
102.073
100.663
135.964
130.395
124.807
119.575
114.927
110.961
107.678
105.002
102.8
100.899
146.124
138.777
131.503
124.808
118.931
113.948
109.821
106.437
103.623
101.167
158.051
148.172
138.777
130.396
123.181
117.118
112.103
107.97
104.505
101.455
171.711
158.051
146.125
135.965
127.412
120.289
114.401
109.525
105.404
101.749
101.748
101.454
101.166
100.898
100.662
100.465
100.308
100.188
100.1
100.031
105.402
104.503
103.621
102.799
102.071
101.461
100.974
100.601
100.32
100.1
109.523
107.968
106.435
105
103.726
102.651
101.785
101.115
100.601
100.188
114.399
112.1
109.819
107.676
105.764
104.142
102.823
101.785
100.974
100.308
120.287
117.115
113.946
110.959
108.288
106.01
104.142
102.651
101.461
100.465
127.41
123.178
118.929
114.925
111.347
108.288
105.765
103.727
102.072
100.662
135.962
130.394
124.806
119.574
114.925
110.959
107.676
105.001
102.799
100.899
146.123
138.775
131.502
124.806
118.93
113.947
109.82
106.435
103.621
101.166
158.049
148.17
138.776
130.394
123.179
117.116
112.101
107.969
104.503
101.454
171.709
158.049
146.123
135.963
127.41
120.287
114.399
109.523
105.402
101.748
101.748
101.454
101.166
100.898
100.662
100.465
100.308
100.188
100.1
100.031
105.402
104.503
103.621
102.799
102.071
101.461
100.974
100.601
100.32
100.1
109.523
107.968
106.434
105
103.726
102.651
101.785
101.115
100.601
100.188
114.399
112.1
109.819
107.676
105.764
104.142
102.823
101.785
100.974
100.308
120.286
117.115
113.946
110.959
108.288
106.01
104.142
102.651
101.461
100.465
127.41
123.178
118.929
114.925
111.347
108.288
105.765
103.727
102.072
100.662
135.962
130.394
124.806
119.574
114.925
110.959
107.676
105.001
102.799
100.899
146.123
138.775
131.502
124.806
118.93
113.947
109.82
106.435
103.621
101.166
158.049
148.17
138.775
130.394
123.179
117.116
112.101
107.969
104.503
101.454
171.709
158.049
146.123
135.963
127.41
120.287
114.399
109.523
105.402
101.748
101.749
101.455
101.167
100.899
100.663
100.465
100.308
100.189
100.1
100.031
105.403
104.504
103.622
102.8
102.073
101.462
100.975
100.602
100.321
100.1
109.525
107.969
106.436
105.001
103.727
102.652
101.787
101.116
100.602
100.189
114.4
112.102
109.82
107.677
105.766
104.143
102.824
101.787
100.975
100.308
120.288
117.116
113.947
110.96
108.289
106.011
104.143
102.652
101.462
100.465
127.411
123.18
118.931
114.926
111.348
108.29
105.766
103.728
102.073
100.663
135.964
130.395
124.807
119.575
114.927
110.961
107.678
105.002
102.8
100.899
146.124
138.777
131.503
124.808
118.931
113.948
109.821
106.437
103.623
101.167
158.051
148.172
138.777
130.396
123.181
117.117
112.103
107.97
104.505
101.455
171.711
158.051
146.125
135.965
127.412
120.289
114.401
109.525
105.404
101.749
185.651
167.003
152.694
141.015
131.321
123.268
116.589
111.021
106.275
102.035
189.825
172.263
157.518
145.106
134.658
125.895
118.562
112.39
107.079
102.3
191.418
175.258
160.813
148.199
137.341
128.092
120.256
113.586
107.79
102.536
192.18
177.036
163.027
150.455
139.411
129.854
121.65
114.588
108.392
102.736
192.608
178.144
164.52
152.071
140.961
131.218
122.756
115.397
108.883
102.901
192.871
178.858
165.53
153.211
142.093
132.241
123.602
116.024
109.267
103.03
193.038
179.322
166.206
153.995
142.892
132.977
124.221
116.488
109.554
103.127
193.142
179.616
166.64
154.509
143.423
133.474
124.644
116.808
109.752
103.194
193.2
179.781
166.887
154.804
143.732
133.765
124.893
116.997
109.87
103.234
193.222
179.842
166.978
154.913
143.844
133.871
124.982
117.065
109.912
103.248
193.209
179.806
166.922
154.843
143.769
133.797
124.916
117.013
109.879
103.237
193.161
179.668
166.713
154.588
143.496
133.534
124.688
116.836
109.768
103.199
193.07
179.409
166.323
154.118
142.999
133.06
124.277
116.522
109.571
103.132
192.924
178.996
165.707
153.383
142.231
132.334
123.655
116.047
109.275
103.031
192.699
178.366
164.784
152.302
141.12
131.3
122.778
115.385
108.864
102.892
192.352
177.417
163.431
150.759
139.571
129.885
121.596
114.502
108.319
102.709
191.794
175.962
161.449
148.587
137.46
128.004
120.054
113.364
107.624
102.475
190.818
173.654
158.53
145.565
134.643
125.569
118.1
111.943
106.764
102.187
188.818
169.812
154.215
141.428
130.98
122.511
115.702
110.226
105.733
101.844
183.677
163.141
147.926
135.949
126.394
118.813
112.867
108.226
104.543
101.449
185.649
167.001
152.692
141.013
131.319
123.266
116.588
111.02
106.273
102.034
189.824
172.261
157.515
145.104
134.656
125.893
118.56
112.388
107.078
102.299
191.416
175.256
160.81
148.196
137.339
128.09
120.254
113.584
107.788
102.535
192.178
177.034
163.025
150.453
139.408
129.852
121.648
114.586
108.39
102.735
192.607
178.141
164.518
152.069
140.959
131.216
122.754
115.395
108.881
102.9
192.869
178.855
165.527
153.208
142.09
132.238
123.6
116.022
109.266
103.029
193.036
179.319
166.203
153.993
142.889
132.975
124.219
116.486
109.552
103.126
193.14
179.613
166.637
154.506
143.42
133.472
124.641
116.806
109.75
103.193
193.198
179.778
166.884
154.801
143.729
133.763
124.89
116.995
109.868
103.233
193.22
179.839
166.975
154.91
143.841
133.868
124.98
117.062
109.91
103.247
193.207
179.803
166.919
154.84
143.766
133.794
124.914
117.011
109.877
103.236
193.159
179.664
166.709
154.584
143.493
133.531
124.685
116.834
109.766
103.198
193.068
179.406
166.32
154.115
142.996
133.057
124.275
116.519
109.569
103.131
192.922
178.992
165.703
153.379
142.228
132.331
123.652
116.045
109.272
103.03
192.697
178.363
164.781
152.299
141.117
131.297
122.775
115.382
108.861
102.891
192.349
177.413
163.427
150.755
139.568
129.882
121.594
114.499
108.317
102.707
191.791
175.958
161.445
148.583
137.457
128.001
120.051
113.361
107.622
102.473
190.815
173.65
158.526
145.561
134.64
125.566
118.097
111.941
106.761
102.185
188.815
169.809
154.211
141.425
130.977
122.508
115.699
110.224
105.731
101.842
183.674
163.137
147.922
135.946
126.391
118.811
112.864
108.223
104.541
101.447
185.649
167.001
152.692
141.013
131.319
123.266
116.588
111.02
106.273
102.034
189.824
172.261
157.515
145.104
134.656
125.893
118.56
112.388
107.078
102.299
191.416
175.256
160.81
148.196
137.339
128.09
120.254
113.584
107.788
102.535
192.178
177.033
163.025
150.453
139.408
129.852
121.648
114.586
108.39
102.735
192.607
178.141
164.518
152.069
140.959
131.216
122.754
115.395
108.881
102.9
192.869
178.855
165.527
153.208
142.09
132.238
123.6
116.022
109.266
103.029
193.036
179.319
166.203
153.993
142.889
132.975
124.219
116.486
109.552
103.126
193.14
179.613
166.637
154.506
143.42
133.472
124.641
116.806
109.75
103.193
193.198
179.778
166.884
154.801
143.729
133.763
124.89
116.995
109.868
103.233
193.22
179.839
166.975
154.909
143.841
133.868
124.98
117.062
109.91
103.247
193.207
179.803
166.919
154.84
143.766
133.794
124.914
117.011
109.877
103.236
193.159
179.664
166.709
154.584
143.493
133.531
124.685
116.834
109.766
103.198
193.068
179.406
166.32
154.115
142.996
133.057
124.275
116.519
109.569
103.131
192.922
178.992
165.703
153.379
142.227
132.331
123.652
116.045
109.272
103.03
192.697
178.363
164.781
152.299
141.117
131.297
122.775
115.382
108.861
102.891
192.349
177.413
163.427
150.755
139.568
129.882
121.594
114.499
108.317
102.707
191.791
175.958
161.445
148.583
137.457
128.001
120.051
113.361
107.622
102.473
190.815
173.65
158.526
145.561
134.64
125.566
118.097
111.941
106.761
102.185
188.815
169.809
154.211
141.425
130.977
122.508
115.699
110.224
105.731
101.842
183.674
163.137
147.922
135.946
126.391
118.811
112.864
108.223
104.541
101.447
185.651
167.003
152.694
141.015
131.321
123.268
116.589
111.021
106.275
102.035
189.825
172.263
157.517
145.106
134.658
125.895
118.562
112.39
107.079
102.3
191.418
175.258
160.813
148.199
137.341
128.092
120.256
113.586
107.79
102.536
192.18
177.036
163.027
150.455
139.411
129.854
121.65
114.588
108.392
102.736
192.608
178.144
164.52
152.071
140.961
131.218
122.756
115.397
108.883
102.901
192.871
178.858
165.53
153.211
142.093
132.241
123.602
116.024
109.267
103.03
193.038
179.322
166.206
153.995
142.892
132.977
124.221
116.488
109.554
103.127
193.142
179.616
166.64
154.509
143.423
133.474
124.644
116.808
109.752
103.194
193.2
179.781
166.887
154.804
143.732
133.765
124.893
116.997
109.87
103.234
193.222
179.842
166.978
154.913
143.844
133.871
124.982
117.065
109.912
103.248
193.209
179.806
166.922
154.843
143.769
133.797
124.916
117.013
109.879
103.237
193.161
179.668
166.713
154.588
143.496
133.534
124.688
116.836
109.768
103.199
193.07
179.409
166.323
154.118
142.999
133.06
124.277
116.522
109.571
103.132
192.924
178.996
165.707
153.383
142.231
132.334
123.655
116.047
109.275
103.031
192.699
178.366
164.784
152.302
141.12
131.3
122.778
115.385
108.864
102.892
192.352
177.417
163.431
150.759
139.571
129.885
121.596
114.502
108.319
102.709
191.794
175.962
161.449
148.587
137.46
128.004
120.054
113.364
107.624
102.475
190.818
173.654
158.53
145.565
134.643
125.569
118.1
111.943
106.764
102.187
188.818
169.812
154.215
141.428
130.98
122.511
115.702
110.226
105.733
101.844
183.677
163.141
147.926
135.949
126.394
118.813
112.867
108.225
104.543
101.449
166.741
151.854
139.349
129.137
120.958
114.552
109.657
105.986
103.22
101.011
149.532
139.119
129.591
121.498
114.958
109.91
106.195
103.586
101.809
100.545
134.052
126.68
119.69
113.639
108.769
105.128
102.637
101.128
100.365
100.069
120.513
115.282
110.324
106.065
102.746
100.455
99.1547
98.7195
98.9515
99.603
108.895
105.248
101.893
99.1362
97.1787
96.106
95.9024
96.466
97.6273
99.1663
99.1824
96.7394
94.6375
93.1006
92.2837
92.2583
93.0124
94.4583
96.4458
98.7764
91.3821
89.8484
88.706
88.1227
88.2173
89.0443
90.5889
92.7702
95.4505
98.448
85.5106
84.6356
84.1916
84.3111
85.0873
86.5598
88.7094
91.458
94.6754
98.192
81.5851
81.1403
81.1533
81.7358
82.9647
84.8699
87.4281
90.5619
94.1447
98.0168
79.6189
79.3868
79.6258
80.4381
81.8927
84.0146
86.7783
90.1068
93.8753
97.9316
166.738
151.851
139.346
129.134
120.955
114.55
109.655
105.984
103.218
101.01
149.53
139.116
129.588
121.495
114.955
109.907
106.192
103.584
101.806
100.544
134.05
126.677
119.688
113.636
108.767
105.126
102.635
101.125
100.363
100.068
120.511
115.28
110.321
106.062
102.744
100.452
99.1521
98.7168
98.949
99.6014
108.893
105.247
101.891
99.1342
97.1764
96.1036
95.8997
96.4632
97.6246
99.1645
99.1809
96.7378
94.6358
93.0987
92.2816
92.2559
93.0096
94.4553
96.4427
98.7744
91.3807
89.8469
88.7043
88.1208
88.2152
89.0419
90.5859
92.7668
95.4469
98.4455
85.5092
84.6341
84.19
84.3093
85.0851
86.5572
88.7062
91.4542
94.6711
98.1888
81.5839
81.1388
81.1517
81.734
82.9626
84.8673
87.4247
90.5576
94.1396
98.0124
79.6177
79.3854
79.6243
80.4364
81.8906
84.012
86.775
90.1023
93.8696
97.9259
166.738
151.851
139.346
129.134
120.955
114.55
109.655
105.983
103.218
101.01
149.53
139.116
129.588
121.495
114.955
109.907
106.192
103.584
101.806
100.544
134.05
126.677
119.688
113.636
108.767
105.126
102.635
101.125
100.363
100.068
120.511
115.28
110.321
106.062
102.744
100.452
99.1521
98.7168
98.949
99.6014
108.893
105.247
101.891
99.1341
97.1764
96.1036
95.8997
96.4632
97.6246
99.1645
99.1809
96.7378
94.6357
93.0987
92.2816
92.2559
93.0096
94.4552
96.4426
98.7744
91.3806
89.8468
88.7042
88.1208
88.2152
89.0418
90.5859
92.7668
95.4469
98.4455
85.5092
84.634
84.1899
84.3092
85.085
86.5572
88.7062
91.4542
94.6711
98.1888
81.5838
81.1388
81.1517
81.734
82.9625
84.8673
87.4247
90.5576
94.1396
98.0124
79.6177
79.3854
79.6243
80.4363
81.8906
84.012
86.775
90.1024
93.8696
97.9259
166.741
151.854
139.349
129.137
120.958
114.552
109.657
105.986
103.22
101.011
149.532
139.119
129.591
121.497
114.958
109.91
106.194
103.586
101.809
100.545
134.052
126.68
119.69
113.639
108.769
105.128
102.637
101.128
100.365
100.069
120.513
115.282
110.324
106.065
102.746
100.455
99.1547
98.7195
98.9515
99.603
108.895
105.248
101.893
99.1362
97.1786
96.106
95.9023
96.466
97.6273
99.1662
99.1824
96.7393
94.6374
93.1005
92.2837
92.2583
93.0123
94.4583
96.4457
98.7764
91.382
89.8483
88.7059
88.1226
88.2173
89.0443
90.5889
92.7702
95.4505
98.448
85.5104
84.6354
84.1915
84.3111
85.0872
86.5598
88.7094
91.458
94.6754
98.192
81.5851
81.1402
81.1532
81.7358
82.9647
84.8699
87.4281
90.5619
94.1447
98.0168
79.6188
79.3866
79.6257
80.438
81.8927
84.0146
86.7783
90.1068
93.8753
97.9316
182.577
187.235
188.969
189.78
190.228
190.502
190.678
190.79
190.858
190.889
190.889
190.857
190.79
190.678
190.502
190.228
189.779
188.967
187.232
182.57
159.257
164.908
168.078
169.936
171.085
171.828
172.316
172.634
172.826
172.917
172.917
172.826
172.633
172.315
171.825
171.082
169.931
168.071
164.897
159.24
140.842
145.821
149.209
151.48
153.015
154.062
154.777
155.252
155.542
155.681
155.68
155.541
155.25
154.774
154.058
153.009
151.472
149.197
145.804
140.82
125.452
129.494
132.58
134.854
136.505
137.692
138.532
139.104
139.461
139.632
139.631
139.459
139.102
138.528
137.687
136.497
134.844
132.566
129.475
125.427
112.484
115.636
118.242
120.307
121.898
123.097
123.977
124.592
124.981
125.17
125.17
124.98
124.589
123.973
123.092
121.89
120.296
118.227
115.617
112.459
101.735
104.119
106.223
107.996
109.435
110.568
111.427
112.043
112.44
112.634
112.634
112.439
112.041
111.423
110.563
109.428
107.985
106.209
104.1
101.711
93.1403
94.8984
96.5547
98.0307
99.2892
100.32
101.126
101.718
102.106
102.297
102.297
102.105
101.717
101.124
100.316
99.2829
98.0215
96.5418
94.881
93.1178
86.6867
87.971
89.2688
90.492
91.5833
92.5097
93.2554
93.8144
94.1858
94.371
94.3709
94.1855
93.8136
93.2539
92.5069
91.5784
90.4843
89.2575
87.9551
86.6657
82.3782
83.3444
84.3944
85.4361
86.4021
87.2467
87.9419
88.4715
88.8274
89.0061
89.0062
88.8276
88.4715
87.9413
87.2451
86.3986
85.4299
84.3845
83.3298
82.3583
80.2218
81.0283
81.952
82.8994
83.7987
84.5988
85.2657
85.7784
86.1252
86.2999
86.3001
86.1257
85.779
85.2658
84.598
83.7961
82.894
81.9429
81.0145
80.2024
182.579
187.237
188.971
189.781
190.229
190.503
190.678
190.791
190.858
190.889
190.889
190.857
190.79
190.677
190.501
190.227
189.778
188.966
187.23
182.568
159.26
164.91
168.081
169.938
171.087
171.829
172.317
172.635
172.827
172.917
172.917
172.825
172.633
172.314
171.824
171.081
169.929
168.069
164.895
159.238
140.845
145.823
149.211
151.482
153.016
154.063
154.778
155.252
155.543
155.681
155.68
155.541
155.249
154.773
154.057
153.007
151.47
149.196
145.802
140.818
125.454
129.496
132.582
134.856
136.506
137.693
138.533
139.105
139.461
139.632
139.631
139.459
139.101
138.527
137.685
136.496
134.842
132.564
129.473
125.425
112.486
115.638
118.244
120.308
121.899
123.098
123.978
124.592
124.982
125.17
125.169
124.979
124.589
123.972
123.091
121.889
120.295
118.226
115.615
112.458
101.737
104.12
106.225
107.997
109.436
110.569
111.428
112.043
112.44
112.634
112.633
112.438
112.04
111.423
110.562
109.427
107.984
106.208
104.098
101.71
93.142
94.9
96.5561
98.0319
99.2902
100.321
101.127
101.718
102.106
102.297
102.297
102.105
101.716
101.123
100.315
99.2819
98.0204
96.5406
94.8797
93.1165
86.6883
87.9724
89.2701
90.4931
91.5842
92.5105
93.256
93.8147
94.186
94.371
94.3707
94.1852
93.8131
93.2533
92.5061
91.5775
90.4833
89.2564
87.9539
86.6645
82.3797
83.3457
84.3955
85.4371
86.4029
87.2474
87.9424
88.4718
88.8276
89.0061
89.006
88.8273
88.471
87.9408
87.2444
86.3977
85.4289
84.3834
83.3287
82.3571
80.2232
81.0295
81.953
82.9003
83.7995
84.5995
85.2661
85.7787
86.1253
86.2999
86.2999
86.1254
85.7785
85.2653
84.5973
83.7953
82.8931
81.9419
81.0134
80.2013
182.579
187.237
188.971
189.781
190.229
190.503
190.678
190.791
190.858
190.889
190.889
190.857
190.79
190.677
190.501
190.227
189.778
188.966
187.23
182.568
159.26
164.91
168.08
169.938
171.087
171.829
172.317
172.635
172.827
172.917
172.917
172.825
172.633
172.314
171.824
171.081
169.929
168.069
164.895
159.238
140.845
145.823
149.211
151.482
153.016
154.063
154.778
155.252
155.543
155.681
155.68
155.541
155.249
154.773
154.057
153.007
151.47
149.196
145.802
140.818
125.454
129.496
132.582
134.856
136.506
137.693
138.533
139.105
139.461
139.632
139.631
139.459
139.101
138.527
137.685
136.496
134.842
132.564
129.473
125.425
112.486
115.638
118.244
120.308
121.899
123.098
123.978
124.592
124.982
125.17
125.169
124.979
124.589
123.972
123.091
121.889
120.294
118.226
115.615
112.458
101.737
104.12
106.225
107.997
109.436
110.569
111.428
112.043
112.44
112.634
112.633
112.438
112.04
111.423
110.562
109.427
107.984
106.208
104.098
101.71
93.142
94.9
96.5561
98.0319
99.2902
100.32
101.127
101.718
102.106
102.297
102.297
102.105
101.716
101.123
100.315
99.2819
98.0203
96.5405
94.8797
93.1164
86.6883
87.9724
89.27
90.4931
91.5842
92.5105
93.256
93.8147
94.186
94.3709
94.3707
94.1852
93.8131
93.2532
92.5061
91.5775
90.4833
89.2564
87.9539
86.6644
82.3796
83.3457
84.3956
85.4372
86.4029
87.2474
87.9424
88.4718
88.8275
89.006
89.006
88.8272
88.471
87.9407
87.2443
86.3977
85.4289
84.3834
83.3287
82.3571
80.2232
81.0295
81.953
82.9003
83.7995
84.5995
85.2662
85.7787
86.1253
86.2999
86.2999
86.1254
85.7785
85.2652
84.5973
83.7953
82.8931
81.9419
81.0134
80.2013
182.577
187.235
188.969
189.78
190.228
190.502
190.678
190.79
190.858
190.889
190.889
190.857
190.79
190.678
190.502
190.228
189.779
188.967
187.232
182.57
159.257
164.908
168.078
169.936
171.085
171.828
172.316
172.634
172.826
172.917
172.917
172.826
172.633
172.315
171.825
171.082
169.931
168.071
164.897
159.24
140.842
145.821
149.209
151.48
153.015
154.062
154.777
155.252
155.542
155.681
155.68
155.541
155.25
154.774
154.058
153.009
151.472
149.197
145.804
140.82
125.452
129.494
132.58
134.854
136.505
137.692
138.532
139.104
139.461
139.632
139.631
139.459
139.102
138.528
137.687
136.497
134.844
132.566
129.475
125.427
112.484
115.636
118.242
120.307
121.898
123.097
123.977
124.592
124.981
125.17
125.169
124.98
124.589
123.973
123.092
121.89
120.296
118.227
115.616
112.459
101.735
104.118
106.223
107.996
109.435
110.568
111.427
112.043
112.44
112.634
112.634
112.438
112.041
111.423
110.563
109.428
107.985
106.209
104.1
101.711
93.1402
94.8983
96.5546
98.0306
99.2891
100.32
101.126
101.718
102.106
102.297
102.297
102.105
101.717
101.123
100.316
99.2828
98.0214
96.5418
94.8809
93.1177
86.6866
87.9709
89.2688
90.4919
91.5832
92.5097
93.2554
93.8143
94.1858
94.371
94.3709
94.1855
93.8136
93.2539
92.5069
91.5783
90.4843
89.2574
87.955
86.6656
82.3782
83.3443
84.3943
85.4361
86.4021
87.2467
87.9418
88.4715
88.8274
89.0061
89.0062
88.8276
88.4715
87.9413
87.2451
86.3986
85.4299
84.3845
83.3298
82.3583
80.2218
81.0282
81.9519
82.8993
83.7987
84.5988
85.2656
85.7784
86.1252
86.2999
86.3001
86.1257
85.7789
85.2658
84.5979
83.796
82.894
81.9428
81.0144
80.2024
101.014
103.23
106.004
109.682
114.583
120.992
129.172
139.381
151.88
166.757
100.548
101.82
103.606
106.222
109.944
114.996
121.536
129.627
139.15
149.556
100.072
100.377
101.148
102.667
105.164
108.809
113.68
119.73
126.715
134.08
99.6064
98.9634
98.7409
99.1846
100.491
102.787
106.106
110.364
115.318
120.544
99.1697
97.6394
96.4878
95.9326
96.1426
97.2189
99.1773
101.932
105.284
108.925
98.7798
96.4582
94.4807
93.043
92.2948
92.3234
93.1408
94.6757
96.7737
99.2117
98.4512
95.4639
92.7936
90.6203
89.0813
88.2569
88.1621
88.743
89.8813
91.4099
98.1954
94.6908
91.4832
88.7424
86.598
85.1275
84.3507
84.2282
84.6675
85.5371
98.0213
94.1638
90.5892
87.4631
84.91
83.0064
81.7762
81.1901
81.1719
81.6109
97.9294
93.8976
90.1377
86.817
84.0579
81.9369
80.4802