/*--------------------------------*- C++ -*----------------------------------*\
| =========                 |                                                 |
| \\      /  F ield         | OpenFOAM: The Open Source CFD Toolbox           |
|  \\    /   O peration     | Version:  2.4.0                                 |
|   \\  /    A nd           | Web:      www.OpenFOAM.org                      |
|    \\/     M anipulation  |                                                 |
\*---------------------------------------------------------------------------*/
FoamFile
{
    version     2.0;
    format      ascii;
    class       volScalarField;
    location    "0.03";
    object      T;
}
// * * * * * * * * * * * * * * * * * * * * * * * * * * * * * * * * * * * * * //

dimensions      [0 0 0 1 0 0 0];

internalField   nonuniform List<scalar> 
1600
(
95.8719
87.662
79.5896
71.7419
64.1989
57.0316
50.3006
44.0548
38.3311
33.1554
28.543
24.5004
21.0273
18.1192
15.769
13.9704
12.7193
12.0164
11.869
12.2916
13.3076
14.9488
17.2554
20.2751
24.0611
28.6703
34.1602
40.5858
47.9956
56.4281
65.9076
76.4406
88.0124
100.585
114.094
128.451
143.541
159.228
175.356
191.755
95.8717
87.6612
79.5884
71.7402
64.1966
57.0289
50.2974
44.0512
38.3274
33.1515
28.5391
24.4967
21.024
18.1163
15.7667
13.9689
12.7187
12.0169
11.8706
12.2945
13.3118
14.9543
17.2623
20.2833
24.0704
28.6806
34.1713
40.5972
48.0071
56.4394
65.9184
76.4506
88.0214
100.593
114.101
128.456
143.546
159.232
175.358
191.756
95.8712
87.6598
79.5861
71.7369
64.1924
57.0238
50.2916
44.0448
38.3206
33.1446
28.5322
24.4901
21.018
18.1112
15.7628
13.9664
12.7179
12.018
11.8739
12.3001
13.3199
14.965
17.2756
20.2991
24.0886
28.7008
34.193
40.6201
48.0304
56.4625
65.9407
76.4715
88.0404
100.609
114.115
128.468
143.554
159.238
175.362
191.757
95.8705
87.6578
79.5828
71.7323
64.1865
57.0168
50.2836
44.0361
38.3114
33.1352
28.523
24.4814
21.0101
18.1045
15.7578
13.9632
12.717
12.0198
11.8786
12.3081
13.3313
14.9801
17.2943
20.3214
24.1143
28.7296
34.2243
40.6532
48.0646
56.4968
65.9741
76.5031
88.0694
100.635
114.137
128.486
143.569
159.248
175.368
191.759
95.8698
87.6555
79.579
71.7269
64.1797
57.0086
50.2744
44.026
38.3007
33.1243
28.5123
24.4713
21.0011
18.097
15.7521
13.96
12.7165
12.0226
11.885
12.3185
13.3461
14.9994
17.3184
20.3502
24.1476
28.7669
34.2651
40.6966
48.1096
56.5421
66.0186
76.5455
88.1087
100.67
114.167
128.511
143.588
159.262
175.376
191.762
95.869
87.653
79.5747
71.721
64.1722
56.9996
50.2642
44.0148
38.289
33.1125
28.5007
24.4604
20.9913
18.0889
15.7462
13.9567
12.7165
12.0262
11.8929
12.331
13.3637
15.0225
17.347
20.3845
24.1874
28.8119
34.3145
40.7495
48.1647
56.5981
66.0738
76.5984
88.1579
100.714
114.206
128.543
143.613
159.279
175.387
191.765
95.8681
87.6503
79.5703
71.7148
64.1643
56.9903
50.2536
44.0033
38.2769
33.1002
28.4887
24.4492
20.9814
18.0807
15.7404
13.9538
12.7171
12.0308
11.9021
12.3454
13.3838
15.0486
17.3796
20.4236
24.233
28.8635
34.3716
40.8109
48.2291
56.6638
66.1391
76.6614
88.2166
100.767
114.252
128.581
143.643
159.301
175.4
191.769
95.8673
87.6477
79.566
71.7088
64.1567
56.9812
50.2433
43.9921
38.2651
33.0883
28.4771
24.4384
20.9719
18.0731
15.7352
13.9516
12.7185
12.0365
11.9127
12.3615
13.4059
15.0774
17.4154
20.4666
24.2833
28.9208
34.4351
40.8797
48.3017
56.7384
66.2135
76.7335
88.2843
100.829
114.305
128.625
143.677
159.325
175.414
191.774
95.8665
87.6453
79.562
71.7032
64.1496
56.9728
50.2338
43.9818
38.2544
33.0774
28.4666
24.4287
20.9636
18.0666
15.7311
13.9506
12.7211
12.0434
11.9245
12.379
13.4297
15.108
17.4534
20.5124
24.3369
28.9821
34.5036
40.9543
48.3809
56.8203
66.2959
76.8139
88.3601
100.898
114.365
128.676
143.717
159.353
175.431
191.78
95.8658
87.6433
79.5587
71.6986
64.1438
56.9658
50.2258
43.9732
38.2454
33.0685
28.4581
24.421
20.9571
18.062
15.7288
13.9512
12.7253
12.0517
11.9376
12.3976
13.4545
15.1396
17.4925
20.5594
24.3921
29.0455
34.5748
41.0324
48.4645
56.9076
66.3843
76.9007
88.4427
100.973
114.432
128.731
143.76
159.384
175.45
191.786
95.8654
87.6419
79.5563
71.6953
64.1395
56.9608
50.2201
43.967
38.239
33.0622
28.4522
24.416
20.9534
18.06
15.729
13.9541
12.7314
12.0617
11.9521
12.4171
13.4798
15.1715
17.5315
20.6061
24.447
29.1088
34.6462
41.1114
48.5499
56.9974
66.4763
76.992
88.5302
101.054
114.503
128.791
143.807
159.418
175.47
191.793
95.8652
87.6412
79.5552
71.6937
64.1374
56.9583
50.2173
43.9641
38.2361
33.0596
28.4502
24.4148
20.9534
18.0615
15.7325
13.9599
12.7401
12.0737
11.9679
12.4374
13.5052
15.2026
17.5691
20.6509
24.4995
29.1694
34.7151
41.1881
48.6337
57.0867
66.5689
77.085
88.6203
101.138
114.577
128.854
143.856
159.453
175.491
191.8
95.8653
87.6415
79.5557
71.6943
64.1382
56.9591
50.2184
43.9653
38.2377
33.0617
28.4529
24.4184
20.9581
18.0676
15.7402
13.9696
12.752
12.0883
11.9856
12.4586
13.5304
15.2325
17.6043
20.6922
24.5476
29.2249
34.7784
41.2594
48.7124
57.1718
66.6585
77.1764
88.7102
101.223
114.654
128.918
143.908
159.49
175.513
191.807
95.8658
87.643
79.5581
71.6976
64.1423
56.9641
50.224
43.9717
38.2449
33.0696
28.4617
24.4281
20.9688
18.0795
15.7534
13.9842
12.7682
12.1062
12.0055
12.4809
13.5555
15.2609
17.6366
20.7291
24.5899
29.2734
34.8339
41.3224
48.7828
57.2492
66.7414
77.2626
88.7966
101.306
114.73
128.984
143.96
159.528
175.536
191.814
95.8668
87.6459
79.5629
71.7042
64.1506
56.9739
50.2353
43.9844
38.2587
33.0846
28.4778
24.4452
20.9869
18.0984
15.7732
14.0048
12.7896
12.1285
12.0287
12.5052
13.5811
15.2881
17.666
20.7613
24.6258
29.3139
34.88
41.3748
48.8423
57.3157
66.8142
77.3402
88.8763
101.384
114.803
129.047
144.012
159.565
175.558
191.822
95.8683
87.6506
79.5706
71.7147
64.1638
56.9896
50.2533
44.0044
38.2806
33.1081
28.5027
24.4712
21.0139
18.1261
15.8013
14.0331
12.818
12.1567
12.0566
12.5327
13.6082
15.3152
17.6933
20.7895
24.6556
29.3463
34.9161
41.4158
48.8892
57.3692
66.8744
77.4061
88.9461
101.455
114.87
129.108
144.061
159.601
175.58
191.829
95.8705
87.6572
79.5815
71.7298
64.1828
57.0122
50.2792
44.0333
38.312
33.1417
28.538
24.5079
21.0515
18.1642
15.8394
14.0709
12.8549
12.1924
12.0908
12.5651
13.6388
15.3439
17.7204
20.8153
24.6809
29.3719
34.9433
41.4459
48.9236
57.4092
66.9206
77.4587
89.0038
101.515
114.93
129.163
144.107
159.636
175.601
191.836
95.8735
87.6662
79.5963
71.7503
64.2086
57.0429
50.3144
44.0724
38.3546
33.1871
28.5857
24.5572
21.1017
18.2148
15.8897
14.1202
12.9027
12.238
12.1338
12.605
13.6753
15.3768
17.7497
20.8414
24.7042
29.3933
34.9639
41.4672
48.9472
57.4366
66.9534
77.4974
89.0484
101.564
114.981
129.211
144.149
159.667
175.621
191.842
95.8775
87.678
79.6157
71.777
64.2423
57.0831
50.3605
44.1237
38.4103
33.2465
28.6479
24.6214
21.1671
18.2804
15.9547
14.1838
12.964
12.2964
12.1884
12.6554
13.7209
15.4172
17.7849
20.8713
24.7292
29.4142
34.9816
41.4831
48.963
57.4542
66.9746
77.5238
89.0806
101.602
115.021
129.252
144.186
159.696
175.639
191.848
95.8825
87.693
79.6405
71.8112
64.2854
57.1345
50.4193
44.1892
38.4815
33.3223
28.7273
24.7033
21.2504
18.364
16.0376
14.2649
13.0422
12.3709
12.2583
12.7199
13.7794
15.4692
17.83
20.9094
24.7605
29.4391
35.001
41.4983
48.9756
57.4662
66.9882
77.5408
89.1025
101.629
115.053
129.286
144.218
159.722
175.655
191.853
95.8887
87.7119
79.6716
71.8542
64.3396
57.1991
50.4933
44.2714
38.5708
33.4175
28.827
24.8062
21.3551
18.4692
16.1419
14.3672
13.1413
12.4656
12.3477
12.803
13.8554
15.5375
17.89
20.9609
24.8034
29.4736
35.0278
41.5184
48.9906
57.478
66.999
77.553
89.1179
101.649
115.077
129.313
144.244
159.744
175.67
191.858
95.8966
87.7353
79.7103
71.9076
64.4069
57.2792
50.585
44.3734
38.6817
33.5356
28.9507
24.9339
21.4852
18.6002
16.2723
14.4954
13.266
12.5856
12.4617
12.91
13.9544
15.6276
17.9706
21.0315
24.8638
29.5238
35.0682
41.5498
49.0143
57.4959
67.0132
77.5659
89.1318
101.666
115.098
129.336
144.268
159.765
175.684
191.863
95.9062
87.7642
79.758
71.9734
64.4897
57.3779
50.698
44.499
38.8181
33.6809
29.1031
25.0914
21.6459
18.7622
16.4339
14.6549
13.422
12.7365
12.6062
13.0468
14.0824
15.7459
18.0783
21.1279
24.9484
29.5965
35.1291
41.5995
49.0539
57.5268
67.0375
77.586
89.1503
101.684
115.118
129.359
144.291
159.785
175.698
191.867
95.9181
87.7997
79.8165
72.054
64.5913
57.4987
50.8363
44.6526
38.9849
33.8586
29.2895
25.2842
21.8429
18.9613
16.633
14.8523
13.6157
12.925
12.788
13.2205
14.2467
15.8995
18.2203
21.2573
25.0646
29.6992
35.2181
41.6751
49.1168
57.5784
67.0795
77.6206
89.18
101.712
115.145
129.385
144.317
159.808
175.714
191.872
95.9326
87.8431
79.8881
72.1525
64.7152
57.646
51.0047
44.8397
39.1879
34.075
29.5164
25.5191
22.0832
19.2045
16.877
15.0948
13.8549
13.1589
13.0149
13.4389
14.455
16.0965
18.4047
21.428
25.2208
29.8401
35.3434
41.7849
49.2115
57.6588
67.1471
77.6775
89.2283
101.754
115.183
129.42
144.348
159.834
175.733
191.879
95.9504
87.8961
79.9754
72.2726
64.8661
57.8252
51.2093
45.0667
39.4342
34.3372
29.7915
25.8039
22.3748
19.5002
17.1742
15.3911
14.1481
13.4469
13.2958
13.7109
14.7166
16.3459
18.6405
21.6491
25.4258
30.0283
35.5141
41.9378
49.3467
57.7769
67.2491
77.7649
89.3033
101.818
115.239
129.469
144.39
159.868
175.756
191.886
95.972
87.9608
80.0817
72.4188
65.0494
58.0425
51.4572
45.3414
39.7318
34.6539
30.1235
26.1477
22.727
19.8578
17.5341
15.7508
14.505
13.7988
13.6406
14.0466
15.0412
16.6578
18.9379
21.9305
25.6899
30.2738
35.7402
42.1437
49.5322
57.9422
67.3948
77.892
89.4134
101.913
115.321
129.539
144.448
159.913
175.786
191.896
95.9985
88.0396
80.2112
72.5964
65.2718
58.3057
51.7568
45.6728
40.0903
35.035
30.5227
26.5609
23.1504
20.2878
17.9675
16.1846
14.9365
14.2255
14.0602
14.4568
15.44
17.0431
19.3079
22.2833
26.0239
30.5875
36.0323
42.4133
49.7786
58.1649
67.594
78.0683
89.5677
102.047
115.435
129.635
144.527
159.973
175.825
191.91
96.0307
88.1356
80.3688
72.8121
65.5413
58.6239
52.1181
46.0715
40.5207
35.4917
31.0007
27.0552
23.6567
20.802
18.4862
16.7044
15.4544
14.7389
14.5664
14.9534
15.9248
17.5138
19.7624
22.7195
26.4398
30.9813
36.4024
42.7583
50.0972
58.4564
67.8578
78.3043
89.7763
102.229
115.591
129.766
144.633
160.053
175.876
191.927
96.0701
88.2526
80.5605
73.074
65.8674
59.0077
52.5527
46.5497
41.0358
36.0371
31.5702
27.6435
24.2588
21.4134
19.1029
17.3229
16.0715
15.3515
15.1719
15.5492
16.5082
18.0826
20.314
23.2517
26.9503
31.4679
36.863
43.191
50.5004
58.8287
68.1979
78.6115
90.05
102.469
115.798
129.94
144.773
160.158
175.942
191.949
96.1182
88.3954
80.794
73.3918
66.2618
59.4701
53.0742
47.1216
41.6497
36.6852
32.2457
28.34
24.9707
22.1358
19.8315
18.0537
16.8012
16.0769
15.8901
16.2574
17.2038
18.7628
20.9762
23.8933
27.5687
32.0606
37.4275
43.725
51.0016
59.2949
68.6273
79.0023
90.401
102.779
116.066
130.165
144.955
160.294
176.027
191.978
96.1772
88.5701
81.0787
73.7778
66.7386
60.0263
53.6985
47.8032
42.3784
37.4521
33.0426
29.1598
25.8072
22.9838
20.6861
18.911
17.6575
16.9289
16.7348
17.0918
18.025
19.5681
21.7628
24.6583
28.3091
32.7736
38.1101
44.3743
51.6147
59.8691
69.16
79.4909
90.8429
103.172
116.408
130.454
145.187
160.467
176.135
192.015
96.2498
88.7846
81.4269
74.2472
67.3147
60.6943
54.4438
48.6125
43.2398
38.3549
33.9776
30.1191
26.7841
23.9724
21.6817
19.9092
18.6546
17.9215
17.7198
18.0662
18.9859
20.5125
22.6877
25.5606
29.1857
33.621
38.9252
45.1535
52.3548
60.5666
69.8113
80.0926
91.3913
103.663
116.838
130.819
145.482
160.686
176.271
192.063
96.34
89.0497
81.8547
74.8195
68.0114
61.4956
55.3314
49.5701
44.2531
39.4119
35.068
31.2343
27.917
25.117
22.8328
21.0626
19.8065
19.0686
18.8588
19.1943
20.1
21.6096
23.7647
26.6142
30.2125
34.6175
39.8876
46.0781
53.2376
61.4035
70.5983
80.825
92.0645
104.272
117.376
131.279
145.856
160.965
176.444
192.124
96.4532
89.3812
82.3844
75.5201
68.8549
62.4558
56.3854
50.6983
45.4391
40.6422
36.3316
32.5222
29.2217
26.4324
24.1539
22.3852
21.1268
20.3834
20.1651
20.489
21.3804
22.8726
25.0072
27.8327
31.4036
35.7774
41.0124
47.1637
54.2796
62.3976
71.5396
81.7085
92.8839
105.02
118.045
131.858
146.332
161.324
176.668
192.206
96.5988
89.8029
83.0478
76.3831
69.878
63.6052
57.633
52.0213
46.8195
42.0654
37.7861
33.9988
30.7131
27.9327
25.6583
23.8896
22.6279
21.8781
21.6506
21.9626
22.8393
24.3138
26.4277
29.2293
32.7726
37.1152
42.3149
48.4268
55.499
63.5685
72.657
82.7666
93.876
105.938
118.876
132.588
146.942
161.792
176.963
192.313
96.7933
90.3548
83.8918
77.4537
71.1214
64.9787
59.1038
53.5644
48.4158
43.7002
39.448
35.679
32.4048
29.6305
27.3578
25.5873
24.3208
23.5636
23.3262
23.6259
24.4877
25.9449
28.0385
30.8167
34.3335
38.6458
43.8116
49.8856
56.9156
64.9386
73.9756
84.028
95.0732
107.061
119.912
133.517
147.735
162.413
177.359
192.457
97.0687
91.1051
84.985
78.7907
72.632
66.6133
60.8269
55.3505
50.2464
45.5616
41.33
37.5739
34.3066
31.5348
29.2611
27.4868
26.2141
25.4486
25.2009
25.4883
26.3359
27.7766
29.8514
32.6082
36.1007
40.3858
45.521
51.5609
58.5533
66.5347
75.5259
85.5276
96.5155
108.437
121.208
134.71
148.787
163.266
177.917
192.667
97.5386
92.1778
86.4172
80.4585
74.4549
68.5392
62.8223
57.3929
52.32
47.6555
43.4361
39.6865
36.4213
33.6485
31.3713
29.5915
28.3119
27.538
27.2807
27.5573
28.3925
29.8193
31.8784
34.6177
38.0905
42.3537
47.4645
53.4775
60.4403
68.3891
77.3444
87.3063
98.2494
110.119
122.827
136.246
150.202
164.488
178.79
193.055
98.4109
93.8151
88.3532
82.5537
76.6435
70.7838
65.1012
59.693
54.633
49.9755
45.7591
42.0096
38.7426
35.9665
33.685
31.9002
30.6148
29.8347
29.5706
29.8398
30.6669
32.0849
34.1343
36.8627
40.3236
44.5736
49.6699
55.6669
62.612
70.5414
79.4753
89.4131
100.329
112.166
124.834
138.203
152.085
166.253
180.306
194.056
)
;

boundaryField
{
    carasuperior
    {
        type            fixedGradient;
        gradient        uniform 100;
    }
    lateralizquierda
    {
        type            fixedValue;
        value           uniform 100;
    }
    lateralderecha
    {
        type            fixedValue;
        value           uniform 200;
    }
    carainferior
    {
        type            zeroGradient;
    }
    frontAndBack
    {
        type            empty;
    }
}


// ************************************************************************* //
