/*--------------------------------*- C++ -*----------------------------------*\
| =========                 |                                                 |
| \\      /  F ield         | OpenFOAM: The Open Source CFD Toolbox           |
|  \\    /   O peration     | Version:  2.4.0                                 |
|   \\  /    A nd           | Web:      www.OpenFOAM.org                      |
|    \\/     M anipulation  |                                                 |
\*---------------------------------------------------------------------------*/
FoamFile
{
    version     2.0;
    format      ascii;
    class       volScalarField;
    location    "0.055";
    object      T;
}
// * * * * * * * * * * * * * * * * * * * * * * * * * * * * * * * * * * * * * //

dimensions      [0 0 0 1 0 0 0];

internalField   nonuniform List<scalar> 
1600
(
97.1007
91.3257
85.6215
80.0349
74.6116
69.3962
64.4315
59.759
55.4178
51.4452
47.8763
44.7441
42.0793
39.9108
38.2654
37.168
36.6416
36.7075
37.385
38.6915
40.6423
43.2505
46.5265
50.4779
55.109
60.4202
66.4078
73.0633
80.3732
88.3183
96.8731
106.006
115.68
125.849
136.463
147.465
158.792
170.378
182.151
194.038
97.1006
91.3254
85.6211
80.0342
74.6107
69.3951
64.4303
59.7576
55.4165
51.444
47.8754
44.7436
42.0794
39.9117
38.2673
37.171
36.646
36.7133
37.3924
38.7005
40.653
43.2628
46.5403
50.4929
55.125
60.4369
66.4248
73.0803
80.3898
88.3341
96.888
106.02
115.692
125.859
136.472
147.472
158.798
170.382
182.153
194.039
97.1004
91.3249
85.6202
80.033
74.6091
69.3931
64.4281
59.7554
55.4144
51.4422
47.8742
44.7432
42.0802
39.914
38.2714
37.1774
36.6548
36.7249
37.4069
38.7181
40.6737
43.2866
46.5669
50.5221
55.1563
60.4697
66.4585
73.1142
80.4232
88.3663
96.9182
106.048
115.717
125.881
136.49
147.487
158.809
170.39
182.158
194.04
97.1002
91.3242
85.6191
80.0315
74.6072
69.3909
64.4257
59.753
55.4122
51.4406
47.8734
44.7437
42.0824
39.9183
38.2783
37.1872
36.6681
36.742
37.4282
38.7437
40.7037
43.3209
46.6053
50.5642
55.2014
60.5172
66.5075
73.1638
80.4723
88.4138
96.9633
106.089
115.755
125.914
136.519
147.51
158.827
170.403
182.166
194.043
97.1001
91.3237
85.6182
80.0302
74.6056
69.3891
64.4238
59.7512
55.4108
51.4399
47.8739
44.7458
42.0867
39.9252
38.2884
37.2011
36.6863
36.765
37.4562
38.7771
40.7426
43.3652
46.6548
50.6185
55.2598
60.5788
66.5713
73.2285
80.5366
88.4765
97.023
106.145
115.805
125.959
136.557
147.541
158.852
170.42
182.176
194.046
97.1
91.3233
85.6177
80.0295
74.6047
69.3881
64.4229
59.7506
55.4109
51.441
47.8765
44.7504
42.0937
39.9354
38.3023
37.2193
36.7094
36.7935
37.4907
38.8179
40.7898
43.4189
46.7147
50.6841
55.3304
60.6535
66.6488
73.3074
80.6154
88.5535
97.0966
106.214
115.868
126.014
136.604
147.58
158.882
170.442
182.189
194.05
97.1
91.3234
85.6178
80.0297
74.605
69.3886
64.4238
59.7521
55.4133
51.4447
47.8819
44.7581
42.1042
39.9494
38.3204
37.2422
36.7377
36.8279
37.5316
38.8657
40.8448
43.4811
46.784
50.7599
55.4121
60.74
66.7388
73.3993
80.7075
88.6439
97.1834
106.295
115.942
126.08
136.661
147.627
158.918
170.468
182.205
194.056
97.1003
91.3241
85.619
80.0314
74.6072
69.3913
64.4272
59.7566
55.4189
51.452
47.8912
44.7699
42.1192
39.9681
38.3435
37.2704
36.7716
36.8681
37.5787
38.9202
40.907
43.551
46.8616
50.8448
55.5036
60.8369
66.8399
73.5029
80.8115
88.7463
97.282
106.388
116.027
126.156
136.726
147.681
158.96
170.497
182.222
194.061
97.1008
91.3257
85.6217
80.035
74.6119
69.3971
64.4343
59.765
55.429
51.464
47.9056
44.7871
42.1397
39.9924
38.3724
37.3045
36.8115
36.9145
37.6322
38.9812
40.9758
43.6279
46.9464
50.9372
55.603
60.9424
66.95
73.616
80.9257
88.8591
97.3912
106.491
116.122
126.24
136.798
147.741
159.007
170.531
182.242
194.068
97.1018
91.3284
85.6262
80.0413
74.6199
69.4069
64.4458
59.7784
55.4446
51.482
47.9262
44.8107
42.1668
40.0236
38.4081
37.3454
36.8582
36.9675
37.692
39.0483
41.0506
43.7105
47.0369
51.0354
55.7084
61.0541
67.0668
73.7363
81.0475
88.9801
97.5088
106.603
116.225
126.333
136.878
147.807
159.058
170.568
182.264
194.075
97.1032
91.3326
85.6331
80.0508
74.632
69.4215
64.463
59.7982
55.467
51.5072
47.9545
44.8424
42.2021
40.0629
38.4519
37.394
36.9123
37.0274
37.7583
39.1213
41.1307
43.7979
47.1317
51.1376
55.8175
61.1695
67.1876
73.861
81.1742
89.1066
97.6325
106.721
116.334
126.431
136.964
147.878
159.114
170.607
182.288
194.083
97.1052
91.3384
85.6428
80.0643
74.6491
69.4421
64.4871
59.8257
55.4978
51.5414
47.9922
44.8836
42.2471
40.1119
38.5051
37.4518
36.9749
37.0952
37.8316
39.2004
41.2158
43.8893
47.2296
51.2419
55.9281
61.286
67.3093
73.9868
81.3026
89.2355
97.7594
106.843
116.448
126.535
137.054
147.953
159.173
170.649
182.313
194.092
97.1078
91.3464
85.656
80.0825
74.6721
69.4699
64.5193
59.8622
55.5386
51.5862
48.0409
44.9362
42.3036
40.1723
38.5694
37.5201
37.0473
37.1718
37.9125
39.2858
41.3059
43.9843
47.3295
51.3469
56.0383
61.4013
67.4293
74.1109
81.4295
89.3635
97.8863
106.966
116.565
126.641
137.147
148.031
159.234
170.693
182.34
194.1
97.1113
91.3567
85.6731
80.1062
74.7022
69.506
64.5612
59.9096
55.5911
51.6436
48.1028
45.0023
42.3737
40.2461
38.6468
37.6008
37.1312
37.2588
38.0024
39.3786
41.4016
44.0829
47.4312
51.452
56.147
61.5138
67.5455
74.2305
81.5519
89.4876
98.0102
107.087
116.68
126.748
137.242
148.111
159.297
170.739
182.367
194.109
97.1157
91.3699
85.6949
80.1364
74.7404
69.5519
64.6144
59.9695
55.6573
51.7155
48.1799
45.0842
42.4597
40.3357
38.7395
37.6962
37.2287
37.358
38.1029
39.4802
41.5041
44.1863
47.5356
51.5576
56.2541
61.6228
67.6568
74.3442
81.668
89.6054
98.1284
107.204
116.793
126.853
137.336
148.191
159.361
170.785
182.395
194.118
97.1212
91.3864
85.7221
80.1741
74.7881
69.6092
64.6805
60.044
55.7393
51.8043
48.2747
45.1842
42.5641
40.4437
38.8502
37.8087
37.3422
37.4719
38.2165
39.593
41.6157
44.2964
47.6443
51.6651
56.3608
61.7292
67.7636
74.4519
81.7769
89.7156
98.2393
107.314
116.9
126.955
137.429
148.271
159.425
170.831
182.423
194.128
97.128
91.4066
85.7555
80.2203
74.8466
69.6793
64.7615
60.135
55.8394
51.9124
48.3899
45.3052
42.6898
40.5729
38.9817
37.9414
37.4749
37.6036
38.3463
39.72
41.7393
44.4164
47.7604
51.7775
56.4698
61.8355
67.8679
74.5552
81.8799
89.8187
98.3426
107.417
117.001
127.051
137.518
148.349
159.489
170.878
182.451
194.137
97.1361
91.4311
85.7959
80.2762
74.9174
69.7641
64.8595
60.2449
55.9601
52.0427
48.5282
45.4502
42.8399
40.7266
39.1375
38.0976
37.6303
37.7566
38.4958
39.8649
41.8789
44.55
47.8879
51.8987
56.5851
61.9455
67.9734
74.6572
81.9795
89.9169
98.4399
107.513
117.096
127.143
137.603
148.425
159.551
170.924
182.479
194.146
97.1459
91.4603
85.8443
80.3432
75.0022
69.8657
64.9766
60.3763
56.1042
52.198
48.6929
45.6225
43.0179
40.9084
39.3212
38.2814
37.8123
37.9352
38.6694
40.0323
42.039
44.7021
48.0315
52.0337
56.7116
62.064
68.0848
74.7626
82.08
90.0138
98.5343
107.606
117.186
127.23
137.685
148.499
159.613
170.97
182.508
194.155
97.1575
91.4951
85.9018
80.4226
75.1027
69.986
65.1154
60.5319
56.2748
52.3816
48.8874
45.8257
43.2276
41.1223
39.537
38.4969
38.0254
38.1439
38.872
40.2272
42.2249
44.8781
48.1969
52.1882
56.8553
62.1972
68.2082
74.8771
82.187
90.1146
98.6302
107.698
117.275
127.315
137.765
148.571
159.674
171.016
182.536
194.165
97.1712
91.536
85.9694
80.5161
75.221
70.1277
65.2786
60.7148
56.4752
52.5971
49.1156
46.064
43.4734
41.3728
39.7896
38.7491
38.2747
38.388
39.1089
40.4551
42.4424
45.0839
48.3902
52.3685
57.0225
62.3515
68.3501
75.0075
82.307
90.2256
98.7336
107.795
117.367
127.401
137.845
148.643
159.735
171.063
182.566
194.174
97.1872
91.584
86.0486
80.6256
75.3594
70.2933
65.4694
60.9284
56.7092
52.8486
49.3818
46.3419
43.7598
41.6648
40.0841
39.0432
38.5655
38.6731
39.386
40.7222
42.6976
45.326
48.618
52.5814
57.2201
62.5339
68.5175
75.1606
82.4469
90.3534
98.8508
107.903
117.466
127.493
137.93
148.718
159.799
171.112
182.597
194.185
97.2059
91.6398
86.1408
80.7531
75.5205
70.486
65.6913
61.1767
56.9809
53.1406
49.6907
46.6642
44.0922
42.0037
40.4261
39.3849
38.9041
39.0055
39.7097
41.0348
42.9974
45.6112
48.8874
52.8341
57.4555
62.7517
68.718
75.3441
82.6141
90.5055
98.989
108.028
117.581
127.597
138.023
148.8
159.868
171.165
182.63
194.196
97.2276
91.7047
86.2479
80.9011
75.7073
70.7093
65.9482
61.464
57.2952
53.4781
50.0477
47.0367
44.4762
42.3954
40.8217
39.7808
39.2967
39.3918
40.0867
41.4002
43.3488
45.9468
49.2057
53.134
57.7362
63.0127
68.9591
75.5657
82.8165
90.6895
99.1557
108.179
117.716
127.718
138.13
148.893
159.945
171.224
182.668
194.208
97.2527
91.7798
86.372
81.0723
75.9234
70.9672
66.2447
61.7954
57.6573
53.8668
50.4585
47.4653
44.9182
42.8464
41.2775
40.2375
39.7505
39.8392
40.5245
41.8255
43.7593
46.3404
49.5807
53.4889
58.07
63.3248
69.249
75.8333
83.062
90.9134
99.3586
108.362
117.88
127.864
138.257
149.002
160.034
171.291
182.711
194.222
97.2818
91.8667
86.5153
81.27
76.1726
71.2645
66.5861
62.1764
58.0733
54.3129
50.9299
47.9569
45.4251
43.3638
41.8009
40.7623
40.2728
40.3551
41.0306
42.3187
44.2369
46.8
50.0203
53.907
58.4653
63.6962
69.5959
76.1553
83.3589
91.1853
99.6058
108.585
118.079
128.04
138.411
149.132
160.14
171.37
182.761
194.239
97.3154
91.9672
86.6809
81.4981
76.4598
71.6066
66.9783
62.6136
58.55
54.8236
51.469
48.5188
46.0044
43.9553
42.3994
41.3632
40.8715
40.9476
41.6132
42.888
44.7898
47.3339
50.5331
54.3968
58.9304
64.1355
70.0085
76.5402
83.7158
91.5137
99.9056
108.856
118.322
128.254
138.597
149.289
160.266
171.464
182.821
194.259
97.3544
92.0833
86.8721
81.7612
76.7905
71.9998
67.4283
63.1143
59.0951
55.4068
52.0838
49.1591
46.6642
44.6289
43.0813
42.0483
41.555
41.6251
42.2807
43.5418
45.4266
47.951
51.1279
54.9671
59.4745
64.6518
70.4956
76.9972
84.1416
91.9076
100.267
109.184
118.616
128.514
138.822
149.479
160.419
171.578
182.892
194.283
97.3995
92.2177
87.0932
82.0649
77.1714
72.4516
67.9441
63.687
59.7173
56.0711
52.7832
49.8867
47.4134
45.3934
43.8553
42.8263
42.3319
42.3962
43.0417
44.2889
46.1563
48.6601
51.8137
55.6271
60.1067
65.2542
71.0667
77.5355
84.6457
92.3762
100.699
109.578
118.971
128.829
139.095
149.708
160.603
171.714
182.976
194.311
97.4519
92.3736
87.3493
82.4157
77.6103
72.9707
68.5351
64.3412
60.4262
56.8264
53.5768
50.711
48.2611
46.2579
44.7304
43.7061
43.2111
43.2698
43.9052
45.1382
46.9877
49.4703
52.5996
56.3861
60.8364
65.9525
71.7315
78.1649
85.238
92.9295
101.211
110.047
119.395
129.206
139.423
149.984
160.825
171.878
183.078
194.345
97.513
92.5551
87.6467
82.8221
78.1168
73.5677
69.2121
65.0881
61.2329
57.6833
54.475
51.6421
49.2174
47.2321
45.7159
44.6969
44.2015
44.2549
44.8801
46.0987
47.9299
50.3907
53.4951
57.2537
61.6733
66.7564
72.5
78.8958
85.9289
93.5779
101.814
110.603
119.9
129.657
139.816
150.316
161.091
172.075
183.2
194.386
97.5846
92.7675
87.9939
83.2944
78.7029
74.2549
69.988
65.9401
62.1495
58.6537
55.489
52.6907
50.2923
48.3257
46.8213
45.8078
45.3123
45.3602
45.9753
47.1793
48.992
51.4305
54.5093
58.2392
62.6272
67.6759
73.3825
79.7385
86.7291
94.3326
102.52
111.256
120.497
130.193
140.286
150.714
161.412
172.313
183.347
194.436
97.6692
93.0179
88.4014
83.846
79.383
75.0476
70.8774
66.9117
63.1897
59.7502
56.6309
53.8681
51.4965
49.5488
48.0562
47.0482
46.5523
46.5947
47.1994
48.3886
50.1825
52.5986
55.6513
59.352
63.7077
68.7211
74.3894
80.7041
87.6501
95.2056
103.341
112.021
121.2
130.827
140.846
151.192
161.799
172.599
183.523
194.498
97.7704
93.3162
88.8841
84.4941
80.1756
75.9639
71.8981
68.0191
64.3683
60.9865
57.9131
55.1858
52.8405
50.9111
49.4298
48.4267
47.9301
47.9665
48.5606
49.7349
51.5099
53.9033
56.9299
60.6012
64.9243
69.9018
75.5312
81.8037
88.704
96.2098
104.291
112.911
122.024
131.578
141.513
151.766
162.267
172.948
183.739
194.574
97.8935
93.6771
89.4624
85.2618
81.1039
77.0259
73.07
69.2805
65.7017
62.3771
59.3484
56.6551
54.3348
52.4224
50.9511
49.9519
49.4537
49.4835
50.0666
51.2258
52.9818
55.3527
58.3534
61.9954
66.2861
71.2281
76.8187
83.049
89.9035
97.3594
105.386
113.945
122.99
132.466
142.311
152.459
162.838
173.379
184.008
194.67
98.0473
94.1233
90.1661
86.1804
82.1976
78.2603
74.4165
70.7158
67.2069
63.9367
60.9497
58.2875
55.9892
54.0914
52.6282
51.6312
51.1302
51.1527
51.7243
52.8683
54.6055
56.9542
59.9296
63.5432
67.8026
72.7102
78.2633
84.4528
91.2629
98.6703
106.644
115.143
124.119
133.516
143.268
153.303
163.544
173.92
184.348
194.793
98.248
94.6935
91.0401
87.2925
83.4938
79.6981
75.9632
72.346
68.9011
65.6795
62.7288
60.0929
57.8127
55.9261
54.4681
53.4713
52.966
52.9803
53.54
54.6687
56.3877
58.7152
61.6666
65.2536
69.4836
74.3592
79.8775
86.0294
92.7986
100.161
108.085
116.529
125.442
134.764
144.423
154.342
164.432
174.615
184.79
194.953
98.527
95.4545
92.1504
88.6533
85.0359
81.3726
77.7352
74.1904
70.7991
67.6171
64.6949
62.0789
59.8115
57.9318
56.4759
55.4769
54.9659
54.9712
55.519
56.6332
58.3352
60.6434
63.5734
67.1367
71.341
76.1887
81.677
87.7965
94.5307
101.855
109.737
118.134
126.993
136.25
145.827
155.637
165.574
175.54
185.394
195.179
98.9972
96.5278
93.5832
90.3241
86.8663
83.3122
79.7513
76.2609
72.9085
69.754
66.8507
64.2469
61.9865
60.1094
58.6525
57.6497
57.1321
57.1287
57.6658
58.7675
60.4553
62.7478
65.6606
69.2052
73.3894
78.2158
83.6811
89.7761
96.484
103.78
111.631
119.993
128.811
138.019
147.534
157.26
167.07
176.828
186.311
195.583
99.8649
98.1568
95.5084
92.4094
89.048
85.5539
82.0319
78.5678
75.2332
72.0905
69.1945
66.5947
64.3354
62.4574
60.9978
59.9908
59.4679
59.458
59.9877
61.0812
62.76
65.0427
67.945
71.4785
75.6509
80.4646
85.9167
91.9976
98.6904
105.97
113.803
122.144
130.938
140.117
149.595
159.271
169.005
178.642
187.862
196.599
)
;

boundaryField
{
    carasuperior
    {
        type            fixedGradient;
        gradient        uniform 100;
    }
    lateralizquierda
    {
        type            fixedValue;
        value           uniform 100;
    }
    lateralderecha
    {
        type            fixedValue;
        value           uniform 200;
    }
    carainferior
    {
        type            zeroGradient;
    }
    frontAndBack
    {
        type            empty;
    }
}


// ************************************************************************* //
