/*--------------------------------*- C++ -*----------------------------------*\
| =========                 |                                                 |
| \\      /  F ield         | OpenFOAM: The Open Source CFD Toolbox           |
|  \\    /   O peration     | Version:  2.4.0                                 |
|   \\  /    A nd           | Web:      www.OpenFOAM.org                      |
|    \\/     M anipulation  |                                                 |
\*---------------------------------------------------------------------------*/
FoamFile
{
    version     2.0;
    format      ascii;
    class       volScalarField;
    location    "0.9";
    object      p;
}
// * * * * * * * * * * * * * * * * * * * * * * * * * * * * * * * * * * * * * //

dimensions      [0 2 -2 0 0 0 0];

internalField   nonuniform List<scalar> 
4800
(
-2.76187e-06
-0.00135152
-0.00253689
-0.00322042
-0.00313473
-0.00216201
-0.000273603
0.00251486
0.00614984
0.0105321
0.0013437
-2.15754e-05
-0.000833466
-0.00109882
-0.000722386
0.000385853
0.00225825
0.00489526
0.00826994
0.0123209
0.00254208
0.000758761
-5.31696e-05
-0.00019541
0.000280598
0.00142861
0.00327076
0.00581554
0.00905861
0.0129697
0.00314618
0.000883892
-5.38185e-05
-0.000201639
0.000273912
0.00139604
0.0031794
0.00564555
0.00882101
0.0127173
0.00274773
0.00012583
-0.00093885
-0.00114187
-0.000727273
0.000311531
0.0019946
0.00437118
0.00751873
0.0115257
0.00110694
-0.00171076
-0.00287298
-0.00316286
-0.00286549
-0.00197632
-0.000453395
0.00180074
0.00494635
0.00923061
-0.0018706
-0.00470954
-0.0059273
-0.0063278
-0.00620644
-0.00555015
-0.00427999
-0.00222926
0.000883254
0.00564061
-0.00616148
-0.00885401
-0.0100831
-0.0106156
-0.0107347
-0.0104168
-0.00953886
-0.00785365
-0.00493953
0.000468208
-0.0116328
-0.0140343
-0.0152341
-0.0159156
-0.016337
-0.0164735
-0.0161638
-0.01508
-0.0127034
-0.00645523
-0.0180523
-0.0200577
-0.021193
-0.022028
-0.0227964
-0.0235069
-0.0240221
-0.0240268
-0.023328
-0.017908
-4.95101e-06
-0.00136941
-0.00256386
-0.00325507
-0.00317349
-0.00220225
-0.000313649
0.00247669
0.0061155
0.0105037
0.00135791
-2.48528e-05
-0.000816839
-0.00107436
-0.000694287
0.00041628
0.00228858
0.00492342
0.00829469
0.0123423
0.00256798
0.000736614
-5.39131e-05
-0.000194384
0.00027939
0.00142739
0.00326942
0.00581371
0.00905628
0.0129684
0.00318292
0.000854025
-5.39487e-05
-0.000199584
0.000272257
0.00139384
0.00317677
0.00564199
0.0088158
0.0127129
0.00279112
9.17744e-05
-0.000935329
-0.00113426
-0.000723344
0.000315002
0.0019974
0.00437219
0.0075146
0.0115193
0.00115313
-0.00174779
-0.00286856
-0.00315339
-0.00285957
-0.00197065
-0.000448058
0.00180464
0.0049399
0.00921442
-0.0018248
-0.00474698
-0.00592264
-0.00631751
-0.00619909
-0.00554259
-0.00427163
-0.00221903
0.000874946
0.0056009
-0.00611927
-0.00888956
-0.0100788
-0.0106055
-0.0107266
-0.0104085
-0.00952963
-0.00783699
-0.00496247
0.000327842
-0.0115972
-0.0140663
-0.015231
-0.0159068
-0.0163286
-0.0164634
-0.0161495
-0.0150331
-0.0126921
-0.00677018
-0.0180259
-0.0200855
-0.0211925
-0.0220228
-0.0227902
-0.023496
-0.0239975
-0.0239007
-0.0230436
-0.0179826
-5.20559e-06
-0.00136958
-0.00256396
-0.00325513
-0.00317353
-0.00220228
-0.000313672
0.00247667
0.00611548
0.0105037
0.00135774
-2.49724e-05
-0.000816923
-0.00107442
-0.000694328
0.000416249
0.00228855
0.0049234
0.00829467
0.0123423
0.00256787
0.000736533
-5.39775e-05
-0.000194434
0.000279352
0.00142736
0.0032694
0.00581369
0.00905626
0.0129684
0.00318286
0.000853968
-5.39972e-05
-0.000199626
0.000272221
0.00139381
0.00317674
0.00564197
0.00881578
0.0127129
0.00279108
9.17304e-05
-0.00093537
-0.0011343
-0.000723376
0.000314974
0.00199738
0.00437217
0.00751459
0.0115193
0.0011531
-0.00174782
-0.00286859
-0.00315342
-0.0028596
-0.00197068
-0.000448081
0.00180462
0.00493988
0.0092144
-0.00182483
-0.00474701
-0.00592267
-0.00631754
-0.00619911
-0.00554261
-0.00427165
-0.00221905
0.00087493
0.00560089
-0.0061193
-0.00888958
-0.0100788
-0.0106055
-0.0107267
-0.0104085
-0.00952965
-0.00783701
-0.00496248
0.000327831
-0.0115973
-0.0140663
-0.015231
-0.0159068
-0.0163286
-0.0164635
-0.0161495
-0.0150331
-0.0126921
-0.00677019
-0.0180259
-0.0200855
-0.0211925
-0.0220228
-0.0227902
-0.023496
-0.0239975
-0.0239007
-0.0230436
-0.0179826
-4.53941e-06
-0.00135223
-0.00253722
-0.0032206
-0.00313484
-0.00216209
-0.000273663
0.00251481
0.0061498
0.010532
0.00134298
-2.19799e-05
-0.000833717
-0.00109899
-0.000722501
0.000385768
0.00225818
0.00489521
0.0082699
0.0123209
0.00254174
0.000758508
-5.33586e-05
-0.00019555
0.000280492
0.00142853
0.00327069
0.00581548
0.00905857
0.0129696
0.00314599
0.000883724
-5.39592e-05
-0.000201754
0.000273817
0.00139597
0.00317934
0.00564549
0.00882097
0.0127173
0.0027476
0.00012571
-0.00093896
-0.00114196
-0.000727356
0.000311459
0.00199453
0.00437112
0.00751868
0.0115257
0.00110684
-0.00171086
-0.00287307
-0.00316294
-0.00286557
-0.00197639
-0.000453455
0.00180069
0.0049463
0.00923057
-0.00187068
-0.00470962
-0.00592738
-0.00632787
-0.0062065
-0.00555021
-0.00428004
-0.00222931
0.000883212
0.00564058
-0.00616155
-0.00885407
-0.0100832
-0.0106157
-0.0107347
-0.0104168
-0.00953891
-0.0078537
-0.00493956
0.000468177
-0.0116329
-0.0140343
-0.0152341
-0.0159157
-0.0163371
-0.0164735
-0.0161638
-0.01508
-0.0127034
-0.00645526
-0.0180524
-0.0200578
-0.021193
-0.022028
-0.0227965
-0.0235069
-0.0240221
-0.0240269
-0.023328
-0.017908
0.0155132
0.0209174
0.0265875
0.0324068
0.038299
0.0442209
0.0501525
0.0560888
0.0620352
0.0680047
0.0740175
0.080102
0.0862947
0.0926389
0.099181
0.105961
0.113
0.120272
0.127685
0.135059
0.0169441
0.0220029
0.0273725
0.0329526
0.0386685
0.0444698
0.0503254
0.0562192
0.0621468
0.0681127
0.0741291
0.0802154
0.086397
0.0927028
0.0991619
0.105795
0.112605
0.119559
0.126575
0.133502
0.0174663
0.0224078
0.0276743
0.0331707
0.0388229
0.0445784
0.0504027
0.0562756
0.0621881
0.06814
0.0741386
0.0801972
0.0863344
0.0925722
0.0989328
0.105434
0.112081
0.118852
0.125687
0.132465
0.0172656
0.0222668
0.0275837
0.0331188
0.0387976
0.0445694
0.0504017
0.0562753
0.0621809
0.0681162
0.0740849
0.0800958
0.0861619
0.0923003
0.0985315
0.104877
0.111357
0.117978
0.124718
0.131507
0.0163451
0.0216064
0.0271332
0.0328271
0.0386171
0.0444615
0.0503373
0.0562323
0.0621405
0.0680602
0.0739928
0.0799422
0.0859157
0.0919252
0.0979892
0.104136
0.110407
0.116849
0.123508
0.130406
0.0146851
0.0204817
0.026399
0.0323685
0.0383407
0.0442989
0.0502414
0.0561698
0.062086
0.0679908
0.0738835
0.0797631
0.0856295
0.0914867
0.0973477
0.103245
0.109241
0.115435
0.121969
0.12906
0.0123838
0.0190938
0.0255796
0.0319044
0.0380854
0.0441608
0.050166
0.0561232
0.0620441
0.0679321
0.0737843
0.079593
0.0853482
0.0910413
0.0966731
0.102269
0.107908
0.11374
0.120033
0.127389
0.00974084
0.0178268
0.0249831
0.0316529
0.0379913
0.0441322
0.0501621
0.0561244
0.0620378
0.0679058
0.0737209
0.0794666
0.0851201
0.0906556
0.0960515
0.101313
0.10652
0.111852
0.117689
0.125285
0.00842742
0.0180109
0.0253312
0.0319726
0.0382296
0.0442923
0.0502677
0.0561957
0.0620869
0.0679364
0.0737277
0.0794334
0.0850149
0.0904216
0.0955936
0.100485
0.105139
0.109616
0.114174
0.121166
0.0126213
0.0225498
0.0279559
0.0333973
0.0389998
0.044713
0.0505107
0.0563554
0.0622145
0.0680594
0.0738588
0.0795715
0.0851384
0.0904725
0.0954455
0.0998734
0.103516
0.106111
0.107124
0.11088
0.0154923
0.0209031
0.0265783
0.0324012
0.0382957
0.044219
0.0501513
0.056088
0.0620344
0.0680036
0.074016
0.0801
0.0862921
0.0926359
0.0991778
0.105959
0.112999
0.120274
0.127693
0.135075
0.016963
0.0220186
0.0273847
0.0329617
0.0386752
0.0444745
0.0503288
0.056222
0.0621493
0.0681151
0.0741316
0.0802181
0.0863995
0.0927048
0.0991624
0.105793
0.112598
0.119548
0.126557
0.133478
0.0174689
0.022412
0.0276787
0.0331748
0.0388264
0.0445811
0.0504047
0.0562771
0.0621892
0.0681409
0.0741393
0.0801977
0.0863346
0.092572
0.098932
0.105432
0.112078
0.118848
0.125682
0.132461
0.0172692
0.0222726
0.0275893
0.0331236
0.0388014
0.0445721
0.0504036
0.0562766
0.0621818
0.0681168
0.0740853
0.080096
0.0861619
0.0923002
0.098531
0.104876
0.111355
0.117974
0.124713
0.131502
0.016355
0.0216172
0.0271416
0.0328335
0.0386215
0.0444644
0.0503392
0.0562334
0.0621412
0.0680607
0.0739932
0.0799425
0.0859161
0.0919255
0.0979893
0.104135
0.110405
0.116845
0.123499
0.130393
0.0147072
0.0204995
0.0264095
0.0323755
0.0383448
0.044301
0.0502424
0.0561703
0.0620862
0.0679908
0.0738836
0.0797633
0.0856298
0.0914871
0.0973482
0.103245
0.10924
0.115433
0.121953
0.12903
0.0124436
0.0191312
0.0255958
0.0319129
0.038089
0.0441619
0.0501661
0.056123
0.0620438
0.0679319
0.0737842
0.0795932
0.0853486
0.0910421
0.096674
0.102269
0.107906
0.113734
0.119997
0.127307
0.00984354
0.0178659
0.0249901
0.0316558
0.0379911
0.0441308
0.0501608
0.0561233
0.062037
0.0679051
0.0737202
0.0794661
0.0851199
0.090656
0.0960526
0.101313
0.10652
0.111856
0.117656
0.125151
0.00855784
0.0179552
0.0252711
0.0319485
0.0382177
0.0442854
0.0502637
0.056193
0.0620845
0.0679337
0.0737245
0.0794296
0.0850106
0.0904179
0.0955927
0.100489
0.105156
0.109688
0.114265
0.121012
0.0133518
0.0226603
0.0279604
0.0334154
0.0390113
0.044718
0.0505133
0.0563571
0.0622158
0.0680607
0.0738605
0.0795736
0.0851408
0.0904749
0.0954463
0.0998681
0.103506
0.106133
0.107066
0.110004
0.0154923
0.020903
0.0265783
0.0324012
0.0382957
0.044219
0.0501513
0.056088
0.0620344
0.0680036
0.074016
0.0801
0.0862921
0.0926359
0.0991778
0.105959
0.112999
0.120274
0.127693
0.135075
0.016963
0.0220186
0.0273847
0.0329617
0.0386751
0.0444745
0.0503288
0.056222
0.0621493
0.0681151
0.0741316
0.0802181
0.0863995
0.0927048
0.0991624
0.105793
0.112598
0.119548
0.126557
0.133478
0.0174689
0.022412
0.0276787
0.0331748
0.0388264
0.0445811
0.0504047
0.0562771
0.0621892
0.0681409
0.0741393
0.0801977
0.0863346
0.092572
0.098932
0.105432
0.112078
0.118848
0.125682
0.132461
0.0172692
0.0222726
0.0275893
0.0331236
0.0388014
0.0445721
0.0504036
0.0562766
0.0621818
0.0681168
0.0740853
0.080096
0.0861619
0.0923002
0.098531
0.104876
0.111355
0.117974
0.124713
0.131502
0.0163549
0.0216172
0.0271416
0.0328335
0.0386215
0.0444644
0.0503392
0.0562334
0.0621412
0.0680607
0.0739932
0.0799425
0.0859161
0.0919255
0.0979893
0.104135
0.110405
0.116845
0.123499
0.130393
0.0147071
0.0204995
0.0264095
0.0323755
0.0383447
0.044301
0.0502424
0.0561703
0.0620862
0.0679908
0.0738836
0.0797633
0.0856298
0.0914871
0.0973482
0.103245
0.10924
0.115433
0.121953
0.12903
0.0124436
0.0191312
0.0255958
0.0319129
0.0380889
0.0441619
0.0501661
0.056123
0.0620438
0.0679319
0.0737842
0.0795932
0.0853486
0.0910421
0.096674
0.102269
0.107906
0.113734
0.119997
0.127307
0.00984353
0.0178658
0.0249901
0.0316558
0.0379911
0.0441308
0.0501608
0.0561233
0.062037
0.0679051
0.0737202
0.0794661
0.0851199
0.090656
0.0960526
0.101313
0.10652
0.111856
0.117656
0.125151
0.00855783
0.0179552
0.025271
0.0319485
0.0382177
0.0442854
0.0502637
0.056193
0.0620845
0.0679337
0.0737245
0.0794296
0.0850106
0.0904179
0.0955927
0.100489
0.105156
0.109688
0.114265
0.121012
0.0133518
0.0226602
0.0279604
0.0334154
0.0390113
0.044718
0.0505133
0.0563571
0.0622158
0.0680607
0.0738605
0.0795736
0.0851408
0.0904749
0.0954463
0.0998681
0.103506
0.106133
0.107066
0.110004
0.0155132
0.0209174
0.0265875
0.0324068
0.038299
0.0442209
0.0501525
0.0560888
0.0620352
0.0680047
0.0740175
0.080102
0.0862947
0.0926389
0.099181
0.105961
0.113
0.120272
0.127685
0.135059
0.0169441
0.0220029
0.0273725
0.0329525
0.0386685
0.0444698
0.0503253
0.0562192
0.0621468
0.0681127
0.0741291
0.0802154
0.086397
0.0927028
0.0991619
0.105795
0.112605
0.119559
0.126575
0.133502
0.0174663
0.0224077
0.0276743
0.0331707
0.0388229
0.0445784
0.0504027
0.0562756
0.0621881
0.06814
0.0741386
0.0801972
0.0863344
0.0925722
0.0989328
0.105434
0.112081
0.118852
0.125687
0.132465
0.0172656
0.0222668
0.0275837
0.0331188
0.0387976
0.0445694
0.0504016
0.0562753
0.0621808
0.0681162
0.0740849
0.0800958
0.0861619
0.0923003
0.0985315
0.104877
0.111357
0.117978
0.124718
0.131507
0.016345
0.0216064
0.0271332
0.032827
0.038617
0.0444615
0.0503373
0.0562323
0.0621405
0.0680602
0.0739928
0.0799422
0.0859157
0.0919252
0.0979892
0.104136
0.110407
0.116849
0.123508
0.130406
0.0146851
0.0204817
0.0263989
0.0323685
0.0383407
0.0442989
0.0502413
0.0561698
0.062086
0.0679908
0.0738835
0.0797631
0.0856295
0.0914867
0.0973477
0.103245
0.109241
0.115435
0.121969
0.12906
0.0123838
0.0190937
0.0255795
0.0319044
0.0380854
0.0441608
0.050166
0.0561232
0.0620441
0.0679321
0.0737843
0.079593
0.0853482
0.0910413
0.0966731
0.102269
0.107908
0.11374
0.120033
0.127389
0.00974081
0.0178268
0.0249831
0.0316529
0.0379913
0.0441322
0.0501621
0.0561244
0.0620378
0.0679058
0.0737209
0.0794666
0.0851201
0.0906556
0.0960515
0.101313
0.10652
0.111852
0.117689
0.125285
0.0084274
0.0180109
0.0253312
0.0319726
0.0382296
0.0442923
0.0502677
0.0561957
0.0620869
0.0679364
0.0737277
0.0794334
0.0850149
0.0904216
0.0955936
0.100485
0.105139
0.109616
0.114174
0.121166
0.0126213
0.0225498
0.0279559
0.0333972
0.0389998
0.044713
0.0505107
0.0563554
0.0622145
0.0680594
0.0738588
0.0795715
0.0851384
0.0904725
0.0954455
0.0998734
0.103516
0.106111
0.107124
0.11088
0.142121
0.148541
0.154013
0.158305
0.161284
0.162926
0.163326
0.162722
0.161524
0.160175
0.140115
0.146139
0.151321
0.155466
0.158466
0.160304
0.161063
0.160939
0.160158
0.158827
0.13898
0.144939
0.150091
0.154248
0.157304
0.15924
0.160126
0.160127
0.159347
0.157643
0.138144
0.144257
0.149558
0.153848
0.157014
0.159037
0.159978
0.159985
0.159082
0.15696
0.137375
0.143835
0.149439
0.153969
0.157312
0.159452
0.160455
0.160463
0.15946
0.157047
0.136663
0.143697
0.149756
0.154624
0.158201
0.160491
0.161578
0.161612
0.16057
0.158022
0.136147
0.144005
0.150632
0.155894
0.159724
0.162175
0.163363
0.163457
0.162446
0.159914
0.13614
0.145086
0.152315
0.157943
0.161978
0.164553
0.165832
0.166005
0.165087
0.162707
0.136835
0.147459
0.155226
0.161054
0.165123
0.167702
0.16901
0.169253
0.168468
0.166349
0.142249
0.1537
0.160628
0.165808
0.169407
0.171711
0.172911
0.17317
0.172527
0.170742
0.142147
0.148576
0.154055
0.158351
0.16133
0.16297
0.163363
0.162748
0.161538
0.160175
0.140087
0.146107
0.151285
0.155429
0.158429
0.16027
0.161033
0.160917
0.160155
0.15881
0.13898
0.144942
0.150096
0.154253
0.157309
0.159243
0.160126
0.160126
0.159363
0.157616
0.138149
0.144266
0.149569
0.153858
0.157024
0.159044
0.15998
0.159987
0.159107
0.156925
0.137381
0.143843
0.149447
0.153976
0.157318
0.159456
0.160453
0.160461
0.159488
0.157008
0.136674
0.143707
0.149764
0.154632
0.158206
0.160495
0.161576
0.161611
0.160601
0.157982
0.136171
0.14402
0.150641
0.155902
0.159729
0.162178
0.163361
0.163456
0.162476
0.159873
0.136266
0.145133
0.152332
0.157953
0.161982
0.164554
0.165828
0.166004
0.165115
0.162669
0.13712
0.14747
0.155203
0.161045
0.165117
0.167698
0.169005
0.169251
0.168493
0.166315
0.142175
0.153385
0.160488
0.165768
0.169391
0.171704
0.172906
0.173169
0.172548
0.170713
0.142147
0.148576
0.154055
0.158351
0.16133
0.16297
0.163363
0.162748
0.161538
0.160175
0.140087
0.146107
0.151285
0.155429
0.158429
0.16027
0.161033
0.160917
0.160155
0.15881
0.13898
0.144942
0.150096
0.154253
0.157309
0.159243
0.160126
0.160126
0.159363
0.157616
0.138149
0.144266
0.149569
0.153858
0.157024
0.159044
0.15998
0.159986
0.159107
0.156925
0.137381
0.143843
0.149447
0.153976
0.157318
0.159456
0.160453
0.160461
0.159488
0.157008
0.136674
0.143707
0.149764
0.154632
0.158206
0.160495
0.161576
0.161611
0.160601
0.157982
0.136171
0.14402
0.150641
0.155902
0.159729
0.162178
0.163361
0.163456
0.162476
0.159873
0.136266
0.145133
0.152332
0.157953
0.161982
0.164554
0.165828
0.166004
0.165115
0.162669
0.13712
0.14747
0.155203
0.161045
0.165117
0.167698
0.169005
0.169251
0.168493
0.166315
0.142175
0.153386
0.160488
0.165768
0.169391
0.171704
0.172906
0.173169
0.172548
0.170713
0.142121
0.148541
0.154013
0.158305
0.161284
0.162926
0.163326
0.162722
0.161523
0.160175
0.140115
0.146139
0.151321
0.155466
0.158466
0.160304
0.161063
0.160939
0.160158
0.158827
0.13898
0.144939
0.150091
0.154248
0.157304
0.15924
0.160126
0.160127
0.159347
0.157643
0.138144
0.144257
0.149558
0.153848
0.157014
0.159037
0.159978
0.159985
0.159082
0.15696
0.137375
0.143835
0.149439
0.153969
0.157312
0.159452
0.160455
0.160463
0.15946
0.157047
0.136663
0.143697
0.149756
0.154624
0.158201
0.160491
0.161578
0.161612
0.16057
0.158022
0.136147
0.144005
0.150632
0.155894
0.159724
0.162175
0.163363
0.163457
0.162446
0.159914
0.13614
0.145086
0.152315
0.157943
0.161978
0.164553
0.165832
0.166005
0.165087
0.162707
0.136835
0.147459
0.155226
0.161054
0.165123
0.167702
0.16901
0.169253
0.168468
0.166349
0.142249
0.1537
0.160628
0.165808
0.169407
0.171711
0.172911
0.17317
0.172527
0.170742
0.172758
0.16857
0.169892
0.172546
0.17486
0.176532
0.177464
0.177675
0.177161
0.175737
0.182664
0.178138
0.177968
0.179251
0.180655
0.181796
0.182471
0.182625
0.182232
0.18116
0.188044
0.185443
0.185115
0.185731
0.186571
0.187325
0.187793
0.1879
0.187616
0.186854
0.193457
0.19207
0.191777
0.192053
0.19254
0.19302
0.193331
0.193404
0.19321
0.192701
0.19903
0.198318
0.198115
0.198235
0.198513
0.198809
0.199009
0.199056
0.198934
0.198621
0.204721
0.204386
0.20427
0.204323
0.204476
0.204649
0.20477
0.204798
0.20473
0.204566
0.210516
0.210394
0.210341
0.210358
0.210429
0.210515
0.210573
0.210584
0.210553
0.2105
0.216393
0.21641
0.216389
0.216375
0.216379
0.216389
0.216389
0.216375
0.216365
0.216401
0.222367
0.222471
0.222459
0.222402
0.222332
0.222259
0.222191
0.222138
0.222132
0.222234
0.228463
0.228624
0.228592
0.228465
0.228296
0.228116
0.227954
0.227837
0.227813
0.227962
0.234737
0.234921
0.23483
0.23459
0.234278
0.233948
0.233652
0.233436
0.233362
0.23353
0.241275
0.241425
0.241215
0.2408
0.240282
0.239743
0.239259
0.238896
0.238728
0.238869
0.248194
0.248206
0.247789
0.247115
0.246312
0.245488
0.244748
0.244176
0.243854
0.243892
0.255652
0.255336
0.254583
0.253543
0.25236
0.251171
0.250102
0.24925
0.248692
0.248505
0.263848
0.262858
0.261587
0.260061
0.258405
0.256778
0.255313
0.254109
0.253213
0.252619
0.273012
0.270751
0.268711
0.266582
0.264391
0.262295
0.260402
0.258787
0.257431
0.25618
0.283257
0.278783
0.275661
0.272872
0.27018
0.267684
0.265416
0.263379
0.261436
0.259202
0.294219
0.286184
0.281758
0.278454
0.275492
0.272859
0.270425
0.268058
0.265428
0.261808
0.305522
0.291992
0.285912
0.282468
0.279784
0.277593
0.275483
0.27308
0.269754
0.264296
0.319417
0.293827
0.285238
0.28287
0.281856
0.281345
0.28055
0.278772
0.274948
0.267211
0.173489
0.168701
0.169995
0.172606
0.174882
0.176542
0.177468
0.177677
0.17718
0.175716
0.182774
0.178083
0.178007
0.179288
0.180673
0.181806
0.182476
0.182629
0.182248
0.181146
0.188049
0.185383
0.185122
0.185748
0.186582
0.187333
0.187798
0.187905
0.187628
0.186845
0.193475
0.192046
0.19178
0.192061
0.192547
0.193026
0.193336
0.193408
0.193218
0.192695
0.199041
0.198308
0.198116
0.198239
0.198517
0.198813
0.199013
0.199059
0.19894
0.198619
0.204725
0.204381
0.20427
0.204324
0.204478
0.204652
0.204772
0.204801
0.204733
0.204565
0.210517
0.210393
0.21034
0.210358
0.21043
0.210517
0.210575
0.210585
0.210554
0.210501
0.216393
0.216411
0.216388
0.216374
0.21638
0.21639
0.21639
0.216376
0.216365
0.216402
0.222365
0.222474
0.222459
0.222401
0.222332
0.22226
0.222192
0.222138
0.22213
0.222236
0.22846
0.228628
0.228592
0.228464
0.228296
0.228116
0.227954
0.227837
0.22781
0.227965
0.234733
0.234926
0.23483
0.234589
0.234278
0.233948
0.233652
0.233436
0.233358
0.233534
0.24127
0.241429
0.241214
0.240798
0.240282
0.239742
0.239259
0.238896
0.238724
0.238874
0.248189
0.248209
0.247787
0.247113
0.24631
0.245487
0.244749
0.244177
0.243852
0.243897
0.255648
0.255334
0.254579
0.25354
0.252358
0.25117
0.250102
0.249252
0.248692
0.248509
0.263848
0.262845
0.26158
0.260057
0.258402
0.256777
0.255315
0.254113
0.25322
0.252621
0.273023
0.270718
0.268703
0.266578
0.264387
0.262294
0.260404
0.258793
0.257449
0.256178
0.283313
0.278724
0.275656
0.272872
0.270175
0.267684
0.265419
0.263388
0.26147
0.259191
0.294337
0.286035
0.281737
0.278452
0.275485
0.272859
0.270428
0.268072
0.265486
0.261784
0.305679
0.291656
0.285897
0.282504
0.279796
0.277605
0.275492
0.273101
0.269845
0.264251
0.320748
0.293884
0.28552
0.283056
0.281923
0.281377
0.280566
0.278802
0.275083
0.267138
0.173489
0.168701
0.169995
0.172606
0.174882
0.176542
0.177468
0.177677
0.17718
0.175716
0.182774
0.178083
0.178007
0.179288
0.180673
0.181806
0.182476
0.182629
0.182248
0.181146
0.188049
0.185383
0.185122
0.185748
0.186582
0.187333
0.187798
0.187905
0.187628
0.186845
0.193475
0.192046
0.19178
0.192061
0.192547
0.193026
0.193336
0.193408
0.193218
0.192695
0.199041
0.198308
0.198116
0.198239
0.198517
0.198813
0.199013
0.199059
0.19894
0.198619
0.204725
0.204381
0.20427
0.204324
0.204478
0.204652
0.204772
0.204801
0.204733
0.204565
0.210517
0.210393
0.21034
0.210358
0.21043
0.210517
0.210575
0.210585
0.210554
0.210501
0.216393
0.216411
0.216388
0.216374
0.21638
0.21639
0.21639
0.216376
0.216365
0.216402
0.222365
0.222474
0.222459
0.222401
0.222332
0.22226
0.222192
0.222138
0.22213
0.222236
0.22846
0.228628
0.228592
0.228464
0.228296
0.228116
0.227954
0.227837
0.22781
0.227965
0.234733
0.234926
0.23483
0.234589
0.234278
0.233948
0.233652
0.233436
0.233358
0.233534
0.24127
0.241429
0.241214
0.240798
0.240282
0.239742
0.239259
0.238896
0.238724
0.238874
0.248189
0.248209
0.247787
0.247113
0.24631
0.245487
0.244749
0.244177
0.243852
0.243897
0.255648
0.255334
0.254579
0.25354
0.252358
0.25117
0.250102
0.249252
0.248692
0.248509
0.263848
0.262845
0.26158
0.260057
0.258402
0.256777
0.255315
0.254113
0.25322
0.252621
0.273023
0.270718
0.268703
0.266578
0.264387
0.262294
0.260404
0.258793
0.257449
0.256178
0.283313
0.278724
0.275656
0.272872
0.270175
0.267684
0.265419
0.263388
0.26147
0.259191
0.294337
0.286035
0.281737
0.278452
0.275485
0.272859
0.270428
0.268072
0.265486
0.261784
0.305679
0.291656
0.285897
0.282504
0.279796
0.277605
0.275492
0.273101
0.269845
0.264251
0.320748
0.293884
0.28552
0.283056
0.281923
0.281377
0.280566
0.278802
0.275083
0.267138
0.172758
0.16857
0.169892
0.172546
0.17486
0.176532
0.177464
0.177675
0.177161
0.175737
0.182664
0.178138
0.177968
0.179251
0.180655
0.181796
0.182471
0.182625
0.182232
0.18116
0.188044
0.185443
0.185115
0.185731
0.186571
0.187325
0.187793
0.1879
0.187616
0.186854
0.193457
0.19207
0.191777
0.192053
0.19254
0.19302
0.193331
0.193404
0.19321
0.192701
0.19903
0.198318
0.198115
0.198235
0.198513
0.198809
0.199009
0.199056
0.198934
0.198621
0.204721
0.204386
0.20427
0.204323
0.204476
0.204649
0.20477
0.204798
0.20473
0.204566
0.210516
0.210394
0.210341
0.210358
0.210429
0.210515
0.210573
0.210584
0.210553
0.2105
0.216393
0.21641
0.216389
0.216375
0.216379
0.216389
0.216389
0.216375
0.216365
0.216401
0.222367
0.222471
0.222459
0.222402
0.222332
0.222259
0.222191
0.222138
0.222132
0.222234
0.228463
0.228624
0.228592
0.228465
0.228296
0.228116
0.227954
0.227837
0.227813
0.227962
0.234737
0.234921
0.23483
0.23459
0.234278
0.233948
0.233652
0.233436
0.233362
0.23353
0.241275
0.241425
0.241215
0.2408
0.240282
0.239743
0.239259
0.238896
0.238728
0.238869
0.248194
0.248206
0.247789
0.247115
0.246312
0.245488
0.244748
0.244176
0.243854
0.243892
0.255652
0.255336
0.254583
0.253543
0.25236
0.251171
0.250102
0.24925
0.248692
0.248505
0.263848
0.262858
0.261587
0.260061
0.258405
0.256778
0.255313
0.254109
0.253213
0.252619
0.273012
0.270751
0.268711
0.266582
0.264391
0.262295
0.260402
0.258787
0.257431
0.25618
0.283257
0.278783
0.275661
0.272872
0.27018
0.267684
0.265416
0.263379
0.261436
0.259202
0.294219
0.286184
0.281758
0.278454
0.275492
0.272859
0.270425
0.268058
0.265428
0.261808
0.305522
0.291992
0.285912
0.282468
0.279784
0.277593
0.275483
0.27308
0.269754
0.264296
0.319417
0.293827
0.285238
0.28287
0.281856
0.281345
0.28055
0.278772
0.274948
0.267211
0.256761
0.265536
0.271823
0.276385
0.28014
0.283429
0.28556
0.285576
0.281812
0.271473
0.228246
0.244858
0.256739
0.266544
0.275599
0.284031
0.290763
0.294188
0.291541
0.278573
0.211551
0.227578
0.241334
0.254855
0.269038
0.283542
0.296626
0.3056
0.305869
0.290883
0.198344
0.212579
0.226869
0.243017
0.261898
0.283038
0.304193
0.321382
0.327383
0.312293
0.188347
0.201
0.215343
0.233423
0.256522
0.28456
0.315378
0.343977
0.35999
0.3493
0.181965
0.193867
0.208566
0.228515
0.255649
0.290807
0.332839
0.37675
0.409334
0.412192
0.179221
0.191507
0.207412
0.229763
0.261281
0.304132
0.359238
0.423336
0.482212
0.515618
0.179457
0.193006
0.210846
0.236196
0.272674
0.324202
0.394787
0.484772
0.584168
0.687156
0.181118
0.195797
0.215052
0.242432
0.282499
0.341379
0.427674
0.549862
0.718016
0.997579
0.182651
0.196881
0.215059
0.240579
0.278242
0.3356
0.426902
0.579904
0.865522
1.48223
0.257064
0.265047
0.271693
0.276366
0.280133
0.283435
0.285564
0.28561
0.282002
0.271365
0.228691
0.244807
0.256691
0.266514
0.275579
0.284026
0.290757
0.294226
0.291802
0.278423
0.211821
0.227607
0.241316
0.254825
0.269006
0.28352
0.296599
0.305637
0.306213
0.290689
0.19844
0.212572
0.22683
0.24296
0.261834
0.282978
0.304124
0.321404
0.327805
0.312053
0.188378
0.200975
0.215283
0.233335
0.256415
0.284443
0.315242
0.343959
0.360445
0.349038
0.181971
0.193832
0.208493
0.228399
0.255491
0.290606
0.332591
0.376635
0.409717
0.412131
0.179232
0.191485
0.207345
0.229638
0.261078
0.30381
0.358783
0.42299
0.482221
0.516093
0.179498
0.193038
0.210864
0.23619
0.272611
0.323983
0.394377
0.48437
0.582918
0.68683
0.181186
0.195905
0.215229
0.242713
0.282916
0.341921
0.428392
0.550439
0.714792
0.995266
0.182707
0.19693
0.215089
0.240594
0.278265
0.335683
0.427269
0.580356
0.861855
1.49148
0.257064
0.265047
0.271693
0.276366
0.280133
0.283435
0.285564
0.28561
0.282002
0.271365
0.228691
0.244807
0.256691
0.266514
0.275579
0.284026
0.290757
0.294226
0.291802
0.278423
0.211821
0.227607
0.241316
0.254825
0.269006
0.28352
0.296599
0.305637
0.306213
0.290689
0.19844
0.212572
0.22683
0.24296
0.261834
0.282978
0.304124
0.321404
0.327805
0.312053
0.188378
0.200975
0.215283
0.233335
0.256415
0.284443
0.315242
0.343959
0.360445
0.349039
0.181971
0.193832
0.208493
0.228399
0.255491
0.290606
0.332591
0.376635
0.409717
0.412131
0.179232
0.191485
0.207345
0.229638
0.261078
0.30381
0.358783
0.42299
0.482221
0.516093
0.179498
0.193038
0.210864
0.23619
0.272611
0.323983
0.394377
0.48437
0.582918
0.68683
0.181186
0.195905
0.215229
0.242713
0.282916
0.341921
0.428392
0.550439
0.714792
0.995266
0.182707
0.19693
0.215089
0.240594
0.278265
0.335683
0.427269
0.580356
0.861855
1.49148
0.256761
0.265536
0.271823
0.276385
0.28014
0.283429
0.28556
0.285576
0.281812
0.271473
0.228246
0.244858
0.256739
0.266544
0.275599
0.284031
0.290763
0.294188
0.291541
0.278573
0.211551
0.227578
0.241334
0.254855
0.269038
0.283542
0.296626
0.3056
0.305869
0.290883
0.198344
0.212579
0.226869
0.243017
0.261898
0.283038
0.304193
0.321382
0.327383
0.312293
0.188347
0.201
0.215343
0.233423
0.256522
0.28456
0.315378
0.343977
0.35999
0.3493
0.181965
0.193867
0.208566
0.228515
0.255649
0.290807
0.332839
0.37675
0.409334
0.412192
0.179221
0.191507
0.207412
0.229763
0.261281
0.304132
0.359238
0.423336
0.482212
0.515618
0.179457
0.193006
0.210846
0.236196
0.272674
0.324202
0.394787
0.484772
0.584168
0.687156
0.181118
0.195797
0.215052
0.242432
0.282499
0.341379
0.427674
0.549862
0.718016
0.997579
0.182651
0.196881
0.215059
0.240579
0.278242
0.3356
0.426902
0.579904
0.865522
1.48223
-0.146669
-0.126304
-0.108845
-0.0925908
-0.0762245
-0.0595988
-0.0427401
-0.0257038
-0.00856141
0.00860961
0.0257286
0.0427212
0.059505
0.0760311
0.0923079
0.108498
0.125049
0.142936
0.165364
0.202576
-0.134188
-0.120663
-0.106248
-0.0910786
-0.0752349
-0.0589237
-0.0422762
-0.02539
-0.00835121
0.00876371
0.0258867
0.0429536
0.0599271
0.0767979
0.0936331
0.110634
0.128196
0.146948
0.168437
0.196441
-0.131704
-0.119487
-0.105687
-0.0907895
-0.0751027
-0.0588717
-0.042257
-0.0253745
-0.00831495
0.00884794
0.026053
0.0432494
0.060403
0.077505
0.0945952
0.111797
0.129341
0.147555
0.167075
0.188996
-0.133292
-0.120683
-0.106622
-0.0915284
-0.0756897
-0.0593255
-0.0425904
-0.025595
-0.00842138
0.00886748
0.0262203
0.0435931
0.0609465
0.0782476
0.0954755
0.11263
0.129735
0.146823
0.164008
0.181468
-0.13655
-0.123109
-0.108438
-0.0928821
-0.0766924
-0.0600571
-0.0431072
-0.0259333
-0.0085993
0.00884783
0.0263686
0.0439229
0.0614619
0.0789195
0.0962051
0.113198
0.12974
0.145642
0.160746
0.17501
-0.139744
-0.125483
-0.110185
-0.0941519
-0.0776049
-0.0607015
-0.0435467
-0.0262093
-0.00873469
0.00884409
0.0264961
0.0441814
0.0618382
0.0793682
0.0966226
0.113391
0.129403
0.144357
0.158024
0.170415
-0.141124
-0.126424
-0.110823
-0.0945776
-0.0778827
-0.0608744
-0.043642
-0.0262428
-0.00871353
0.00891758
0.0266203
0.0443493
0.0620295
0.0795393
0.0966951
0.113244
0.128878
0.143287
0.156284
0.168017
-0.139675
-0.12518
-0.109815
-0.0937887
-0.0772782
-0.0604153
-0.0432928
-0.0259734
-0.00850132
0.00908776
0.0267548
0.0444442
0.0620692
0.0794957
0.0965301
0.112918
0.128371
0.14263
0.155605
0.167579
-0.135353
-0.121877
-0.107359
-0.0919986
-0.0759915
-0.0594986
-0.042643
-0.0255146
-0.00818027
0.00930636
0.0268921
0.0445096
0.062064
0.0794194
0.0963879
0.112733
0.1282
0.142584
0.155864
0.168391
-0.127935
-0.116606
-0.103682
-0.0894732
-0.0742767
-0.0583445
-0.0418723
-0.0250054
-0.00784935
0.00951565
0.0270209
0.0445945
0.0621429
0.0795358
0.0965967
0.113102
0.128805
0.143493
0.157103
0.169892
-0.146926
-0.126158
-0.108826
-0.0926094
-0.076235
-0.0596053
-0.0427448
-0.0257068
-0.008563
0.0086093
0.0257291
0.0427219
0.0595049
0.0760285
0.0922985
0.108478
0.125026
0.142891
0.16503
0.201876
-0.134135
-0.120517
-0.106184
-0.0910461
-0.0752106
-0.0589065
-0.0422643
-0.0253819
-0.00834598
0.00876684
0.0258888
0.042956
0.0599319
0.0768081
0.0936516
0.110665
0.128257
0.147026
0.168344
0.196164
-0.131756
-0.119462
-0.105664
-0.0907715
-0.0750884
-0.0588615
-0.0422499
-0.0253696
-0.00831155
0.00885018
0.0260544
0.0432503
0.0604035
0.0775051
0.0945936
0.111792
0.129335
0.147539
0.166981
0.188898
-0.133324
-0.120676
-0.106609