/*--------------------------------*- C++ -*----------------------------------*\
| =========                 |                                                 |
| \\      /  F ield         | OpenFOAM: The Open Source CFD Toolbox           |
|  \\    /   O peration     | Version:  2.4.0                                 |
|   \\  /    A nd           | Web:      www.OpenFOAM.org                      |
|    \\/     M anipulation  |                                                 |
\*---------------------------------------------------------------------------*/
FoamFile
{
    version     2.0;
    format      ascii;
    class       surfaceScalarField;
    location    "0.9";
    object      phi;
}
// * * * * * * * * * * * * * * * * * * * * * * * * * * * * * * * * * * * * * //

dimensions      [0 3 -1 0 0 0 0];

internalField   nonuniform List<scalar> 
12720
(
4.66184e-08
-4.60968e-08
1.49574e-10
-6.33664e-07
6.78809e-07
1.47268e-09
-2.00098e-06
1.36509e-06
2.21938e-09
-3.82949e-06
1.82566e-06
2.85148e-09
-5.92222e-06
2.08954e-06
3.18957e-09
-8.12277e-06
2.19724e-06
3.31089e-09
-1.03031e-05
2.17707e-06
3.2955e-09
-1.23513e-05
2.04502e-06
3.14123e-09
-1.41683e-05
1.81416e-06
2.82654e-09
1.50753e-06
2.33462e-09
-1.56782e-05
-7.01109e-07
6.56183e-07
-1.16987e-09
-2.98059e-06
2.95801e-06
2.8471e-10
-6.56794e-06
4.95389e-06
-1.44437e-09
-1.10975e-05
6.35739e-06
-2.12489e-09
-1.62043e-05
7.19875e-06
-2.44102e-09
-2.15564e-05
7.55201e-06
-2.64329e-09
-2.68549e-05
7.47814e-06
-2.63445e-09
-3.18275e-05
7.02007e-06
-2.44611e-09
-3.6236e-05
6.22487e-06
-2.14958e-09
5.17697e-06
-1.85905e-09
-3.99036e-05
-1.47045e-06
2.12876e-06
-2.13139e-09
-5.19615e-06
6.68179e-06
1.92393e-09
-1.06254e-05
1.0383e-05
6.45903e-11
-1.72606e-05
1.29927e-05
-8.91488e-11
-2.46364e-05
1.45744e-05
1.0496e-10
-3.23191e-05
1.52346e-05
1.05763e-10
-3.98987e-05
1.50577e-05
1.16242e-10
-4.69861e-05
1.41072e-05
1.58611e-10
-5.32296e-05
1.24682e-05
2.02734e-10
1.03103e-05
1.10454e-10
-5.8363e-05
-2.05034e-06
4.18212e-06
-3.02361e-09
-6.92467e-06
1.15535e-05
2.5946e-09
-1.37931e-05
1.72514e-05
1.13101e-11
-2.20292e-05
2.1229e-05
-1.78501e-10
-3.10936e-05
2.36386e-05
1.43794e-10
-4.04886e-05
2.46294e-05
1.91401e-10
-4.97284e-05
2.42973e-05
2.28978e-10
-5.8328e-05
2.27065e-05
3.08851e-10
-6.5824e-05
1.99638e-05
4.52987e-10
1.63293e-05
3.80889e-10
-7.18434e-05
-2.42835e-06
6.61404e-06
-3.57128e-09
-8.08841e-06
1.72106e-05
2.9585e-09
-1.59496e-05
2.5113e-05
-3.05873e-10
-2.52871e-05
3.05672e-05
-6.60745e-10
-3.55117e-05
3.38635e-05
-3.41358e-10
-4.60877e-05
3.52057e-05
-3.01573e-10
-5.64767e-05
3.46866e-05
-2.43843e-10
-6.61074e-05
3.23373e-05
-8.77795e-11
-7.43867e-05
2.82428e-05
3.58129e-10
2.2724e-05
5.53324e-10
-8.0782e-05
-2.61058e-06
9.22843e-06
-3.80159e-09
-8.66949e-06
2.32663e-05
3.21631e-09
-1.70464e-05
3.34903e-05
-3.84169e-10
-2.69662e-05
4.04878e-05
-8.22407e-10
-3.78198e-05
4.47176e-05
-5.14538e-10
-4.90598e-05
4.64463e-05
-4.92562e-10
-6.01193e-05
4.57465e-05
-4.63665e-10
-7.03526e-05
4.2571e-05
-3.38938e-10
-7.90129e-05
3.69025e-05
5.5967e-10
2.90175e-05
1.40675e-09
-8.53077e-05
-2.60513e-06
1.18373e-05
-3.76903e-09
-8.67097e-06
2.93289e-05
3.25269e-09
-1.70662e-05
4.18859e-05
-4.04726e-10
-2.70162e-05
5.04387e-05
-8.93409e-10
-3.79221e-05
5.56242e-05
-6.38722e-10
-4.92529e-05
5.77777e-05
-6.57021e-10
-6.04463e-05
5.69407e-05
-7.26046e-10
-7.0815e-05
5.29405e-05
-8.88346e-10
-7.94549e-05
4.55416e-05
7.21673e-10
3.47259e-05
3.44988e-09
-8.51667e-05
-2.42323e-06
1.4264e-05
-3.47362e-09
-8.11572e-06
3.50183e-05
3.08849e-09
-1.60275e-05
4.9798e-05
-3.74254e-10
-2.54229e-05
5.9835e-05
-8.79858e-10
-3.57315e-05
6.59336e-05
-7.00373e-10
-4.64563e-05
6.85031e-05
-7.17456e-10
-5.70758e-05
6.7561e-05
-8.01887e-10
-6.69226e-05
6.27889e-05
-1.44718e-09
-7.50042e-05
5.36212e-05
1.99298e-09
3.92563e-05
1.2194e-08
-7.95468e-05
-2.08703e-06
1.6354e-05
-2.92706e-09
-7.06593e-06
3.99944e-05
2.78227e-09
-1.40241e-05
5.67564e-05
-2.68533e-10
-2.22797e-05
6.80913e-05
-7.66397e-10
-3.12798e-05
7.49345e-05
-7.33617e-10
-4.0542e-05
7.77662e-05
-8.69446e-10
-4.95843e-05
7.66045e-05
-1.24238e-09
-5.78094e-05
7.10181e-05
-4.07053e-09
-6.43263e-05
6.0139e-05
-9.81131e-10
4.16876e-05
2.73612e-08
-6.6785e-05
-1.63912e-06
-2.17529e-09
1.79953e-05
-5.6497e-06
2.41314e-09
4.40026e-05
-1.12824e-05
-4.20009e-11
6.23891e-05
-1.78978e-05
-4.4911e-10
7.47072e-05
-2.49113e-05
-5.44321e-10
8.19485e-05
-3.17587e-05
-9.45655e-10
8.46146e-05
-3.78557e-05
-2.13477e-09
8.27036e-05
-4.24838e-05
-1.0954e-08
7.56572e-05
-4.46604e-05
-2.47067e-08
6.23402e-05
6.47816e-09
-4.31132e-05
4.0134e-05
4.93039e-08
-4.9173e-08
1.88634e-11
-6.33777e-07
6.84542e-07
1.16867e-11
-2.00153e-06
1.36997e-06
7.27949e-12
-3.82958e-06
1.83089e-06
4.58981e-12
-5.92209e-06
2.0957e-06
3.51304e-12
-8.12264e-06
2.20386e-06
2.74088e-12
-1.03031e-05
2.18373e-06
2.1274e-12
-1.23514e-05
2.05142e-06
1.69805e-12
-1.41685e-05
1.82e-06
1.44468e-12
1.51237e-06
1.39477e-12
-1.56786e-05
-7.06577e-07
6.56223e-07
1.19361e-11
-2.98514e-06
2.96338e-06
9.03333e-12
-6.57183e-06
4.95521e-06
7.01297e-12
-1.11002e-05
6.35713e-06
5.0112e-12
-1.62055e-05
7.19855e-06
3.63287e-12
-2.15563e-05
7.55205e-06
2.97002e-12
-2.68538e-05
7.47851e-06
2.42095e-12
-3.18256e-05
7.02086e-06
2.11257e-12
-3.62339e-05
6.22611e-06
1.68143e-12
5.17807e-06
1.4725e-12
-3.99015e-05
-1.47545e-06
2.12953e-06
7.62006e-12
-5.19698e-06
6.68683e-06
6.55828e-12
-1.06261e-05
1.03843e-05
5.60556e-12
-1.72614e-05
1.29924e-05
4.56327e-12
-2.46368e-05
1.4574e-05
3.40998e-12
-3.2319e-05
1.52344e-05
3.02419e-12
-3.98983e-05
1.50579e-05
2.43832e-12
-4.69854e-05
1.41081e-05
1.98326e-12
-5.32291e-05
1.247e-05
1.81088e-12
1.03119e-05
1.58887e-12
-5.83628e-05
-2.05604e-06
4.18254e-06
5.35859e-12
-6.92389e-06
1.15573e-05
4.99447e-12
-1.37922e-05
1.72527e-05
4.28098e-12
-2.20291e-05
2.12291e-05
3.85906e-12
-3.10935e-05
2.36385e-05
3.31243e-12
-4.04883e-05
2.46294e-05
2.71141e-12
-4.9728e-05
2.42978e-05
2.4078e-12
-5.83276e-05
2.2708e-05
2.11764e-12
-6.58242e-05
1.9967e-05
1.75537e-12
1.63325e-05
1.39164e-12
-7.18444e-05
-2.43521e-06
6.61417e-06
3.66292e-12
-8.08748e-06
1.72125e-05
4.07531e-12
-1.59485e-05
2.51134e-05
3.76828e-12
-2.52868e-05
3.05667e-05
3.32783e-12
-3.55116e-05
3.38629e-05
3.03602e-12
-4.60876e-05
3.52052e-05
2.71535e-12
-5.64764e-05
3.46863e-05
2.39694e-12
-6.61067e-05
3.23382e-05
2.03109e-12
-7.43868e-05
2.82475e-05
1.75481e-12
2.27301e-05
1.46358e-12
-8.07839e-05
-2.61802e-06
9.22838e-06
2.87952e-12
-8.66859e-06
2.32663e-05
3.184e-12
-1.70454e-05
3.34897e-05
3.05939e-12
-2.69662e-05
4.04868e-05
3.0791e-12
-3.78201e-05
4.47163e-05
2.74049e-12
-4.90602e-05
4.64448e-05
2.48723e-12
-6.01194e-05
4.5745e-05
2.27241e-12
-7.03519e-05
4.25704e-05
2.02156e-12
-7.90128e-05
3.6909e-05
1.73937e-12
2.90301e-05
1.33509e-12
-8.53114e-05
-2.61256e-06
1.18372e-05
2.45621e-12
-8.67019e-06
2.93272e-05
2.73276e-12
-1.70654e-05
4.18846e-05
2.7602e-12
-2.70167e-05
5.04372e-05
2.65832e-12
-3.79233e-05
5.56222e-05
2.4299e-12
-4.92544e-05
5.77752e-05
2.28664e-12
-6.04476e-05
5.69375e-05
2.11812e-12
-7.08144e-05
5.29363e-05
1.88127e-12
-7.94538e-05
4.55491e-05
1.6064e-12
3.47538e-05
1.26805e-12
-8.5174e-05
-2.43013e-06
1.42638e-05
2.20179e-12
-8.11511e-06
3.50152e-05
2.36451e-12
-1.60271e-05
4.97962e-05
2.43745e-12
-2.54241e-05
5.98333e-05
2.2652e-12
-3.57338e-05
6.59312e-05
2.19909e-12
-4.64593e-05
6.85e-05
2.07166e-12
-5.70787e-05
6.75561e-05
1.82485e-12
-6.69215e-05
6.27777e-05
1.59209e-12
-7.49931e-05
5.36226e-05
1.34203e-12
3.93279e-05
1.01671e-12
-7.9555e-05
-2.0929e-06
1.63538e-05
2.04622e-12
-7.06542e-06
3.99905e-05
2.21174e-12
-1.40241e-05
5.67545e-05
2.06151e-12
-2.22816e-05
6.80901e-05
2.07327e-12
-3.1284e-05
7.49329e-05
1.99042e-12
-4.05492e-05
7.77643e-05
1.82114e-12
-4.95961e-05
7.66017e-05
1.56539e-12
-5.78247e-05
7.10022e-05
1.49113e-12
-6.43043e-05
6.01013e-05
1.33581e-12
4.17909e-05
9.21962e-13
-6.67399e-05
-1.64349e-06
1.7263e-12
1.79951e-05
-5.64892e-06
1.92239e-12
4.39984e-05
-1.12818e-05
1.80429e-12
6.23874e-05
-1.7899e-05
1.8803e-12
7.47068e-05
-2.49158e-05
1.70851e-12
8.19491e-05
-3.17693e-05
1.56798e-12
8.4617e-05
-3.78811e-05
1.49093e-12
8.27113e-05
-4.25594e-05
1.57499e-12
7.56696e-05
-4.4779e-05
1.63269e-12
6.22962e-05
1.28274e-12
-4.29173e-05
3.99357e-05
4.92739e-08
-4.92028e-08
-5.20781e-11
-6.33804e-07
6.84518e-07
-1.42811e-09
-2.00155e-06
1.36996e-06
-2.20063e-09
-3.82959e-06
1.83089e-06
-2.84176e-09
-5.9221e-06
2.0957e-06
-3.18387e-09
-8.12264e-06
2.20385e-06
-3.3071e-09
-1.03031e-05
2.18373e-06
-3.29248e-09
-1.23514e-05
2.05142e-06
-3.13879e-09
-1.41685e-05
1.82e-06
-2.8245e-09
1.51237e-06
-2.3331e-09
-1.56786e-05
-7.066e-07
6.56196e-07
1.21428e-09
-2.98517e-06
2.96335e-06
-2.59967e-10
-6.57185e-06
4.95519e-06
1.45897e-09
-1.11002e-05
6.35712e-06
2.13416e-09
-1.62055e-05
7.19855e-06
2.44749e-09
-2.15563e-05
7.55205e-06
2.64792e-09
-2.68538e-05
7.4785e-06
2.63806e-09
-3.18256e-05
7.02086e-06
2.44894e-09
-3.62339e-05
6.22611e-06
2.152e-09
5.17807e-06
1.86103e-09
-3.99015e-05
-1.47546e-06
2.12951e-06
2.15094e-09
-5.197e-06
6.68681e-06
-1.90902e-09
-1.06261e-05
1.03843e-05
-5.37653e-11
-1.72614e-05
1.29924e-05
9.69276e-11
-2.46368e-05
1.4574e-05
-9.90549e-11
-3.2319e-05
1.52344e-05
-1.01327e-10
-3.98982e-05
1.50579e-05
-1.12577e-10
-4.69854e-05
1.41081e-05
-1.55594e-10
-5.32291e-05
1.247e-05
-2.00344e-10
1.03119e-05
-1.08386e-10
-5.83628e-05
-2.05604e-06
4.18253e-06
3.03404e-09
-6.9239e-06
1.15573e-05
-2.58494e-09
-1.37922e-05
1.72526e-05
-3.2995e-12
-2.20291e-05
2.1229e-05
1.84825e-10
-3.10935e-05
2.36385e-05
-1.38657e-10
-4.04883e-05
2.46294e-05
-1.87081e-10
-4.9728e-05
2.42978e-05
-2.25522e-10
-5.83276e-05
2.2708e-05
-3.05949e-10
-6.58241e-05
1.9967e-05
-4.50421e-10
1.63325e-05
-3.78709e-10
-7.18443e-05
-2.43521e-06
6.61416e-06
3.57834e-09
-8.08748e-06
1.72125e-05
-2.95193e-09
-1.59485e-05
2.51133e-05
3.11843e-10
-2.52868e-05
3.05667e-05
6.65937e-10
-3.55115e-05
3.38629e-05
3.45785e-10
-4.60876e-05
3.52051e-05
3.05366e-10
-5.64763e-05
3.46863e-05
2.47196e-10
-6.61067e-05
3.23382e-05
9.06856e-11
-7.43868e-05
2.82475e-05
-3.55698e-10
2.27301e-05
-5.51268e-10
-8.07839e-05
-2.61802e-06
9.22838e-06
3.80697e-09
-8.66859e-06
2.32663e-05
-3.21114e-09
-1.70454e-05
3.34897e-05
3.89031e-10
-2.69662e-05
4.04868e-05
8.26655e-10
-3.78201e-05
4.47163e-05
5.18465e-10
-4.90602e-05
4.64448e-05
4.96076e-10
-6.01194e-05
4.5745e-05
4.66788e-10
-7.03518e-05
4.25704e-05
3.41628e-10
-7.90128e-05
3.6909e-05
-5.57336e-10
2.90301e-05
-1.40473e-09
-8.53113e-05
-2.61256e-06
1.18372e-05
3.77332e-09
-8.67018e-06
2.93271e-05
-3.24847e-09
-1.70654e-05
4.18845e-05
4.08717e-10
-2.70167e-05
5.04372e-05
8.97195e-10
-3.79233e-05
5.56222e-05
6.42139e-10
-4.92544e-05
5.77752e-05
6.60162e-10
-6.04476e-05
5.69374e-05
7.28902e-10
-7.08144e-05
5.29363e-05
8.90893e-10
-7.94537e-05
4.55491e-05
-7.19472e-10
3.47538e-05
-3.44806e-09
-8.5174e-05
-2.43013e-06
1.42638e-05
3.47729e-09
-8.1151e-06
3.50152e-05
-3.08483e-09
-1.60271e-05
4.97961e-05
3.77725e-10
-2.54241e-05
5.98333e-05
8.83186e-10
-3.57338e-05
6.59312e-05
7.03395e-10
-4.64593e-05
6.85e-05
7.20305e-10
-5.70787e-05
6.7556e-05
8.04539e-10
-6.69215e-05
6.27777e-05
1.4496e-09
-7.49931e-05
5.36226e-05
-1.99086e-09
3.93279e-05
-1.21922e-08
-7.9555e-05
-2.0929e-06
1.63538e-05
2.93019e-09
-7.06542e-06
3.99905e-05
-2.77915e-09
-1.40241e-05
5.67545e-05
2.71666e-10
-2.22816e-05
6.80901e-05
7.69251e-10
-3.1284e-05
7.49329e-05
7.36286e-10
-4.05492e-05
7.77643e-05
8.71935e-10
-4.95961e-05
7.66017e-05
1.24478e-09
-5.78247e-05
7.10022e-05
4.07272e-09
-6.43043e-05
6.01013e-05
9.83061e-10
4.17909e-05
-2.73595e-08
-6.67399e-05
-1.64349e-06
2.1781e-09
1.79951e-05
-5.64892e-06
-2.41038e-09
4.39984e-05
-1.12818e-05
4.47109e-11
6.23874e-05
-1.7899e-05
4.51636e-10
7.47068e-05
-2.49158e-05
5.46688e-10
8.19491e-05
-3.17693e-05
9.47897e-10
8.4617e-05
-3.78811e-05
2.13689e-09
8.27112e-05
-4.25594e-05
1.09559e-08
7.56696e-05
-4.4779e-05
2.47084e-08
6.22962e-05
-6.47655e-09
-4.29173e-05
3.99357e-05
4.63314e-08
-4.63834e-08
-6.33797e-07
6.78699e-07
-2.00104e-06
1.36505e-06
-3.82952e-06
1.82564e-06
-5.92223e-06
2.08953e-06
-8.12278e-06
2.19724e-06
-1.03031e-05
2.17707e-06
-1.23513e-05
2.04502e-06
-1.41683e-05
1.81416e-06
1.50753e-06
-1.56782e-05
-7.01218e-07
6.56051e-07
-2.98069e-06
2.95791e-06
-6.56801e-06
4.95382e-06
-1.10976e-05
6.35735e-06
-1.62043e-05
7.19872e-06
-2.15564e-05
7.55199e-06
-2.68549e-05
7.47813e-06
-3.18275e-05
7.02006e-06
-3.6236e-05
6.22487e-06
5.17697e-06
-3.99036e-05
-1.4705e-06
2.1287e-06
-5.1962e-06
6.68171e-06
-1.06254e-05
1.0383e-05
-1.72606e-05
1.29927e-05
-2.46364e-05
1.45744e-05
-3.23191e-05
1.52346e-05
-3.98987e-05
1.50577e-05
-4.69861e-05
1.41072e-05
-5.32296e-05
1.24682e-05
1.03103e-05
-5.8363e-05
-2.05036e-06
4.18209e-06
-6.92469e-06
1.15535e-05
-1.37931e-05
1.72514e-05
-2.20292e-05
2.1229e-05
-3.10936e-05
2.36386e-05
-4.04885e-05
2.46293e-05
-4.97283e-05
2.42973e-05
-5.8328e-05
2.27065e-05
-6.5824e-05
1.99637e-05
1.63293e-05
-7.18434e-05
-2.42835e-06
6.61402e-06
-8.08842e-06
1.72106e-05
-1.59496e-05
2.51129e-05
-2.52871e-05
3.05671e-05
-3.55116e-05
3.38635e-05
-4.60877e-05
3.52057e-05
-5.64767e-05
3.46865e-05
-6.61073e-05
3.23373e-05
-7.43867e-05
2.82427e-05
2.2724e-05
-8.0782e-05
-2.61058e-06
9.2284e-06
-8.66949e-06
2.32663e-05
-1.70464e-05
3.34902e-05
-2.69662e-05
4.04877e-05
-3.78198e-05
4.47176e-05
-4.90598e-05
4.64462e-05
-6.01193e-05
4.57465e-05
-7.03526e-05
4.2571e-05
-7.90129e-05
3.69024e-05
2.90175e-05
-8.53077e-05
-2.60513e-06
1.18373e-05
-8.67096e-06
2.93289e-05
-1.70662e-05
4.18858e-05
-2.70162e-05
5.04386e-05
-3.79221e-05
5.56242e-05
-4.92529e-05
5.77776e-05
-6.04463e-05
5.69406e-05
-7.0815e-05
5.29405e-05
-7.94549e-05
4.55416e-05
3.47259e-05
-8.51667e-05
-2.42323e-06
1.4264e-05
-8.11572e-06
3.50183e-05
-1.60274e-05
4.97979e-05
-2.54229e-05
5.98349e-05
-3.57315e-05
6.59335e-05
-4.64563e-05
6.85031e-05
-5.70757e-05
6.75609e-05
-6.69226e-05
6.27888e-05
-7.50042e-05
5.36212e-05
3.92563e-05
-7.95468e-05
-2.08703e-06
1.6354e-05
-7.06593e-06
3.99944e-05
-1.40241e-05
5.67564e-05
-2.22796e-05
6.80913e-05
-3.12798e-05
7.49344e-05
-4.0542e-05
7.77662e-05
-4.95843e-05
7.66044e-05
-5.78094e-05
7.1018e-05
-6.43263e-05
6.0139e-05
4.16876e-05
-6.6785e-05
-1.63911e-06
1.79953e-05
-5.6497e-06
4.40026e-05
-1.12824e-05
6.23891e-05
-1.78978e-05
7.47071e-05
-2.49113e-05
8.19485e-05
-3.17587e-05
8.46145e-05
-3.78557e-05
8.27035e-05
-4.24838e-05
7.56572e-05
-4.46604e-05
6.23402e-05
-4.31132e-05
4.0134e-05
-1.68473e-05
1.16737e-06
1.72555e-09
-1.76951e-05
8.4665e-07
1.17978e-09
-1.82763e-05
5.80428e-07
7.58535e-10
-1.86571e-05
3.80372e-07
4.60092e-10
-1.88997e-05
2.42298e-07
2.66485e-10
-1.90546e-05
1.54753e-07
1.51796e-10
-1.91599e-05
1.05194e-07
9.16904e-11
-1.9243e-05
8.3114e-08
6.84317e-11
-1.93239e-05
8.07964e-08
7.05032e-11
-1.94167e-05
9.27397e-08
9.0389e-11
-1.95313e-05
1.14418e-07
1.2329e-10
-1.96722e-05
1.40736e-07
1.6545e-10
-1.98367e-05
1.64306e-07
2.109e-10
-2.00107e-05
1.73729e-07
2.48534e-10
-2.01632e-05
1.52287e-07
2.59271e-10
-2.02416e-05
7.81829e-08
2.17804e-10
-2.01663e-05
-7.54252e-08
9.21805e-11
-1.98374e-05
-3.28706e-07
-1.80755e-10
-1.91448e-05
-6.91966e-07
-6.46141e-10
-1.14698e-06
-1.33473e-09
-1.79965e-05
-4.27564e-05
4.02178e-06
-1.64546e-09
-4.48444e-05
2.93605e-06
-1.36565e-09
-4.62969e-05
2.03396e-06
-1.06516e-09
-4.7268e-05
1.35225e-06
-7.96026e-10
-4.79016e-05
8.76473e-07
-5.75761e-10
-4.83154e-05
5.68992e-07
-4.11726e-10
-4.85985e-05
3.88565e-07
-3.02051e-10
-4.88151e-05
3.00042e-07
-2.38366e-10
-4.90108e-05
2.76711e-07
-2.10348e-10
-4.92164e-05
2.98536e-07
-2.07523e-10
-4.94502e-05
3.48363e-07
-2.18327e-10
-4.97164e-05
4.07188e-07
-2.28216e-10
-5.00009e-05
4.49008e-07
-2.18811e-10
-5.02629e-05
4.35915e-07
-1.65998e-10
-5.04252e-05
3.14657e-07
-3.98544e-11
-5.03642e-05
1.6999e-08
1.86884e-10
-4.99073e-05
-5.32845e-07
5.30226e-10
-4.88388e-05
-1.39827e-06
9.97024e-10
-4.69323e-05
-2.60002e-06
1.54733e-09
-4.07559e-06
2.05239e-09
-4.40057e-05
-6.22821e-05
7.94109e-06
-2.27854e-10
-6.50909e-05
5.7452e-06
-3.67996e-10
-6.70071e-05
3.95054e-06
-3.86687e-10
-6.8268e-05
2.61349e-06
-3.56968e-10
-6.90808e-05
1.6896e-06
-2.97765e-10
-6.96064e-05
1.09487e-06
-2.3213e-10
-6.99614e-05
7.43728e-07
-1.74456e-10
-7.0227e-05
5.65745e-07
-1.29527e-10
-7.04584e-05
5.08256e-07
-9.72068e-11
-7.06918e-05
5.31958e-07
-7.44981e-11
-7.09467e-05
6.03367e-07
-5.70908e-11
-7.12255e-05
6.85942e-07
-4.00553e-11
-7.15071e-05
7.30652e-07
-1.78212e-11
-7.17381e-05
6.66899e-07
1.65971e-11
-7.18193e-05
3.95784e-07
7.09747e-11
-7.15922e-05
-2.10212e-07
1.47937e-10
-7.08307e-05
-1.29465e-06
2.4232e-10
-6.92462e-05
-2.98303e-06
3.52232e-10
-6.6523e-05
-5.32369e-06
4.54733e-10
-8.20573e-06
3.75393e-10
-6.23933e-05
-7.62452e-05
1.23431e-05
-3.14702e-10
-7.92381e-05
8.73864e-06
-4.99513e-10
-8.11732e-05
5.88613e-06
-4.8006e-10
-8.23839e-05
3.82459e-06
-4.19646e-10
-8.313e-05
2.43602e-06
-3.29814e-10
-8.35939e-05
1.55901e-06
-2.41296e-10
-8.38965e-05
1.04651e-06
-1.69801e-10
-8.41159e-05
7.85313e-07
-1.16636e-10
-8.43022e-05
6.94642e-07
-7.90054e-11
-8.44866e-05
7.16342e-07
-5.32498e-11
-8.46855e-05
8.0233e-07
-3.54714e-11
-8.49006e-05
9.01099e-07
-2.16652e-11
-8.51136e-05
9.43673e-07
-7.93627e-12
-8.52763e-05
8.29511e-07
1.09279e-11
-8.52949e-05
4.14389e-07
4.36541e-11
-8.50107e-05
-4.94501e-07
9.85106e-11
-8.4179e-05
-2.12657e-06
1.75605e-10
-8.24594e-05
-4.70293e-06
2.90192e-10
-7.94373e-05
-8.3462e-06
4.78298e-10
-1.29321e-05
4.05581e-10
-7.47114e-05
-8.50777e-05
1.66396e-05
-8.58947e-10
-8.76907e-05
1.13526e-05
-9.35766e-10
-8.91853e-05
7.3814e-06
-7.26977e-10
-9.00084e-05
4.64827e-06
-5.59508e-10
-9.04549e-05
2.88292e-06
-3.88685e-10
-9.07004e-05
1.8048e-06
-2.51496e-10
-9.08438e-05
1.19006e-06
-1.58481e-10
-9.09396e-05
8.81179e-07
-9.92966e-11
-9.10183e-05
7.73352e-07
-6.364e-11
-9.10974e-05
7.95566e-07
-4.37367e-11
-9.11871e-05
8.92041e-07
-3.42094e-11
-9.12905e-05
1.00448e-06
-3.12366e-11
-9.14007e-05
1.05399e-06
-3.12561e-11
-9.1493e-05
9.2178e-07
-2.82999e-11
-9.15078e-05
4.29199e-07
-7.70254e-12
-9.13242e-05
-6.78125e-07
4.96298e-11
-9.07201e-05
-2.7308e-06
1.42967e-10
-8.93287e-05
-6.09463e-06
3.19683e-10
-8.66165e-05
-1.10592e-05
8.15506e-10
-1.75979e-05
1.06537e-09
-8.19518e-05
-8.88344e-05
2.01682e-05
-1.91739e-09
-9.04448e-05
1.29646e-05
-1.55088e-09
-9.10406e-05
7.97803e-06
-9.14635e-10
-9.11808e-05
4.78915e-06
-6.05229e-10
-9.1151e-05
2.85344e-06
-3.52472e-10
-9.10756e-05
1.72958e-06
-1.82785e-10
-9.09992e-05
1.11372e-06
-8.96725e-11
-9.09323e-05
8.14346e-07
-4.1116e-11
-9.0874e-05
7.15028e-07
-1.73103e-11
-9.08215e-05
7.43137e-07
-7.75651e-12
-9.07752e-05
8.45695e-07
-7.18644e-12
-9.07399e-05
9.69216e-07
-1.33698e-11
-9.07257e-05
1.03977e-06
-2.52938e-11
-9.07438e-05
9.39994e-07
-4.05037e-11
-9.07952e-05
4.80628e-07
-4.18501e-11
-9.08404e-05
-6.3292e-07
2.49013e-12
-9.07407e-05
-2.83063e-06
6.53522e-11
-9.01622e-05
-6.67332e-06
2.41709e-10
-8.84568e-05
-1.2766e-05
1.35199e-09
-2.14413e-05
2.61109e-09
-8.46161e-05
-8.70753e-05
2.2082e-05
-5.1951e-09
-8.69843e-05
1.28768e-05
-3.2493e-09
-8.62806e-05
7.2758e-06
-1.41232e-09
-8.5557e-05
4.06632e-06
-7.33946e-10
-8.49892e-05
2.28589e-06
-3.10432e-10
-8.45845e-05
1.32503e-06
-9.32344e-11
-8.42994e-05
8.28629e-07
-1.00519e-11
-8.40856e-05
6.00509e-07
1.72858e-11
-8.39047e-05
5.34107e-07
2.18028e-11
-8.37312e-05
5.69654e-07
1.60979e-11
-8.35534e-05
6.67831e-07
4.50397e-12
-8.33751e-05
7.90924e-07
-1.25854e-11
-8.32203e-05
8.85024e-07
-3.61752e-11
-8.3138e-05
8.57768e-07
-6.67548e-11
-8.32026e-05
5.45344e-07
-7.79217e-11
-8.34965e-05
-3.39063e-07
1.30894e-11
-8.40485e-05
-2.27876e-06
1.63536e-10
-8.46873e-05
-6.03506e-06
5.02978e-10
-8.47548e-05
-1.27016e-05
3.12019e-09
-2.35004e-05
7.12382e-09
-8.27028e-05
-7.8587e-05
2.11311e-05
-8.92215e-09
-7.60995e-05
1.03927e-05
-3.39421e-09
-7.39316e-05
5.10848e-06
-6.04149e-10
-7.24183e-05
2.55334e-06
-2.58057e-10
-7.14472e-05
1.31469e-06
1.80206e-11
-7.0838e-05
7.15693e-07
1.20345e-10
-7.04425e-05
4.33022e-07
1.11862e-10
-7.01572e-05
3.15201e-07
8.97428e-11
-6.99144e-05
2.91206e-07
7.31699e-11
-6.96714e-05
3.26548e-07
6.19702e-11
-6.94054e-05
4.01809e-07
5.30419e-11
-6.91145e-05
4.99954e-07
4.13689e-11
-6.88247e-05
5.95181e-07
1.88821e-11
-6.86046e-05
6.37704e-07
-3.29215e-11
-6.85857e-05
5.26619e-07
-9.96975e-11
-6.89784e-05
5.36501e-08
-1.35359e-11
-7.00521e-05
-1.20516e-06
7.52083e-11
-7.20141e-05
-4.0728e-06
-3.23642e-10
-7.45563e-05
-1.01622e-05
2.85438e-09
-2.24146e-05
1.15732e-08
-7.56537e-05
-6.07037e-05
1.50611e-05
-1.13297e-08
-5.56079e-05
5.29207e-06
4.83949e-09
-5.25153e-05
2.01066e-06
5.22818e-09
-5.0779e-05
8.1497e-07
2.09742e-09
-4.98193e-05
3.53904e-07
1.03658e-09
-4.92761e-05
1.71872e-07
6.01585e-10
-4.89442e-05
1.00797e-07
3.45391e-10
-4.87075e-05
7.82955e-08
2.34935e-10
-4.84979e-05
8.13945e-08
2.10358e-10
-4.82733e-05
1.01649e-07
2.30923e-10
-4.80076e-05
1.35912e-07
2.77051e-10
-4.76903e-05
1.82283e-07
3.33205e-10
-4.73325e-05
2.37049e-07
3.71971e-10
-4.6985e-05
2.89892e-07
3.20948e-10
-4.67717e-05
3.13197e-07
8.11831e-11
-4.69522e-05
2.34504e-07
-3.15552e-10
-4.79753e-05
-1.80638e-07
-1.46675e-09
-5.06134e-05
-1.42845e-06
-6.24807e-09
-5.57066e-05
-5.06112e-06
-7.89923e-09
-1.58003e-05
1.33294e-08
-6.23342e-05
-2.7992e-05
-6.01181e-08
-2.26908e-05
-9.08885e-09
-2.06798e-05
-3.69795e-10
-1.98633e-05
-1.49532e-09
-1.95085e-05
-9.45796e-10
-1.93362e-05
-4.08404e-10
-1.92352e-05
-2.11937e-10
-1.91567e-05
-1.3606e-10
-1.90752e-05
-1.07967e-10
-1.89735e-05
-1.10546e-10
-1.88374e-05
-1.33233e-10
-1.8655e-05
-1.66023e-10
-1.84177e-05
-1.94644e-10
-1.81277e-05
-1.93937e-10
-1.78144e-05
-6.95053e-11
-1.75803e-05
4.38717e-10
-1.77618e-05
8.38021e-10
-1.91884e-05
-1.80792e-09
-2.42544e-05
4.83203e-09
7.20662e-08
-4.01268e-05
-1.68476e-05
1.1708e-06
1.25429e-12
-1.76954e-05
8.48921e-07
1.01093e-12
-1.82765e-05
5.81864e-07
8.92651e-13
-1.86573e-05
3.81225e-07
7.88231e-13
-1.88998e-05
2.42782e-07
4.9269e-13
-1.90546e-05
1.55026e-07
7.72934e-14
-1.91599e-05
1.05366e-07
-9.55901e-15
-1.92431e-05
8.32572e-08
2.54248e-13
-1.9324e-05
8.09574e-08
2.94515e-13
-1.94169e-05
9.29493e-08
6.33587e-14
-1.95314e-05
1.14698e-07
5.99345e-14
-1.96724e-05
1.41096e-07
1.66793e-13
-1.98369e-05
1.6474e-07
1.35474e-13
-2.00108e-05
1.74208e-07
9.68059e-14
-2.01633e-05
1.52748e-07
7.01735e-14
-2.02416e-05
7.84325e-08
7.7875e-14
-2.01661e-05
-7.53318e-08
1.37607e-13
-1.98371e-05
-3.29178e-07
2.37947e-13
-1.91445e-05
-6.93242e-07
3.36954e-13
-1.14955e-06
3.44877e-13
-1.79963e-05
-4.27541e-05
4.02177e-06
1.36703e-12
-4.48421e-05
2.9356e-06
1.11687e-12
-4.62948e-05
2.03351e-06
8.75202e-13
-4.72663e-05
1.35189e-06
6.96705e-13
-4.79003e-05
8.76232e-07
5.70155e-13
-4.83146e-05
5.68847e-07
3.96145e-13
-4.8598e-05
3.88483e-07
1.72283e-13
-4.8815e-05
2.99991e-07
8.7437e-14
-4.90109e-05
2.76663e-07
7.055e-14
-4.92166e-05
2.98468e-07
7.24811e-14
-4.94504e-05
3.48253e-07
2.01279e-13
-4.97165e-05
4.07013e-07
2.5217e-13
-5.00008e-05
4.48756e-07
2.09113e-13
-5.02623e-05
4.35594e-07
1.68348e-13
-5.04239e-05
3.14317e-07
1.29478e-13
-5.0362e-05
1.67531e-08
1.23509e-13
-4.99041e-05
-5.32746e-07
1.83264e-13
-4.88347e-05
-1.39758e-06
2.83906e-13
-4.69279e-05
-2.59854e-06
3.47319e-13
-4.07388e-06
3.6924e-13
-4.40015e-05
-6.22813e-05
7.94005e-06
1.22287e-12
-6.50896e-05
5.74349e-06
9.98227e-13
-6.70056e-05
3.94916e-06
8.90806e-13
-6.82666e-05
2.61252e-06
6.13093e-13
-6.90797e-05
1.68901e-06
3.11815e-13
-6.96056e-05
1.09455e-06
1.91782e-13
-6.99609e-05
7.43575e-07
2.1768e-13
-7.02267e-05
5.65671e-07
4.07681e-13
-7.04583e-05
5.08199e-07
4.40711e-13
-7.06918e-05
5.31867e-07
3.09544e-13
-7.09468e-05
6.03199e-07
2.3289e-13
-7.12255e-05
6.85657e-07
1.42807e-13
-7.15069e-05
7.30223e-07
1.21198e-13
-7.17377e-05
6.66331e-07
1.36116e-13
-7.18184e-05
3.95156e-07
1.10654e-13
-7.15908e-05
-2.10715e-07
1.02838e-13
-7.08286e-05
-1.29469e-06
1.67992e-13
-6.92438e-05
-2.98205e-06
2.58839e-13
-6.65208e-05
-5.32114e-06
3.50019e-13
-8.20273e-06
4.4801e-13
-6.23915e-05
-7.62448e-05
1.23402e-05
1.1066e-12
-7.92367e-05
8.7349e-06
9.41973e-13
-8.11715e-05
5.88349e-06
7.72922e-13
-8.23823e-05
3.82289e-06
4.68094e-13
-8.31287e-05
2.43506e-06
2.89542e-13
-8.3593e-05
1.55853e-06
3.72609e-13
-8.38959e-05
1.04631e-06
4.49689e-13
-8.41155e-05
7.85241e-07
3.63675e-13
-8.4302e-05
6.94602e-07
2.82128e-13
-8.44865e-05
7.16268e-07
2.24015e-13
-8.46855e-05
8.02166e-07
3.08966e-13
-8.49006e-05
9.00792e-07
2.80538e-13
-8.51136e-05
9.43176e-07
2.08813e-13
-8.52761e-05
8.28811e-07
1.42107e-13
-8.52944e-05
4.13566e-07
9.03864e-14
-8.50098e-05
-4.95249e-07
1.01582e-13
-8.41775e-05
-2.12682e-06
1.63144e-13
-8.24575e-05
-4.70177e-06
2.23118e-13
-7.94359e-05
-8.34224e-06
2.91893e-13
-1.29272e-05
3.5291e-13
-7.4711e-05
-8.50768e-05
1.66322e-05
1.06745e-12
-8.76883e-05
1.13454e-05
6.83519e-13
-8.91828e-05
7.37724e-06
5.24291e-13
-9.00064e-05
4.64592e-06
5.89906e-13
-9.04534e-05
2.88174e-06
6.15199e-13
-9.06995e-05
1.80431e-06
4.65382e-13
-9.08432e-05
1.1899e-06
2.44104e-13
-9.09392e-05
8.81153e-07
1.24971e-13
-9.1018e-05
7.7335e-07
2.16153e-13
-9.10973e-05
7.95519e-07
3.49805e-13
-9.11871e-05
8.91888e-07
2.97648e-13
-9.12905e-05
1.00416e-06
1.34391e-13
-9.14008e-05
1.05343e-06
5.27014e-14
-9.14929e-05
9.20946e-07
4.34463e-14
-9.15075e-05
4.28151e-07
4.5063e-14
-9.13235e-05
-6.79218e-07
5.19113e-14
-9.07187e-05
-2.73151e-06
1.78336e-14
-8.93266e-05
-6.09358e-06
-4.49813e-14
-8.66149e-05
-1.10531e-05
-2.72462e-14
-1.75887e-05
9.26736e-14
-8.19524e-05
-8.88321e-05
2.0151e-05
9.57564e-13
-9.04403e-05
1.29521e-05
7.6459e-13
-9.10368e-05
7.97283e-06
6.23518e-13
-9.11784e-05
4.78683e-06
6.07445e-13
-9.11495e-05
2.85255e-06
5.75854e-13
-9.10748e-05
1.72937e-06
4.72358e-13
-9.09987e-05
1.11376e-06
4.66243e-13
-9.0932e-05
8.14439e-07
4.43055e-13
-9.08738e-05
7.15099e-07
3.48359e-13
-9.08214e-05
7.4314e-07
2.03737e-13
-9.07752e-05
8.45586e-07
5.01684e-14
-9.07399e-05
9.68934e-07
6.25896e-15
-9.07258e-05
1.03923e-06
6.16812e-14
-9.0744e-05
9.39095e-07
1.11081e-13
-9.07952e-05
4.79371e-07
1.30067e-13
-9.084e-05
-6.34439e-07
9.03042e-14
-9.07392e-05
-2.83224e-06
-1.56702e-14
-9.01593e-05
-6.67326e-06
-1.33973e-13
-8.84544e-05
-1.27565e-05
-1.9502e-13
-2.1422e-05
-5.21242e-14
-8.46185e-05
-8.70693e-05
2.20412e-05
1.05403e-12
-8.69762e-05
1.28557e-05
9.60515e-13
-8.62755e-05
7.27072e-06
7.69948e-13
-8.55545e-05
4.06507e-06
7.24835e-13
-8.49881e-05
2.28582e-06
7.26069e-13
-8.45841e-05
1.32533e-06
6.64698e-13
-8.42993e-05
8.28921e-07
4.60778e-13
-8.40855e-05
6.0071e-07
2.15663e-13
-8.39046e-05
5.3422e-07
6.26179e-14
-8.37312e-05
5.69679e-07
5.80664e-15
-8.35533e-05
6.67746e-07
9.82942e-15
-8.33751e-05
7.90678e-07
5.36464e-14
-8.32204e-05
8.84516e-07
8.2587e-14
-8.31382e-05
8.56833e-07
8.40611e-14
-8.32028e-05
5.43863e-07
5.05856e-14
-8.34962e-05
-3.40981e-07
-2.32251e-14
-8.40469e-05
-2.28143e-06
-1.32157e-13
-8.46831e-05
-6.03652e-06
-2.84102e-13
-8.47507e-05
-1.26858e-05
-3.48005e-13
-2.34551e-05
-1.7261e-13
-8.27105e-05
-7.85757e-05
2.10529e-05
9.50745e-13
-7.60917e-05
1.03683e-05
9.88004e-13
-7.39292e-05
5.10766e-06
8.29463e-13
-7.24184e-05
2.55401e-06
7.87265e-13
-7.14478e-05
1.31523e-06
6.81805e-13
-7.08385e-05
7.1615e-07
5.38722e-13
-7.04428e-05
4.33305e-07
3.14042e-13
-7.01574e-05
3.15354e-07
1.46177e-13
-6.99143e-05
2.91283e-07
1.19796e-13
-6.96712e-05
3.26575e-07
1.61501e-13
-6.94052e-05
4.01786e-07
1.6043e-13
-6.91143e-05
4.99855e-07
9.61859e-14
-6.88247e-05
5.94942e-07
1.71876e-14
-6.86051e-05
6.3717e-07
-4.20786e-14
-6.85868e-05
5.25498e-07
-1.09868e-13
-6.89801e-05
5.2316e-08
-1.76602e-13
-7.00543e-05
-1.20716e-06
-2.52232e-13
-7.20147e-05
-4.07643e-06
-4.5124e-13
-7.45528e-05
-1.01449e-05
-7.16444e-13
-2.23302e-05
-7.1317e-13
-7.56661e-05
-6.06903e-05
1.4992e-05
6.50626e-13
-5.56154e-05
5.2983e-06
6.62666e-13
-5.25229e-05
2.02039e-06
5.5197e-13
-5.07845e-05
8.1766e-07
5.07343e-13
-4.98225e-05
3.54265e-07
4.17567e-13
-4.92776e-05
1.71908e-07
3.17183e-13
-4.89448e-05
1.00828e-07
2.84952e-13
-4.87076e-05
7.83755e-08
3.00856e-13
-4.84976e-05
8.1549e-08
2.92774e-13
-4.82727e-05
1.01903e-07
1.82608e-13
-4.8007e-05
1.36302e-07
1.05932e-14
-4.76897e-05
1.82862e-07
-1.47366e-13
-4.73322e-05
2.37883e-07
-2.69399e-13
-4.69858e-05
2.91057e-07
-3.39389e-13
-4.67748e-05
3.14567e-07
-3.81887e-13
-4.69574e-05
2.34665e-07
-3.90932e-13
-4.79866e-05
-1.79436e-07
-3.84115e-13
-5.0633e-05
-1.43632e-06
-4.85311e-13
-5.57152e-05
-5.07059e-06
-7.41429e-13
-1.5742e-05
-9.03266e-13
-6.22902e-05
-2.79854e-05
8.89388e-13
-2.26962e-05
7.3914e-13
-2.06762e-05
6.21411e-13
-1.98601e-05
6.00831e-13
-1.95067e-05
5.92127e-13
-1.93352e-05
5.35686e-13
-1.92346e-05
4.91575e-13
-1.91564e-05
4.38756e-13
-1.90749e-05
3.08677e-13
-1.89731e-05
9.4366e-14
-1.8837e-05
-5.83136e-14
-1.86543e-05
-1.75135e-13
-1.84166e-05
-2.52345e-13
-1.81257e-05
-3.22186e-13
-1.78112e-05
-3.59356e-13
-1.75761e-05
-3.07215e-13
-1.77547e-05
-1.62704e-13
-1.91929e-05
-3.2266e-13
-2.42586e-05
-9.726e-13
-1.52812e-12
-3.99285e-05
-1.68476e-05
1.1708e-06
-1.72424e-09
-1.76954e-05
8.4892e-07
-1.17842e-09
-1.82765e-05
5.81864e-07
-7.57338e-10
-1.86572e-05
3.81225e-07
-4.59256e-10
-1.88998e-05
2.42782e-07
-2.65899e-10
-1.90546e-05
1.55026e-07
-1.51202e-10
-1.91599e-05
1.05367e-07
-9.12365e-11
-1.92431e-05
8.32569e-08
-6.82489e-11
-1.9324e-05
8.09569e-08
-7.02825e-11
-1.94168e-05
9.29492e-08
-8.99702e-11
-1.95314e-05
1.14698e-07
-1.23062e-10
-1.96724e-05
1.41095e-07
-1.65446e-10
-1.98369e-05
1.64739e-07
-2.10886e-10
-2.00108e-05
1.74208e-07
-2.48478e-10
-2.01633e-05
1.52748e-07
-2.59254e-10
-2.02415e-05
7.84326e-08
-2.17737e-10
-2.01661e-05
-7.53316e-08
-9.18911e-11
-1.98371e-05
-3.29177e-07
1.81301e-10
-1.91445e-05
-6.93241e-07
6.46896e-10
-1.14955e-06
1.33574e-09
-1.79963e-05
-4.27541e-05
4.02177e-06
1.64717e-09
-4.48421e-05
2.9356e-06
1.36731e-09
-4.62948e-05
2.03351e-06
1.06654e-09
-4.72663e-05
1.35189e-06
7.96979e-10
-4.79003e-05
8.76232e-07
5.76348e-10
-4.83145e-05
5.68846e-07
4.12159e-10
-4.8598e-05
3.88483e-07
3.02518e-10
-4.88149e-05
2.99991e-07
2.39019e-10
-4.90109e-05
2.76664e-07
2.11041e-10
-4.92166e-05
2.98468e-07