/*--------------------------------*- C++ -*----------------------------------*\
| =========                 |                                                 |
| \\      /  F ield         | OpenFOAM: The Open Source CFD Toolbox           |
|  \\    /   O peration     | Version:  2.4.0                                 |
|   \\  /    A nd           | Web:      www.OpenFOAM.org                      |
|    \\/     M anipulation  |                                                 |
\*---------------------------------------------------------------------------*/
FoamFile
{
    version     2.0;
    format      ascii;
    class       volVectorField;
    location    "0.9";
    object      U;
}
// * * * * * * * * * * * * * * * * * * * * * * * * * * * * * * * * * * * * * //

dimensions      [0 1 -1 0 0 0 0];

internalField   nonuniform List<vector> 
4800
(
(0.000212783 -0.000215185 4.94416e-07)
(-0.000177841 0.000206887 0.000183847)
(-0.00191531 0.000633796 0.000344645)
(-0.00454239 0.000907403 0.000437534)
(-0.0077363 0.00105535 0.000426231)
(-0.0112207 0.00111331 0.000294882)
(-0.0147689 0.00110392 3.96792e-05)
(-0.01819 0.0010377 -0.000337267)
(-0.0213135 0.000920269 -0.000828739)
(-0.0239942 0.000761764 -0.00142134)
(-0.000226088 0.000180552 -0.000182541)
(-0.00234211 0.00228269 3.3163e-06)
(-0.00719367 0.00420933 0.000117879)
(-0.0138473 0.0055436 0.000155228)
(-0.0216872 0.00632791 0.000101191)
(-0.0301746 0.00665575 -5.72953e-05)
(-0.038806 0.00659928 -0.000324773)
(-0.0471228 0.00620374 -0.000701334)
(-0.0547097 0.0055106 -0.00118319)
(-0.0612196 0.0045914 -0.00176166)
(-0.000708173 0.00200422 -0.000345274)
(-0.00449729 0.00720849 -0.000106813)
(-0.0120561 0.0116076 7.64877e-06)
(-0.0219324 0.0147237 2.78424e-05)
(-0.033315 0.0166095 -3.99991e-05)
(-0.0455269 0.0174047 -0.000204)
(-0.0578961 0.0172283 -0.000467156)
(-0.0697787 0.0161692 -0.000830661)
(-0.0805691 0.0143335 -0.00129392)
(-0.089745 0.0119158 -0.00185272)
(-0.00105947 0.00489038 -0.000427642)
(-0.00616 0.0142293 -0.000124137)
(-0.0158679 0.0216436 7.69766e-06)
(-0.0282287 0.0268588 2.86588e-05)
(-0.0422706 0.0300247 -3.9012e-05)
(-0.0572325 0.0313399 -0.000199278)
(-0.0723362 0.0309536 -0.000454012)
(-0.0868011 0.0289773 -0.000806253)
(-0.0998512 0.025574 -0.00125977)
(-0.110768 0.0210864 -0.00181645)
(-0.00127902 0.0085416 -0.000374246)
(-0.0072606 0.0227902 -1.55432e-05)
(-0.0184523 0.0336018 0.00013387)
(-0.0325261 0.0411104 0.000162581)
(-0.0483943 0.0456542 0.000103616)
(-0.065248 0.0475115 -4.47523e-05)
(-0.0822449 0.0468398 -0.000285143)
(-0.0984997 0.0437312 -0.000624526)
(-0.113066 0.038361 -0.00107381)
(-0.12496 0.0312081 -0.00164608)
(-0.00137938 0.0126427 -0.000152707)
(-0.00779776 0.0323045 0.000247039)
(-0.0197535 0.0467772 0.00041011)
(-0.0347246 0.0567201 0.000451161)
(-0.0515685 0.0627254 0.000408933)
(-0.0694652 0.0651674 0.000281927)
(-0.0875503 0.0641859 6.43895e-05)
(-0.104871 0.0597889 -0.000257527)
(-0.120319 0.0520708 -0.000706161)
(-0.13253 0.0415566 -0.0013175)
(-0.00137054 0.0168833 0.000249689)
(-0.00778651 0.0421436 0.000675466)
(-0.0197645 0.0603869 0.000846425)
(-0.0347743 0.0728355 0.000903236)
(-0.0516809 0.0803672 0.000886109)
(-0.0696897 0.0834625 0.000792338)
(-0.0879609 0.0822164 0.00061083)
(-0.105537 0.0764721 0.000317735)
(-0.121216 0.0660843 -0.000125586)
(-0.133125 0.0513711 -0.000802965)
(-0.0012615 0.0209686 0.000829781)
(-0.00725689 0.0516816 0.0012674)
(-0.0185265 0.0736215 0.00144013)
(-0.0326914 0.0885408 0.00151579)
(-0.0486678 0.0976023 0.00153295)
(-0.0657037 0.101401 0.00148752)
(-0.0830177 0.0999776 0.00136203)
(-0.0997292 0.0929401 0.00112076)
(-0.114736 0.0796946 0.000707285)
(-0.125617 0.0597942 -5.68607e-05)
(-0.0010662 0.0246283 0.0015696)
(-0.00627351 0.0603292 0.00200718)
(-0.016171 0.0856856 0.00217608)
(-0.0286425 0.102882 0.00227303)
(-0.0426587 0.113332 0.00233326)
(-0.0574767 0.117757 0.00235264)
(-0.0723392 0.116185 0.00230809)
(-0.0864591 0.108015 0.00215093)
(-0.0991672 0.0921231 0.00181397)
(-0.107845 0.0665101 0.000944672)
(-0.000810109 0.0276412 0.00243771)
(-0.00496081 0.0675901 0.00286737)
(-0.0129795 0.0958722 0.00302753)
(-0.0230664 0.114939 0.00314649)
(-0.0342044 0.126373 0.00325619)
(-0.0455457 0.130995 0.00335734)
(-0.0561602 0.128867 0.00342997)
(-0.0650259 0.119291 0.0034234)
(-0.0719055 0.100866 0.00331226)
(-0.0757011 0.0704894 0.00256361)
(0.000216648 -0.000219174 1.49007e-07)
(-0.000172188 0.000201759 1.15811e-06)
(-0.00191211 0.000621524 1.73515e-06)
(-0.00454019 0.000890396 2.22488e-06)
(-0.00773518 0.00103595 2.48711e-06)
(-0.0112204 0.00109284 2.58097e-06)
(-0.0147692 0.00108356 2.56854e-06)
(-0.0181911 0.00101853 2.44807e-06)
(-0.0213156 0.000903181 2.20276e-06)
(-0.0239972 0.000747275 1.81951e-06)
(-0.000220278 0.000174084 -9.00083e-07)
(-0.0023403 0.00228102 2.29527e-07)
(-0.00720021 0.00419981 -1.11774e-06)
(-0.013851 0.00552983 -1.64886e-06)
(-0.0216889 0.0063128 -1.89583e-06)
(-0.0301752 0.00664013 -2.05374e-06)
(-0.0388053 0.0065839 -2.04728e-06)
(-0.0471213 0.00618941 -1.90105e-06)
(-0.0547082 0.005498 -1.67071e-06)
(-0.0612188 0.00458058 -1.4449e-06)
(-0.000694828 0.00199958 -1.65358e-06)
(-0.00448805 0.00721403 1.50187e-06)
(-0.0120619 0.011611 5.45894e-08)
(-0.0219341 0.0147273 -6.59462e-08)
(-0.0333149 0.0166146 8.4182e-08)
(-0.0455268 0.0174106 8.44268e-08)
(-0.0578955 0.0172346 9.21572e-08)
(-0.069778 0.0161755 1.24787e-07)
(-0.0805692 0.0143399 1.5895e-07)
(-0.0897469 0.011921 8.70214e-08)
(-0.0010407 0.00488676 -2.35105e-06)
(-0.00614648 0.0142323 2.02189e-06)
(-0.0158751 0.0216433 1.20728e-08)
(-0.02823 0.0268574 -1.36e-07)
(-0.0422697 0.0300237 1.14239e-07)
(-0.0572318 0.0313393 1.50841e-07)
(-0.0723352 0.0309533 1.79804e-07)
(-0.0867998 0.0289778 2.41706e-07)
(-0.0998514 0.0255761 3.53573e-07)
(-0.110772 0.0210887 2.97255e-07)
(-0.00125713 0.00853959 -2.779e-06)
(-0.00724554 0.0227917 2.30403e-06)
(-0.0184618 0.0336004 -2.3516e-07)
(-0.0325282 0.0411076 -5.115e-07)
(-0.0483934 0.0456511 -2.63331e-07)
(-0.0652471 0.0475083 -2.32636e-07)
(-0.0822432 0.0468368 -1.87961e-07)
(-0.0984966 0.0437291 -6.68348e-08)
(-0.113064 0.0383624 2.79783e-07)
(-0.124967 0.0312111 4.314e-07)
(-0.00135595 0.0126423 -2.95902e-06)
(-0.00778213 0.0323052 2.50391e-06)
(-0.0197645 0.0467765 -2.96574e-07)
(-0.0347275 0.0567185 -6.37471e-07)
(-0.0515679 0.0627231 -3.98244e-07)
(-0.0694645 0.0651647 -3.81342e-07)
(-0.0875482 0.0641828 -3.5903e-07)
(-0.104865 0.0597862 -2.62202e-07)
(-0.120314 0.0520746 4.36521e-07)
(-0.132543 0.0415663 1.0951e-06)
(-0.00134715 0.0168843 -2.93403e-06)
(-0.00777123 0.0421435 2.53184e-06)
(-0.0197763 0.0603867 -3.12814e-07)
(-0.0347779 0.0728349 -6.92981e-07)
(-0.0516809 0.0803658 -4.95062e-07)
(-0.0696896 0.0834603 -5.09404e-07)
(-0.0879591 0.0822131 -5.63215e-07)
(-0.105527 0.0764679 -6.89615e-07)
(-0.121201 0.0660931 5.6243e-07)
(-0.133151 0.0514029 2.68414e-06)
(-0.00123966 0.020971 -2.70413e-06)
(-0.00724286 0.0516808 2.40387e-06)
(-0.0185381 0.0736219 -2.89351e-07)
(-0.0326956 0.0885414 -6.82712e-07)
(-0.0486686 0.0976018 -5.43181e-07)
(-0.0657047 0.101399 -5.56562e-07)
(-0.0830173 0.099972 -6.22392e-07)
(-0.0997106 0.0929253 -1.12444e-06)
(-0.114694 0.0796894 1.55106e-06)
(-0.125658 0.0598439 9.48496e-06)
(-0.00104716 0.0246319 -2.27853e-06)
(-0.00626144 0.0603282 2.16556e-06)
(-0.0161816 0.0856871 -2.07373e-07)
(-0.028647 0.102884 -5.94621e-07)
(-0.042661 0.113334 -5.69192e-07)
(-0.0574814 0.117758 -6.74954e-07)
(-0.0723494 0.11618 -9.65171e-07)
(-0.0864456 0.107984 -3.16491e-06)
(-0.0990797 0.0920554 -7.6215e-07)
(-0.107889 0.0664782 2.12816e-05)
(-0.000794687 0.0276456 -1.69317e-06)
(-0.00495091 0.0675892 1.87826e-06)
(-0.0129878 0.0958751 -3.13721e-08)
(-0.0230699 0.114945 -3.47986e-07)
(-0.0342067 0.126382 -4.22156e-07)
(-0.0455533 0.131013 -7.34398e-07)
(-0.0561901 0.128902 -1.65933e-06)
(-0.0650628 0.119344 -8.5187e-06)
(-0.0718348 0.100918 -1.92152e-05)
(-0.0757713 0.070585 5.03946e-06)
(0.000216627 -0.000219194 -2.50977e-08)
(-0.000172235 0.000201738 -1.10145e-06)
(-0.00191215 0.000621511 -1.7078e-06)
(-0.00454021 0.00089039 -2.20985e-06)
(-0.0077352 0.00103595 -2.47747e-06)
(-0.0112204 0.00109284 -2.5741e-06)
(-0.0147692 0.00108356 -2.56315e-06)
(-0.0181911 0.00101853 -2.44373e-06)
(-0.0213156 0.000903181 -2.1991e-06)
(-0.0239972 0.000747275 -1.8164e-06)
(-0.000220299 0.000174037 9.57045e-07)
(-0.00234035 0.00228098 -1.94111e-07)
(-0.00720025 0.00419978 1.14041e-06)
(-0.013851 0.00552981 1.66374e-06)
(-0.0216889 0.00631279 1.90634e-06)
(-0.0301752 0.00664012 2.06164e-06)
(-0.0388053 0.00658389 2.05356e-06)
(-0.0471213 0.00618941 1.90622e-06)
(-0.0547082 0.005498 1.67497e-06)
(-0.0612187 0.00458057 1.4485e-06)
(-0.00069484 0.00199955 1.68213e-06)
(-0.00448808 0.00721398 -1.47932e-06)
(-0.0120619 0.011611 -3.7465e-08)
(-0.0219341 0.0147273 7.87799e-08)
(-0.0333149 0.0166145 -7.44964e-08)
(-0.0455268 0.0174106 -7.66434e-08)
(-0.0578955 0.0172346 -8.58131e-08)
(-0.0697779 0.0161755 -1.19595e-07)
(-0.0805692 0.0143399 -1.54555e-07)
(-0.0897469 0.011921 -8.31877e-08)
(-0.00104071 0.00488674 2.36754e-06)
(-0.00614649 0.0142323 -2.00664e-06)
(-0.0158751 0.0216432 7.09743e-10)
(-0.02823 0.0268574 1.46587e-07)
(-0.0422697 0.0300236 -1.05444e-07)
(-0.0572318 0.0313393 -1.43534e-07)
(-0.0723352 0.0309533 -1.73696e-07)
(-0.0867998 0.0289778 -2.36471e-07)
(-0.0998513 0.0255761 -3.49077e-07)
(-0.110772 0.0210886 -2.93544e-07)
(-0.00125714 0.00853958 2.79018e-06)
(-0.00724554 0.0227917 -2.29297e-06)
(-0.0184618 0.0336004 2.45285e-07)
(-0.0325282 0.0411076 5.20364e-07)
(-0.0483934 0.0456511 2.71114e-07)
(-0.065247 0.0475083 2.39427e-07)
(-0.0822432 0.0468367 1.93958e-07)
(-0.0984966 0.0437291 7.19714e-08)
(-0.113064 0.0383624 -2.75416e-07)
(-0.124967 0.0312111 -4.27726e-07)
(-0.00135595 0.0126423 2.96764e-06)
(-0.00778213 0.0323052 -2.49522e-06)
(-0.0197645 0.0467765 3.04804e-07)
(-0.0347275 0.0567184 6.45133e-07)
(-0.0515679 0.0627231 4.05203e-07)
(-0.0694645 0.0651647 3.87599e-07)
(-0.0875482 0.0641827 3.64655e-07)
(-0.104865 0.0597862 2.67127e-07)
(-0.120314 0.0520746 -4.32262e-07)
(-0.132543 0.0415663 -1.09161e-06)
(-0.00134715 0.0168843 2.94106e-06)
(-0.00777123 0.0421434 -2.52461e-06)
(-0.0197763 0.0603867 3.19863e-07)
(-0.0347779 0.0728348 6.9971e-07)
(-0.0516809 0.0803658 5.01163e-07)
(-0.0696896 0.0834603 5.15072e-07)
(-0.0879591 0.0822131 5.68411e-07)
(-0.105527 0.0764679 6.94238e-07)
(-0.121201 0.066093 -5.5846e-07)
(-0.133151 0.0514029 -2.68092e-06)
(-0.00123966 0.020971 2.71026e-06)
(-0.00724286 0.0516808 -2.3976e-06)
(-0.0185381 0.0736219 2.95521e-07)
(-0.0326955 0.0885413 6.88545e-07)
(-0.0486686 0.0976018 5.48639e-07)
(-0.0657047 0.101399 5.61697e-07)
(-0.0830173 0.099972 6.2705e-07)
(-0.0997105 0.0929253 1.12861e-06)
(-0.114694 0.0796894 -1.54748e-06)
(-0.125658 0.0598439 -9.4821e-06)
(-0.00104716 0.0246319 2.28395e-06)
(-0.00626144 0.0603282 -2.15999e-06)
(-0.0161816 0.0856871 2.12783e-07)
(-0.028647 0.102884 5.99772e-07)
(-0.042661 0.113334 5.74066e-07)
(-0.0574814 0.117758 6.79453e-07)
(-0.0723494 0.11618 9.69283e-07)
(-0.0864456 0.107984 3.16873e-06)
(-0.0990797 0.0920554 7.65554e-07)
(-0.107889 0.0664782 -2.12789e-05)
(-0.000794686 0.0276456 1.6979e-06)
(-0.00495091 0.0675892 -1.87337e-06)
(-0.0129878 0.0958751 3.60704e-08)
(-0.0230699 0.114945 3.52594e-07)
(-0.0342067 0.126382 4.26407e-07)
(-0.0455533 0.131013 7.38365e-07)
(-0.0561901 0.128902 1.66308e-06)
(-0.0650628 0.119344 8.52237e-06)
(-0.0718348 0.100918 1.92188e-05)
(-0.0757713 0.070585 -5.03642e-06)
(0.000212568 -0.000215401 -6.2468e-07)
(-0.000178192 0.000206784 -0.000183906)
(-0.00191547 0.000633751 -0.000344674)
(-0.00454247 0.000907385 -0.000437549)
(-0.00773634 0.00105534 -0.000426241)
(-0.0112207 0.00111331 -0.00029489)
(-0.0147689 0.00110392 -3.96848e-05)
(-0.01819 0.0010377 0.000337262)
(-0.0213135 0.000920269 0.000828735)
(-0.0239942 0.000761764 0.00142133)
(-0.000226189 0.000180202 0.000182481)
(-0.0023423 0.0022825 -3.35374e-06)
(-0.00719381 0.00420922 -0.000117903)
(-0.0138474 0.00554355 -0.000155243)
(-0.0216872 0.00632788 -0.000101202)
(-0.0301747 0.00665574 5.72869e-05)
(-0.038806 0.00659928 0.000324767)
(-0.0471228 0.00620374 0.000701329)
(-0.0547097 0.0055106 0.00118318)
(-0.0612196 0.0045914 0.00176165)
(-0.000708218 0.00200406 0.000345244)
(-0.00449739 0.00720834 0.000106789)
(-0.0120561 0.0116075 -7.66687e-06)
(-0.0219324 0.0147237 -2.7856e-05)
(-0.033315 0.0166094 3.99889e-05)
(-0.0455269 0.0174046 0.000203992)
(-0.0578961 0.0172283 0.000467149)
(-0.0697787 0.0161691 0.000830655)
(-0.080569 0.0143335 0.00129392)
(-0.0897449 0.0119158 0.00185272)
(-0.00105949 0.00489029 0.000427625)
(-0.00616004 0.0142292 0.000124121)
(-0.015868 0.0216435 -7.71117e-06)
(-0.0282288 0.0268587 -2.867e-05)
(-0.0422706 0.0300246 3.90028e-05)
(-0.0572325 0.0313399 0.00019927)
(-0.0723361 0.0309536 0.000454006)
(-0.086801 0.0289773 0.000806248)
(-0.0998511 0.0255739 0.00125977)
(-0.110768 0.0210864 0.00181644)
(-0.00127903 0.00854155 0.000374235)
(-0.00726061 0.0227901 1.55315e-05)
(-0.0184523 0.0336017 -0.000133881)
(-0.0325261 0.0411103 -0.00016259)
(-0.0483943 0.0456541 -0.000103624)
(-0.0652479 0.0475114 4.47452e-05)
(-0.0822449 0.0468398 0.000285136)
(-0.0984997 0.0437311 0.000624521)
(-0.113066 0.0383609 0.0010738)
(-0.12496 0.031208 0.00164607)
(-0.00137938 0.0126427 0.000152698)
(-0.00779776 0.0323044 -0.000247049)
(-0.0197535 0.0467771 -0.000410119)
(-0.0347246 0.05672 -0.000451169)
(-0.0515685 0.0627253 -0.00040894)
(-0.0694652 0.0651673 -0.000281934)
(-0.0875503 0.0641858 -6.43954e-05)
(-0.104871 0.0597888 0.000257522)
(-0.120319 0.0520707 0.000706156)
(-0.13253 0.0415565 0.0013175)
(-0.00137054 0.0168833 -0.000249697)
(-0.0077865 0.0421435 -0.000675473)
(-0.0197645 0.0603868 -0.000846432)
(-0.0347743 0.0728355 -0.000903243)
(-0.0516808 0.0803672 -0.000886115)
(-0.0696896 0.0834624 -0.000792344)
(-0.0879609 0.0822164 -0.000610835)
(-0.105537 0.0764721 -0.00031774)
(-0.121215 0.0660843 0.000125582)
(-0.133124 0.0513711 0.000802962)
(-0.0012615 0.0209686 -0.000829787)
(-0.00725688 0.0516816 -0.0012674)
(-0.0185265 0.0736214 -0.00144014)
(-0.0326914 0.0885408 -0.0015158)
(-0.0486678 0.0976022 -0.00153296)
(-0.0657037 0.101401 -0.00148752)
(-0.0830177 0.0999776 -0.00136204)
(-0.0997292 0.0929401 -0.00112076)
(-0.114736 0.0796946 -0.000707289)
(-0.125617 0.0597942 5.68577e-05)
(-0.0010662 0.0246283 -0.0015696)
(-0.00627351 0.0603291 -0.00200719)
(-0.016171 0.0856855 -0.00217608)
(-0.0286425 0.102882 -0.00227304)
(-0.0426587 0.113331 -0.00233326)
(-0.0574766 0.117756 -0.00235264)
(-0.0723392 0.116185 -0.0023081)
(-0.0864591 0.108015 -0.00215094)
(-0.0991672 0.092123 -0.00181397)
(-0.107845 0.0665101 -0.000944675)
(-0.000810108 0.0276412 -0.00243772)
(-0.00496081 0.0675901 -0.00286738)
(-0.0129795 0.0958721 -0.00302754)
(-0.0230664 0.114939 -0.00314649)
(-0.0342044 0.126372 -0.00325619)
(-0.0455457 0.130995 -0.00335735)
(-0.0561602 0.128867 -0.00342998)
(-0.0650259 0.119291 -0.0034234)
(-0.0719055 0.100866 -0.00331226)
(-0.0757011 0.0704894 -0.00256362)
(-0.0261394 0.000583989 -0.00209497)
(-0.0277393 0.000416334 -0.00282571)
(-0.0288607 0.000278371 -0.00359229)
(-0.0296075 0.000176398 -0.00437892)
(-0.0300863 0.000107805 -0.00517532)
(-0.0303885 6.60136e-05 -0.00597567)
(-0.0305851 4.40504e-05 -0.00677728)
(-0.0307275 3.63092e-05 -0.00757952)
(-0.0308529 3.89459e-05 -0.00838308)
(-0.0309878 4.95138e-05 -0.00918975)
(-0.0311516 6.62309e-05 -0.0100023)
(-0.0313561 8.70487e-05 -0.0108245)
(-0.0316039 0.000108589 -0.0116613)
(-0.0318831 0.000125023 -0.0125186)
(-0.0321594 0.000127098 -0.0134026)
(-0.0323672 0.00010192 -0.0143189)
(-0.0324005 3.43129e-05 -0.0152702)
(-0.0321129 -9.1764e-05 -0.0162531)
(-0.0313294 -0.000283635 -0.0172552)
(-0.0298774 -0.000533266 -0.0182523)
(-0.0664379 0.00357197 -0.00242194)
(-0.0703514 0.00260806 -0.00314439)
(-0.0731257 0.00180337 -0.00391123)
(-0.0750057 0.0011939 -0.00470816)
(-0.0762392 0.000769051 -0.00552455)
(-0.0770381 0.000496179 -0.00635316)
(-0.0775671 0.000338603 -0.00718958)
(-0.0779468 0.000264921 -0.00803151)
(-0.0782628 0.000251494 -0.00887829)
(-0.078575 0.000280947 -0.00973055)
(-0.0789224 0.000338675 -0.0105901)
(-0.0793244 0.000408348 -0.0114595)
(-0.0797753 0.00046695 -0.0123426)
(-0.0802346 0.000479939 -0.0132434)
(-0.0806118 0.000397732 -0.014166)
(-0.0807491 0.000155911 -0.0151135)
(-0.0804089 -0.000317446 -0.0160859)
(-0.0792736 -0.00108535 -0.0170791)
(-0.0769732 -0.00216945 -0.0180808)
(-0.0731543 -0.00351439 -0.01907)
(-0.0969815 0.00925174 -0.00249538)
(-0.102291 0.00675388 -0.00320141)
(-0.105976 0.00468277 -0.00395379)
(-0.108428 0.003119 -0.00473896)
(-0.110016 0.00202688 -0.00554638)
(-0.111034 0.00131901 -0.00636854)
(-0.111702 0.00090059 -0.00720053)
(-0.112173 0.000690977 -0.00803948)
(-0.112554 0.000628686 -0.00888409)
(-0.112915 0.000667255 -0.00973435)
(-0.113302 0.000766707 -0.0105913)
(-0.113732 0.000883006 -0.0114568)
(-0.114195 0.000956703 -0.0123335)
(-0.114634 0.00090217 -0.0132246)
(-0.114933 0.000600134 -0.0141332)
(-0.11489 -0.000101423 -0.0150619)
(-0.1142 -0.00137024 -0.0160113)
(-0.112443 -0.00334704 -0.0169786)
(-0.109115 -0.00607682 -0.0179549)
(-0.103707 -0.00941954 -0.0189233)
(-0.119081 0.0161588 -0.00246678)
(-0.124869 0.0116241 -0.00318139)
(-0.128668 0.00795082 -0.00394093)
(-0.131067 0.00523661 -0.0047316)
(-0.132548 0.00337373 -0.00554279)
(-0.13346 0.00217987 -0.00636725)
(-0.134036 0.00147559 -0.00720038)
(-0.13443 0.00111596 -0.00803942)
(-0.13474 0.000993952 -0.00888304)
(-0.135028 0.00103032 -0.00973093)
(-0.135331 0.00115803 -0.0105836)
(-0.135666 0.00130442 -0.0114423)
(-0.136021 0.00137249 -0.0123088)
(-0.136348 0.00122267 -0.0131857)
(-0.136541 0.00065883 -0.0140759)
(-0.136407 -0.000573849 -0.0149824)
(-0.135629 -0.00276581 -0.015908)
(-0.133739 -0.00617718 -0.0168537)
(-0.130113 -0.0109194 -0.0178165)
(-0.124037 -0.0167847 -0.0187863)
(-0.13345 0.023344 -0.00233572)
(-0.138754 0.0163258 -0.0030874)
(-0.141832 0.0108659 -0.00387677)
(-0.143544 0.00698398 -0.00469004)
(-0.144473 0.00440687 -0.00551704)
(-0.144977 0.00279805 -0.00635185)
(-0.145261 0.00186543 -0.00719118)
(-0.145438 0.00139131 -0.00803327)
(-0.145569 0.00122421 -0.00887727)
(-0.14569 0.00125739 -0.00972293)
(-0.145823 0.00140416 -0.0105704)
(-0.145978 0.00157252 -0.0114203)
(-0.146155 0.00163903 -0.0122737)
(-0.146332 0.00142205 -0.0131322)
(-0.146452 0.000657142 -0.0139985)
(-0.146383 -0.00101686 -0.0148765)
(-0.145866 -0.00404193 -0.0157723)
(-0.144449 -0.00886429 -0.0166925)
(-0.141408 -0.0157666 -0.0176433)
(-0.135723 -0.0245724 -0.0186285)
(-0.140248 0.0298785 -0.00209945)
(-0.143967 0.0199528 -0.00292723)
(-0.14544 0.0127056 -0.00377203)
(-0.145878 0.0078507 -0.00462457)
(-0.145897 0.0047897 -0.00547753)
(-0.145786 0.00295784 -0.00632856)
(-0.145657 0.00192991 -0.00717741)
(-0.145541 0.00141975 -0.00802429)
(-0.145442 0.00124394 -0.00886945)
(-0.145354 0.00128242 -0.00971297)
(-0.145274 0.00144367 -0.0105548)
(-0.145206 0.00163336 -0.0113947)
(-0.145162 0.00172275 -0.0122328)
(-0.145163 0.00151383 -0.0130696)
(-0.145225 0.000700508 -0.0139068)
(-0.145335 -0.00116905 -0.0147492)
(-0.145379 -0.00470821 -0.0156058)
(-0.145027 -0.010639 -0.0164906)
(-0.143546 -0.0196057 -0.017423)
(-0.139504 -0.0317209 -0.018435)
(-0.138908 0.0345857 -0.00177338)
(-0.139686 0.0214391 -0.00273035)
(-0.13868 0.0127482 -0.00365538)
(-0.137422 0.00742096 -0.00455838)
(-0.13637 0.00430686 -0.00544102)
(-0.135604 0.00255594 -0.00630876)
(-0.135072 0.00162153 -0.00716658)
(-0.134689 0.00117833 -0.00801759)
(-0.134385 0.00103845 -0.00886342)
(-0.134109 0.00109029 -0.00970457)
(-0.133829 0.00125623 -0.0105406)
(-0.133539 0.00145959 -0.0113704)
(-0.133259 0.00159261 -0.0121926)
(-0.133046 0.00147797 -0.013006)
(-0.133002 0.000816963 -0.0138105)
(-0.133266 -0.000880962 -0.0146099)
(-0.13396 -0.00437707 -0.0154153)
(-0.135062 -0.0107374 -0.0162481)
(-0.136087 -0.0212423 -0.017145)
(-0.135212 -0.0368635 -0.0181926)
(-0.127689 0.0356667 -0.00139888)
(-0.123854 0.0194421 -0.00254947)
(-0.119775 0.0103583 -0.00356952)
(-0.116845 0.00550355 -0.00452205)
(-0.114927 0.0029661 -0.00542732)
(-0.113725 0.0016647 -0.0063045)
(-0.112967 0.00102072 -0.00716592)
(-0.112453 0.000737769 -0.00801769)
(-0.112051 0.000665847 -0.00886248)
(-0.111674 0.000726625 -0.00970078)
(-0.111271 0.000872386 -0.0105315)
(-0.110821 0.00105924 -0.0113523)
(-0.110339 0.00122254 -0.01216)
(-0.109895 0.0012446 -0.0129508)
(-0.109641 0.000901832 -0.0137217)
(-0.109853 -0.000229467 -0.0144733)
(-0.110923 -0.00292981 -0.0152171)
(-0.113338 -0.00853542 -0.0159792)
(-0.117417 -0.0192144 -0.0168103)
(-0.121533 -0.0379491 -0.0178883)
(-0.102525 0.0309495 -0.00121323)
(-0.0924776 0.013127 -0.00256901)
(-0.0858606 0.00567249 -0.00361445)
(-0.0822617 0.00253934 -0.00456579)
(-0.0802786 0.00119265 -0.00546052)
(-0.0791698 0.000607997 -0.00632698)
(-0.0785236 0.000358128 -0.00718081)
(-0.0781004 0.000266474 -0.00802777)
(-0.0777625 0.000260436 -0.00886939)
(-0.0774268 0.000309718 -0.00970501)
(-0.0770408 0.000400395 -0.0105323)
(-0.076574 0.000521944 -0.0113474)
(-0.0760225 0.00065674 -0.0121447)
(-0.0754269 0.000764361 -0.0129171)
(-0.074914 0.000749003 -0.0136562)
(-0.0747663 0.000384329 -0.0143553)
(-0.0754961 -0.000867119 -0.0150211)
(-0.0780889 -0.00427739 -0.0156646)
(-0.0844542 -0.01274 -0.0163171)
(-0.095327 -0.0327786 -0.0172984)
(-0.0532001 0.0192659 -0.00175494)
(-0.0394919 0.0054599 -0.00305473)
(-0.0340407 0.0016151 -0.00377813)
(-0.0321605 0.000487738 -0.00451437)
(-0.0313915 0.000147428 -0.00527102)
(-0.0310301 4.8586e-05 -0.00604263)
(-0.0308379 2.45282e-05 -0.00682595)
(-0.0307079 2.47373e-05 -0.00761571)
(-0.0305878 3.53547e-05 -0.00840745)
(-0.0304465 5.37802e-05 -0.00919731)
(-0.0302601 8.08708e-05 -0.00998103)
(-0.0300075 0.000118535 -0.010753)
(-0.0296705 0.000168466 -0.0115053)
(-0.0292397 0.000229471 -0.0122262)
(-0.0287307 0.000288923 -0.0128981)
(-0.0282258 0.000295974 -0.013496)
(-0.0279766 6.66785e-05 -0.013988)
(-0.0287513 -0.00106714 -0.0143408)
(-0.0335242 -0.00533911 -0.0144723)
(-0.0486876 -0.0210179 -0.0149245)
(-0.0261425 0.000572203 1.34498e-06)
(-0.0277418 0.000407299 9.19704e-07)
(-0.0288626 0.000271813 5.91495e-07)
(-0.0296087 0.000171833 3.58935e-07)
(-0.0300869 0.000104716 2.07923e-07)
(-0.0303888 6.39367e-05 1.18308e-07)
(-0.0305852 4.26031e-05 7.14144e-08)
(-0.0307275 3.51976e-05 5.34726e-08)
(-0.0308528 3.79527e-05 5.51151e-08)
(-0.0309876 4.84862e-05 7.04665e-08)
(-0.0311513 6.5075e-05 9.60913e-08)
(-0.0313557 8.57351e-05 1.28993e-07)
(-0.0316035 0.000107174 1.64374e-07)
(-0.0318827 0.000123685 1.93661e-07)
(-0.0321592 0.00012618 2.02007e-07)
(-0.0323672 0.000101943 1.69712e-07)
(-0.0324011 3.5976e-05 7.19162e-08)
(-0.0321145 -8.75565e-05 -1.40597e-07)
(-0.0313323 -0.000276 -5.0303e-07)
(-0.0298816 -0.00052171 -1.03937e-06)
(-0.0664371 0.00356241 -1.27885e-06)
(-0.0703501 0.00260032 -1.06137e-06)
(-0.073124 0.00179757 -8.2782e-07)
(-0.075004 0.00118976 -6.18636e-07)
(-0.0762377 0.00076621 -4.47426e-07)
(-0.0770369 0.000494264 -3.19962e-07)
(-0.0775663 0.000337294 -2.34781e-07)
(-0.0779462 0.000263966 -1.85313e-07)
(-0.0782625 0.000250701 -1.63547e-07)
(-0.0785748 0.000280178 -1.61347e-07)
(-0.0789223 0.000337838 -1.69673e-07)
(-0.0793241 0.000407396 -1.77329e-07)
(-0.0797747 0.000465893 -1.70046e-07)
(-0.0802336 0.000478878 -1.28997e-07)
(-0.0806101 0.000396899 -3.09105e-08)
(-0.0807466 0.000155685 1.45442e-07)
(-0.0804057 -0.000316521 4.12538e-07)
(-0.07927 -0.0010825 7.7567e-07)
(-0.0769703 -0.00216395 1.20373e-06)
(-0.0731527 -0.00350629 1.59658e-06)
(-0.0969836 0.00925378 -1.76333e-07)
(-0.102292 0.00675452 -2.85489e-07)
(-0.105975 0.00468302 -3.00123e-07)
(-0.108427 0.00311911 -2.77191e-07)
(-0.110015 0.00202699 -2.31326e-07)
(-0.111033 0.00131917 -1.80363e-07)
(-0.111701 0.000900801 -1.35492e-07)
(-0.112172 0.000691253 -1.00466e-07)
(-0.112553 0.000629037 -7.53074e-08)
(-0.112915 0.000667682 -5.77336e-08)
(-0.113302 0.000767196 -4.42464e-08)
(-0.113732 0.000883512 -3.1047e-08)
(-0.114194 0.000957142 -1.37752e-08)
(-0.114633 0.000902417 1.29998e-08)
(-0.114931 0.000600034 5.52793e-08)
(-0.114889 -0.000102023 1.15141e-07)
(-0.114198 -0.00137145 1.88592e-07)
(-0.112441 -0.00334884 2.74137e-07)
(-0.109115 -0.00607915 3.53917e-07)
(-0.103709 -0.00942365 2.92274e-07)
(-0.119085 0.0161561 -2.43953e-07)
(-0.12487 0.0116211 -3.87815e-07)
(-0.128667 0.00794897 -3.72814e-07)
(-0.131066 0.00523565 -3.2601e-07)
(-0.132547 0.0033734 -2.5626e-07)
(-0.133458 0.00217992 -1.87396e-07)
(-0.134035 0.00147582 -1.31761e-07)
(-0.13443 0.00111625 -9.04723e-08)
(-0.13474 0.000994254 -6.12503e-08)
(-0.135028 0.0010306 -4.12405e-08)
(-0.135331 0.00115826 -2.73801e-08)
(-0.135665 0.00130457 -1.66656e-08)
(-0.13602 0.00137249 -6.03584e-09)
(-0.136347 0.00122246 8.59289e-09)
(-0.13654 0.000658391 3.40144e-08)
(-0.136406 -0.000574432 7.66907e-08)
(-0.135627 -0.00276631 1.36695e-07)
(-0.133737 -0.00617696 2.25857e-07)
(-0.130113 -0.0109173 3.72204e-07)
(-0.124042 -0.0167824 3.15683e-07)
(-0.133458 0.0233363 -6.67282e-07)
(-0.138754 0.0163194 -7.27258e-07)
(-0.141829 0.0108629 -5.64998e-07)
(-0.143541 0.00698291 -4.34749e-07)
(-0.144471 0.00440682 -3.01883e-07)
(-0.144976 0.00279847 -1.95276e-07)
(-0.14526 0.00186597 -1.23047e-07)
(-0.145437 0.00139182 -7.71155e-08)
(-0.145568 0.00122463 -4.93245e-08)
(-0.14569 0.00125772 -3.37771e-08)
(-0.145823 0.00140437 -2.64049e-08)
(-0.145978 0.00157259 -2.41994e-08)
(-0.146154 0.00163893 -2.4268e-08)
(-0.146332 0.00142174 -2.19802e-08)
(-0.146451 0.000656646 -5.95879e-09)
(-0.146381 -0.00101734 3.86403e-08)
(-0.145864 -0.004042 1.1121e-07)
(-0.144445 -0.00886262 2.48606e-07)
(-0.141406 -0.0157599 6.34261e-07)
(-0.135731 -0.0245627 8.28686e-07)
(-0.140262 0.0298624 -1.4906e-06)
(-0.143963 0.0199422 -1.20569e-06)
(-0.145434 0.0127024 -7.10934e-07)
(-0.145873 0.00785036 -4.70288e-07)
(-0.145894 0.00479047 -2.73717e-07)
(-0.145784 0.00295889 -1.41822e-07)
(-0.145656 0.00193085 -6.94236e-08)
(-0.145541 0.00142049 -3.16797e-08)
(-0.145442 0.00124451 -1.32243e-08)
(-0.145354 0.00128284 -5.88168e-09)
(-0.145274 0.00144397 -5.54039e-09)
(-0.145206 0.00163354 -1.03895e-08)
(-0.145162 0.00172276 -1.96347e-08)
(-0.145163 0.00151361 -3.1429e-08)
(-0.145224 0.000700088 -3.24568e-08)
(-0.145333 -0.00116939 2.00901e-09)
(-0.145375 -0.004708 5.08169e-08)
(-0.145018 -0.0106362 1.87881e-07)
(-0.143538 -0.019593 1.05142e-06)
(-0.139518 -0.0316997 2.03081e-06)
(-0.138936 0.0345632 -4.0399e-06)
(-0.139672 0.0214317 -2.52658e-06)
(-0.138667 0.012751 -1.09792e-06)
(-0.137416 0.00742425 -5.7032e-07)
(-0.136366 0.0043095 -2.40938e-07)
(-0.135603 0.00255786 -7.20642e-08)
(-0.135071 0.00162282 -7.50259e-09)
(-0.134689 0.0011792 1.36213e-08)
(-0.134385 0.0010391 1.70137e-08)
(-0.134109 0.00109084 1.25252e-08)
(-0.133829 0.00125674 3.51095e-09)
(-0.133539 0.00146008 -9.75249e-09)
(-0.133259 0.00159301 -2.80842e-08)
(-0.133046 0.0014781 -5.1865e-08)
(-0.133001 0.000816611 -6.05653e-08)
(-0.133264 -0.000881806 1.01621e-08)
(-0.133955 -0.00437886 1.2709e-07)
(-0.135046 -0.0107399 3.9101e-07)
(-0.136067 -0.0212331 2.42658e-06)
(-0.13524 -0.036835 5.54063e-06)
(-0.127741 0.0356293 -6.93877e-06)
(-0.123826 0.0194504 -2.63927e-06)
(-0.119759 0.0103763 -4.69318e-07)
(-0.116841 0.00551343 -2.00155e-07)
(-0.114926 0.00297097 1.44977e-08)
(-0.113725 0.00166723 9.39735e-08)
(-0.112967 0.00102205 8.7231e-08)
(-0.112454 0.000738583 6.99308e-08)
(-0.112051 0.000666524 5.70106e-08)
(-0.111674 0.000727369 4.83118e-08)
(-0.111271 0.000873302 4.13646e-08)
(-0.110821 0.00106036 3.22412e-08)
(-0.110339 0.00122379 1.4695e-08)
(-0.109895 0.00124565 -2.56393e-08)
(-0.109642 0.000901955 -7.76212e-08)
(-0.109853 -0.000231477 -1.06505e-08)
(-0.110922 -0.00293719 5.83198e-08)
(-0.113321 -0.0085537 -2.52027e-07)
(-0.117381 -0.0192239 2.21959e-06)
(-0.121585 -0.0379021 9.00089e-06)
(-0.102586 0.0307788 -8.81143e-06)
(-0.0924172 0.0130778 3.76451e-06)
(-0.085851 0.00566407 4.06676e-06)
(-0.08227 0.00253379 1.6317e-06)
(-0.0802832 0.00118862 8.06547e-07)
(-0.079172 0.000605623 4.68151e-07)
(-0.0785248 0.000356671 2.68854e-07)
(-0.0781009 0.000265467 1.82941e-07)
(-0.0777625 0.000259633 1.63815e-07)
(-0.0774266 0.000308966 1.79742e-07)
(-0.0770405 0.000399603 2.15492e-07)
(-0.0765739 0.000521096 2.59042e-07)
(-0.0760228 0.000655926 2.89118e-07)
(-0.0754282 0.000763862 2.49389e-07)
(-0.0749168 0.000749396 6.28788e-08)
(-0.0747729 0.000386381 -2.45693e-07)
(-0.0755105 -0.000863434 -1.14107e-06)
(-0.078084 -0.0042706 -4.85996e-06)
(-0.0843801 -0.0126865 -6.14437e-06)
(-0.0953748 -0.0325688 1.03667e-05)
(-0.0532303 0.0191404 -4.68281e-05)
(-0.0393525 0.00540311 -7.07921e-06)
(-0.0340037 0.00159285 -2.8763e-07)
(-0.0321576 0.000475357 -1.16437e-06)
(-0.0313892 0.000140451 -7.36324e-07)
(-0.0310284 4.48776e-05 -3.17758e-07)
(-0.0308372 2.24524e-05 -1.64748e-07)
(-0.0307076 2.33744e-05 -1.0568e-07)
(-0.0305877 3.42257e-05 -8.38821e-08)
(-0.0304465 5.26173e-05 -8.60239e-08)
(-0.0302602 7.95226e-05 -1.03828e-07)
(-0.0300076 0.000116954 -1.29449e-07)
(-0.0296706 0.000166771 -1.51793e-07)
(-0.0292395 0.000228121 -1.51291e-07)
(-0.0287296 0.000288974 -5.43884e-08)
(-0.0282249 0.00029918 3.41527e-07)
(-0.0279782 7.54218e-05 6.52619e-07)
(-0.028716 -0.00104715 -1.40858e-06)
(-0.0333482 -0.00527869 3.76319e-06)
(-0.0486819 -0.0208602 5.61347e-05)
(-0.0261425 0.000572203 -1.34222e-06)
(-0.0277418 0.000407299 -9.17206e-07)
(-0.0288625 0.000271813 -5.89291e-07)
(-0.0296086 0.000171832 -3.57189e-07)
(-0.0300869 0.000104716 -2.06777e-07)
(-0.0303888 6.39374e-05 -1.17711e-07)
(-0.0305852 4.26036e-05 -7.10761e-08)
(-0.0307275 3.51973e-05 -5.29944e-08)
(-0.0308527 3.79523e-05 -5.45497e-08)
(-0.0309876 4.84861e-05 -7.00238e-08)
(-0.0311513 6.5075e-05 -9.5804e-08)
(-0.0313557 8.5735e-05 -1.28758e-07)
(-0.0316035 0.000107174 -1.64175e-07)
(-0.0318827 0.000123685 -1.93485e-07)
(-0.0321591 0.00012618 -2.01897e-07)
(-0.0323672 0.000101943 -1.69552e-07)
(-0.0324011 3.59761e-05 -7.14659e-08)
(-0.0321145 -8.75562e-05 1.41425e-07)
(-0.0313323 -0.000276 5.04178e-07)
(-0.0298815 -0.00052171 1.04078e-06)