/*--------------------------------*- C++ -*----------------------------------*\
| =========                 |                                                 |
| \\      /  F ield         | OpenFOAM: The Open Source CFD Toolbox           |
|  \\    /   O peration     | Version:  2.4.0                                 |
|   \\  /    A nd           | Web:      www.OpenFOAM.org                      |
|    \\/     M anipulation  |                                                 |
\*---------------------------------------------------------------------------*/
FoamFile
{
    version     2.0;
    format      ascii;
    class       volScalarField;
    location    "1.7";
    object      p;
}
// * * * * * * * * * * * * * * * * * * * * * * * * * * * * * * * * * * * * * //

dimensions      [0 2 -2 0 0 0 0];

internalField   nonuniform List<scalar> 
4800
(
-1.27253e-06
-0.00153682
-0.00308886
-0.00418293
-0.00451037
-0.003929
-0.00239695
7.80123e-05
0.00344754
0.00761369
0.00152869
-3.33591e-05
-0.0011261
-0.00171556
-0.00168562
-0.000931492
0.000590125
0.00289081
0.00595538
0.00973236
0.00311115
0.00101447
-8.35248e-05
-0.000525759
-0.000376622
0.000421228
0.00189663
0.00407116
0.00695891
0.0105485
0.00412277
0.00141822
0.000159458
-0.000295019
-0.000156663
0.000591484
0.00196783
0.00401089
0.00677537
0.0103049
0.00405122
0.00087146
-0.000555749
-0.0010895
-0.00104625
-0.000432557
0.000775899
0.00265325
0.00532043
0.00891992
0.00256591
-0.000890449
-0.00245354
-0.00311149
-0.00324169
-0.00285599
-0.00190341
-0.000249026
0.00233319
0.00618283
-0.000486116
-0.00399616
-0.00564299
-0.00645712
-0.00683701
-0.00678593
-0.00620734
-0.00488094
-0.00243165
0.00188444
-0.00509856
-0.00844199
-0.0101135
-0.0111071
-0.0118106
-0.0122146
-0.0121681
-0.011354
-0.00923132
-0.00425591
-0.0111138
-0.0140973
-0.0157348
-0.016918
-0.0180029
-0.0189765
-0.0196395
-0.019581
-0.0181632
-0.0123501
-0.0182394
-0.0207205
-0.0222684
-0.0236269
-0.0251142
-0.0267486
-0.0283489
-0.0295117
-0.0300095
-0.0253105
-3.37932e-06
-0.00155771
-0.00311951
-0.00422199
-0.00455439
-0.00397499
-0.00244294
3.39381e-05
0.00340764
0.00758047
0.00154522
-3.78604e-05
-0.00110907
-0.00168888
-0.0016542
-0.00089709
0.000624586
0.00292283
0.00598346
0.00975658
0.00314039
0.000989315
-8.47279e-05
-0.000524776
-0.000378024
0.000419906
0.0018952
0.00406911
0.00695615
0.0105469
0.00416497
0.0013832
0.000159445
-0.000292167
-0.000157922
0.00058973
0.00196563
0.00400755
0.00676992
0.0103002
0.0041024
0.000830635
-0.000551265
-0.00107973
-0.00104057
-0.000427208
0.000780594
0.00265581
0.00531673
0.00891322
0.00262135
-0.000935404
-0.00244772
-0.00309913
-0.00323333
-0.00284775
-0.0018954
-0.000242704
0.00232703
0.00616467
-0.000430738
-0.0040421
-0.00563679
-0.00644364
-0.00682689
-0.00677544
-0.00619571
-0.00486691
-0.00243968
0.00183879
-0.00504756
-0.00848594
-0.0101079
-0.011094
-0.0117999
-0.0122037
-0.0121558
-0.011332
-0.00925448
-0.00441546
-0.0110712
-0.014137
-0.0157309
-0.0169069
-0.0179927
-0.0189651
-0.0196238
-0.0195271
-0.018148
-0.0127083
-0.0182083
-0.0207548
-0.0222678
-0.0236206
-0.0251072
-0.0267378
-0.0283255
-0.0293748
-0.0296926
-0.0254122
-3.79076e-06
-0.00155792
-0.00311962
-0.00422206
-0.00455444
-0.00397502
-0.00244298
3.3909e-05
0.00340762
0.00758045
0.00154499
-3.80094e-05
-0.00110917
-0.00168895
-0.00165426
-0.000897129
0.000624548
0.00292279
0.00598343
0.00975656
0.00314026
0.000989218
-8.4805e-05
-0.000524843
-0.000378076
0.000419865
0.00189516
0.00406907
0.00695612
0.0105468
0.00416489
0.00138312
0.00015938
-0.000292229
-0.000157975
0.000589686
0.00196558
0.00400751
0.00676988
0.0103001
0.00410232
0.000830567
-0.00055133
-0.0010798
-0.00104062
-0.000427259
0.000780543
0.00265576
0.0053167
0.00891319
0.00262127
-0.000935471
-0.00244778
-0.0030992
-0.00323339
-0.0028478
-0.00189545
-0.000242747
0.002327
0.00616465
-0.00043081
-0.00404216
-0.00563685
-0.0064437
-0.00682695
-0.00677549
-0.00619575
-0.00486695
-0.00243971
0.00183877
-0.00504763
-0.008486
-0.0101079
-0.011094
-0.0118
-0.0122038
-0.0121558
-0.0113321
-0.0092545
-0.00441547
-0.0110713
-0.0141371
-0.015731
-0.016907
-0.0179927
-0.0189651
-0.0196238
-0.0195272
-0.0181481
-0.0127083
-0.0182084
-0.0207548
-0.0222679
-0.0236206
-0.0251073
-0.0267378
-0.0283255
-0.0293748
-0.0296926
-0.0254123
-2.96713e-06
-0.00153745
-0.00308915
-0.0041831
-0.00451049
-0.00392909
-0.00239702
7.79396e-05
0.00344748
0.00761365
0.00152801
-3.37558e-05
-0.00112635
-0.00171573
-0.00168575
-0.000931596
0.000590033
0.00289072
0.00595531
0.0097323
0.0031108
0.00101422
-8.37246e-05
-0.000525912
-0.000376756
0.000421118
0.00189653
0.00407106
0.00695883
0.0105484
0.00412252
0.00141801
0.000159275
-0.000295173
-0.000156806
0.00059136
0.00196771
0.00401078
0.00677528
0.0103048
0.00405101
0.000871278
-0.000555917
-0.00108965
-0.00104639
-0.000432687
0.000775778
0.00265314
0.00532033
0.00891985
0.00256571
-0.000890622
-0.00245371
-0.00311165
-0.00324184
-0.00285613
-0.00190354
-0.000249136
0.0023331
0.00618276
-0.000486306
-0.00399633
-0.00564316
-0.00645728
-0.00683716
-0.00678606
-0.00620746
-0.00488104
-0.00243173
0.00188438
-0.00509873
-0.00844215
-0.0101137
-0.0111072
-0.0118107
-0.0122147
-0.0121682
-0.0113541
-0.0092314
-0.00425597
-0.0111139
-0.0140974
-0.015735
-0.0169181
-0.0180031
-0.0189766
-0.0196396
-0.0195811
-0.0181633
-0.0123502
-0.0182395
-0.0207206
-0.0222686
-0.023627
-0.0251143
-0.0267487
-0.028349
-0.0295118
-0.0300096
-0.0253106
0.0124237
0.0176927
0.0232542
0.0289835
0.0347982
0.040651
0.0465193
0.0523978
0.0582939
0.0642256
0.0702217
0.0763229
0.0825821
0.0890623
0.0958316
0.102951
0.110456
0.118323
0.126445
0.134601
0.0141223
0.0189869
0.0241976
0.0296484
0.0352589
0.0409735
0.0467575
0.0525931
0.0584764
0.0644154
0.0704287
0.0765451
0.0828021
0.0892433
0.095913
0.102847
0.110056
0.117512
0.125119
0.132697
0.0147694
0.019482
0.0245639
0.0299138
0.0354506
0.0411149
0.046867
0.0526837
0.0585553
0.0644835
0.0704799
0.0765649
0.0827664
0.0891175
0.0956532
0.102404
0.109385
0.116582
0.123932
0.131294
0.0145507
0.0193113
0.024443
0.0298379
0.0354109
0.0411021
0.0468722
0.0526979
0.058568
0.0644806
0.0704418
0.0764648
0.0825688
0.0887791
0.0951266
0.101646
0.108372
0.115326
0.122499
0.129821
0.013437
0.018481
0.0238568
0.0294471
0.0351648
0.0409567
0.0467924
0.0526553
0.0585373
0.0644359
0.0703527
0.0762931
0.082267
0.0882904
0.0943896
0.100607
0.106999
0.113646
0.120625
0.127993
0.011388
0.0170458
0.0228928
0.0288297
0.0347861
0.0407346
0.0466682
0.0525858
0.0584879
0.0643738
0.0702415
0.0760878
0.0819109
0.0877141
0.0935135
0.0993529
0.105314
0.111539
0.11823
0.125697
0.00852629
0.0152547
0.0218014
0.028192
0.0344264
0.0405398
0.0465684
0.0525359
0.0584545
0.0643261
0.0701446
0.075897
0.0815666
0.087138
0.0926072
0.0980019
0.103428
0.109074
0.115301
0.122889
0.00523495
0.0135942
0.0209784
0.0278167
0.0342694
0.0404847
0.0465607
0.0525477
0.058467
0.0643207
0.070096
0.0757681
0.0813025
0.0866596
0.0918037
0.0967315
0.101542
0.106446
0.111924
0.119524
0.00345822
0.0136473
0.0213012
0.0281486
0.0345324
0.0406736
0.0466979
0.0526543
0.0585555
0.064394
0.0701463
0.0757731
0.0812188
0.0864117
0.0912667
0.0957143
0.0998022
0.103562
0.107316
0.113826
0.00794271
0.0187698
0.0243245
0.0298182
0.0354574
0.0411996
0.0470224
0.0528883
0.0587612
0.0646067
0.070383
0.0760332
0.0814756
0.0865916
0.0912108
0.095093
0.0979145
0.0993851
0.0987811
0.100966
0.0123989
0.0176754
0.0232428
0.0289764
0.0347939
0.0406484
0.0465175
0.0523964
0.0582924
0.0642236
0.0702191
0.0763195
0.0825777
0.0890572
0.0958261
0.102946
0.110453
0.118323
0.126453
0.134619
0.0141437
0.0190048
0.0242116
0.029659
0.0352668
0.0409794
0.046762
0.0525969
0.0584801
0.0644192
0.0704329
0.0765497
0.0828068
0.0892474
0.0959155
0.102846
0.11005
0.1175
0.125098
0.132668
0.0147721
0.0194867
0.0245689
0.0299186
0.0354546
0.0411181
0.0468695
0.0526856
0.0585567
0.0644846
0.0704809
0.0765657
0.0827669
0.0891176
0.0956526
0.102402
0.109382
0.116578
0.123926
0.131289
0.0145549
0.019318
0.0244495
0.0298437
0.0354156
0.0411055
0.0468746
0.0526996
0.0585691
0.0644813
0.0704424
0.0764652
0.082569
0.0887792
0.0951263
0.101645
0.10837
0.115322
0.122494
0.129816
0.0134484
0.0184936
0.0238669
0.029455
0.0351703
0.0409603
0.0467947
0.0526568
0.0585383
0.0644366
0.0703533
0.0762937
0.0822677
0.0882912
0.0943901
0.100606
0.106998
0.113642
0.120615
0.127979
0.0114125
0.0170664
0.0229055
0.0288381
0.0347911
0.0407372
0.0466695
0.0525864
0.0584882
0.064374
0.0702416
0.076088
0.0819114
0.0877149
0.0935144
0.099353
0.105314
0.111537
0.118213
0.125661
0.0085918
0.0152973
0.0218208
0.0282021
0.0344307
0.0405412
0.0465686
0.0525357
0.0584542
0.064326
0.0701447
0.0758973
0.0815673
0.0871392
0.0926088
0.098003
0.103427
0.109069
0.11526
0.122792
0.00534656
0.0136387
0.0209871
0.0278201
0.034269
0.0404829
0.0465591
0.0525464
0.0584659
0.0643198
0.0700952
0.0757675
0.0813022
0.08666
0.0918053
0.0967324
0.101541
0.106451
0.111888
0.119368
0.00359817
0.0135857
0.021233
0.02812
0.0345177
0.0406648
0.0466926
0.0526503
0.0585517
0.0643898
0.0701412
0.0757669
0.0812119
0.0864053
0.0912634
0.0957162
0.0998209
0.103646
0.107428
0.113654
0.00875376
0.0189035
0.0243331
0.0298398
0.0354713
0.0412059
0.047026
0.0528907
0.0587633
0.064609
0.0703859
0.0760369
0.0814799
0.0865964
0.0912142
0.0950895
0.0979046
0.0994136
0.0987202
0.0999553
0.0123988
0.0176754
0.0232428
0.0289764
0.0347939
0.0406484
0.0465175
0.0523964
0.0582924
0.0642236
0.0702191
0.0763195
0.0825777
0.0890572
0.0958261
0.102946
0.110453
0.118323
0.126453
0.134619
0.0141437
0.0190047
0.0242116
0.029659
0.0352668
0.0409794
0.046762
0.0525969
0.0584801
0.0644192
0.0704329
0.0765497
0.0828068
0.0892474
0.0959155
0.102846
0.11005
0.1175
0.125098
0.132668
0.0147721
0.0194867
0.0245689
0.0299185
0.0354546
0.0411181
0.0468695
0.0526856
0.0585567
0.0644846
0.0704809
0.0765657
0.0827669
0.0891176
0.0956526
0.102402
0.109382
0.116578
0.123926
0.131289
0.0145549
0.019318
0.0244495
0.0298437
0.0354156
0.0411055
0.0468746
0.0526996
0.0585691
0.0644813
0.0704424
0.0764652
0.082569
0.0887792
0.0951263
0.101645
0.10837
0.115322
0.122494
0.129816
0.0134483
0.0184936
0.0238669
0.029455
0.0351703
0.0409603
0.0467947
0.0526568
0.0585383
0.0644366
0.0703533
0.0762937
0.0822677
0.0882912
0.0943901
0.100606
0.106998
0.113642
0.120615
0.127979
0.0114124
0.0170664
0.0229055
0.0288381
0.0347911
0.0407372
0.0466695
0.0525864
0.0584882
0.064374
0.0702416
0.0760881
0.0819114
0.0877149
0.0935144
0.099353
0.105314
0.111537
0.118213
0.125661
0.00859179
0.0152973
0.0218208
0.028202
0.0344307
0.0405411
0.0465686
0.0525357
0.0584542
0.064326
0.0701447
0.0758973
0.0815673
0.0871392
0.0926088
0.098003
0.103427
0.109069
0.11526
0.122792
0.00534654
0.0136387
0.0209871
0.0278201
0.034269
0.0404829
0.0465591
0.0525464
0.0584659
0.0643198
0.0700952
0.0757675
0.0813022
0.08666
0.0918053
0.0967324
0.101541
0.106451
0.111888
0.119368
0.00359814
0.0135857
0.021233
0.02812
0.0345177
0.0406648
0.0466926
0.0526503
0.0585517
0.0643898
0.0701412
0.0757669
0.0812119
0.0864053
0.0912635
0.0957162
0.099821
0.103646
0.107428
0.113654
0.00875375
0.0189035
0.024333
0.0298398
0.0354713
0.0412059
0.047026
0.0528907
0.0587633
0.064609
0.0703859
0.0760369
0.0814799
0.0865964
0.0912142
0.0950895
0.0979046
0.0994137
0.0987203
0.0999553
0.0124237
0.0176926
0.0232542
0.0289835
0.0347982
0.040651
0.0465193
0.0523978
0.0582939
0.0642256
0.0702217
0.0763229
0.0825821
0.0890623
0.0958316
0.102951
0.110456
0.118323
0.126445
0.134601
0.0141222
0.0189869
0.0241975
0.0296483
0.0352589
0.0409735
0.0467575
0.0525931
0.0584764
0.0644154
0.0704287
0.0765451
0.0828021
0.0892433
0.095913
0.102847
0.110056
0.117512
0.125119
0.132697
0.0147694
0.019482
0.0245638
0.0299138
0.0354506
0.0411149
0.046867
0.0526837
0.0585553
0.0644835
0.0704799
0.0765649
0.0827664
0.0891175
0.0956532
0.102404
0.109385
0.116582
0.123932
0.131294
0.0145507
0.0193113
0.0244429
0.0298379
0.0354109
0.0411021
0.0468722
0.0526979
0.0585679
0.0644806
0.0704418
0.0764648
0.0825688
0.0887791
0.0951266
0.101646
0.108372
0.115326
0.122499
0.129821
0.013437
0.0184809
0.0238568
0.0294471
0.0351648
0.0409566
0.0467924
0.0526553
0.0585373
0.0644359
0.0703527
0.0762931
0.082267
0.0882904
0.0943896
0.100607
0.106999
0.113646
0.120625
0.127993
0.0113879
0.0170457
0.0228928
0.0288296
0.0347861
0.0407346
0.0466682
0.0525858
0.0584879
0.0643738
0.0702415
0.0760878
0.0819109
0.0877141
0.0935135
0.0993529
0.105314
0.111539
0.11823
0.125697
0.00852624
0.0152547
0.0218014
0.0281919
0.0344264
0.0405398
0.0465684
0.0525359
0.0584545
0.0643261
0.0701447
0.0758971
0.0815666
0.087138
0.0926072
0.0980019
0.103428
0.109074
0.115301
0.122889
0.0052349
0.0135942
0.0209783
0.0278166
0.0342694
0.0404847
0.0465607
0.0525477
0.058467
0.0643207
0.070096
0.0757682
0.0813026
0.0866596
0.0918037
0.0967315
0.101542
0.106446
0.111924
0.119524
0.00345818
0.0136473
0.0213012
0.0281486
0.0345323
0.0406736
0.0466979
0.0526543
0.0585555
0.064394
0.0701463
0.0757731
0.0812188
0.0864118
0.0912668
0.0957144
0.0998022
0.103562
0.107316
0.113826
0.00794268
0.0187698
0.0243245
0.0298182
0.0354574
0.0411995
0.0470224
0.0528882
0.0587612
0.0646067
0.070383
0.0760332
0.0814756
0.0865917
0.0912109
0.0950931
0.0979145
0.0993852
0.0987813
0.100967
0.142449
0.149576
0.155593
0.160208
0.163263
0.164751
0.164824
0.163813
0.16223
0.160697
0.139969
0.146593
0.15225
0.156698
0.159806
0.16157
0.162119
0.161715
0.160667
0.159162
0.138421
0.144956
0.150578
0.155051
0.158243
0.160143
0.16086
0.160617
0.159574
0.15761
0.137063
0.143772
0.149584
0.154236
0.157585
0.159609
0.160406
0.160176
0.158986
0.156516
0.135575
0.142686
0.14888
0.153856
0.157454
0.159653
0.160545
0.160327
0.159018
0.15619
0.133939
0.141711
0.148474
0.153905
0.15784
0.160268
0.161296
0.161128
0.159775
0.156774
0.132338
0.141045
0.148518
0.154482
0.158792
0.161477
0.162675
0.162607
0.161302
0.158311
0.131173
0.1411
0.149328
0.155806
0.160445
0.163356
0.164722
0.164788
0.16361
0.160794
0.130673
0.142512
0.151444
0.158251
0.163026
0.166026
0.167492
0.167685
0.166686
0.164176
0.135366
0.148313
0.156409
0.16256
0.166874
0.169629
0.17103
0.171287
0.170478
0.168361
0.14248
0.149618
0.155644
0.160263
0.163318
0.164802
0.164866
0.163842
0.162247
0.160696
0.139935
0.146553
0.152206
0.156652
0.159761
0.161529
0.162084
0.16169
0.160663
0.159141
0.138422
0.14496
0.150584
0.155057
0.158249
0.160147
0.16086
0.160616
0.159592
0.157579
0.137069
0.143783
0.149597
0.15425
0.157597
0.159619
0.160409
0.160177
0.159013
0.156477
0.135582
0.142696
0.14889
0.153866
0.157463
0.159659
0.160544
0.160326
0.159049
0.156146
0.13395
0.141722
0.148485
0.153916
0.157848
0.160273
0.161294
0.161126
0.159809
0.156728
0.132361
0.141061
0.14853
0.154494
0.1588
0.161482
0.162673
0.162606
0.161336
0.158265
0.13131
0.141154
0.14935
0.15582
0.160452
0.163359
0.164719
0.164786
0.163642
0.16075
0.130989
0.142527
0.151421
0.158243
0.16302
0.166022
0.167487
0.167682
0.166714
0.164136
0.135265
0.147956
0.15625
0.162515
0.166856
0.169622
0.171025
0.171285
0.170503
0.168328
0.14248
0.149618
0.155644
0.160263
0.163318
0.164802
0.164866
0.163842
0.162247
0.160696
0.139935
0.146553
0.152206
0.156652
0.159761
0.161529
0.162083
0.16169
0.160663
0.159141
0.138422
0.144959
0.150584
0.155057
0.158249
0.160147
0.16086
0.160616
0.159592
0.157579
0.137069
0.143783
0.149597
0.15425
0.157597
0.159619
0.160409
0.160177
0.159013
0.156477
0.135582
0.142696
0.14889
0.153866
0.157463
0.159659
0.160544
0.160326
0.159049
0.156146
0.13395
0.141722
0.148485
0.153916
0.157848
0.160273
0.161294
0.161126
0.159809
0.156728
0.132361
0.141061
0.14853
0.154494
0.1588
0.161482
0.162673
0.162606
0.161336
0.158265
0.13131
0.141154
0.14935
0.15582
0.160452
0.163359
0.164719
0.164786
0.163642
0.16075
0.130989
0.142527
0.151421
0.158243
0.16302
0.166022
0.167487
0.167682
0.166714
0.164136
0.135265
0.147956
0.15625
0.162515
0.166856
0.169622
0.171025
0.171285
0.170503
0.168328
0.142449
0.149576
0.155593
0.160208
0.163263
0.164751
0.164824
0.163813
0.16223
0.160697
0.139969
0.146593
0.15225
0.156698
0.159806
0.16157
0.162118
0.161715
0.160667
0.159162
0.138421
0.144955
0.150578
0.155051
0.158243
0.160143
0.16086
0.160617
0.159574
0.15761
0.137062
0.143772
0.149584
0.154236
0.157585
0.159609
0.160406
0.160176
0.158986
0.156516
0.135575
0.142686
0.14888
0.153856
0.157454
0.159653
0.160545
0.160327
0.159018
0.15619
0.133939
0.141711
0.148474
0.153905
0.15784
0.160268
0.161295
0.161128
0.159775
0.156774
0.132338
0.141045
0.148518
0.154482
0.158792
0.161477
0.162675
0.162607
0.161302
0.158311
0.131173
0.1411
0.149328
0.155806
0.160445
0.163356
0.164722
0.164788
0.16361
0.160794
0.130673
0.142512
0.151444
0.158251
0.163026
0.166026
0.167492
0.167685
0.166686
0.164176
0.135366
0.148314
0.156409
0.16256
0.166874
0.169629
0.17103
0.171286
0.170478
0.168361
0.168579
0.164095
0.165882
0.169192
0.172076
0.17415
0.175286
0.175523
0.17489
0.173198
0.179356
0.17425
0.174218
0.175906
0.17773
0.179199
0.180059
0.180256
0.179782
0.178504
0.184855
0.181866
0.181576
0.182438
0.183573
0.184579
0.185205
0.18536
0.185025
0.184114
0.190286
0.188675
0.188391
0.188815
0.189505
0.190174
0.190613
0.190732
0.19051
0.189901
0.19586
0.195026
0.194827
0.195042
0.19546
0.195895
0.196194
0.196284
0.196151
0.195779
0.201542
0.201151
0.201043
0.20116
0.20141
0.201685
0.201881
0.201948
0.201881
0.20169
0.207331
0.207194
0.207154
0.207216
0.207354
0.207511
0.207625
0.207667
0.207646
0.207592
0.213209
0.213241
0.213235
0.21325
0.213296
0.21335
0.213386
0.213394
0.213398
0.213454
0.219204
0.219339
0.219341
0.219296
0.219243
0.219187
0.219132
0.219088
0.219095
0.219231
0.225349
0.225547
0.22552
0.225384
0.225203
0.225007
0.224832
0.224707
0.224689
0.224875
0.231711
0.231923
0.23182
0.231544
0.231183
0.230799
0.230457
0.230209
0.230127
0.230324
0.238382
0.238534
0.238288
0.237801
0.23719
0.236549
0.235977
0.235551
0.235353
0.235501
0.245482
0.245452
0.244964
0.244176
0.243225
0.242245
0.241367
0.240695
0.240312
0.24032
0.253162
0.252738
0.251875
0.250673
0.249282
0.247874
0.246612
0.245617
0.244962
0.244693
0.261614
0.260407
0.258996
0.257263
0.255337
0.253426
0.251713
0.250322
0.249289
0.248545
0.270949
0.268448
0.266222
0.263839
0.261322
0.258884
0.256693
0.254853
0.25332
0.251856
0.281266
0.27653
0.273214
0.270143
0.267081
0.264204
0.261605
0.25932
0.25717
0.254661
0.292214
0.283881
0.279264
0.275656
0.272303
0.269277
0.266514
0.263904
0.261062
0.257123
0.303659
0.289516
0.283211
0.279444
0.276382
0.273843
0.271459
0.268867
0.265361
0.259577
0.315303
0.290149
0.281914
0.279346
0.278061
0.277329
0.276392
0.274542
0.270629
0.262614
0.16939
0.164235
0.165994
0.169257
0.172101
0.174161
0.17529
0.175526
0.174911
0.173173
0.179489
0.174188
0.174262
0.175949
0.177751
0.179211
0.180066
0.18026
0.179799
0.178487
0.184863
0.181798
0.181585
0.182458
0.183586
0.18459
0.185211
0.185365
0.185038
0.184103
0.190308
0.188647
0.188394
0.188825
0.189514
0.190182
0.190619
0.190736
0.19052
0.189894
0.195873
0.195013
0.194827
0.195046
0.195465
0.1959
0.196198
0.196288
0.196158
0.195776
0.201547
0.201145
0.201042
0.201161
0.201413
0.201688
0.201884
0.20195
0.201884
0.201689
0.207333
0.207192
0.207153
0.207216
0.207356
0.207513
0.207627
0.207668
0.207647
0.207592
0.213209
0.213242
0.213235
0.21325
0.213297
0.213351
0.213387
0.213395
0.213397
0.213456
0.219202
0.219342
0.21934
0.219295
0.219243
0.219187
0.219133
0.219089
0.219093
0.219234
0.225346
0.225551
0.22552
0.225384
0.225203
0.225007
0.224832
0.224708
0.224685
0.224879
0.231707
0.231928
0.23182
0.231543
0.231183
0.230799
0.230457
0.230209
0.230122
0.230329
0.238377
0.238539
0.238287
0.2378
0.237189
0.236548
0.235977
0.235551
0.235348
0.235506
0.245477
0.245454
0.244962
0.244174
0.243224
0.242244
0.241367
0.240696
0.240309
0.240325
0.253157
0.252734
0.251871
0.25067
0.24928
0.247873
0.246612
0.245619
0.244963
0.244698
0.261612
0.260389
0.25899
0.257259
0.255333
0.253424
0.251713
0.250325
0.249298
0.248546
0.27096
0.268411
0.266214
0.263836
0.261318
0.258882
0.256694
0.254859
0.25334
0.251852
0.281319
0.276462
0.273207
0.270142
0.267076
0.264202
0.261606
0.259328
0.257208
0.254647
0.292293
0.283711
0.27924
0.275654
0.272295
0.269276
0.266516
0.263917
0.261124
0.257095
0.303789
0.289183
0.28321
0.279485
0.276396
0.273855
0.271468
0.268888
0.265459
0.259529
0.316646
0.29024
0.282206
0.279532
0.278129
0.277363
0.276409
0.274573
0.27077
0.262538
0.16939
0.164235
0.165994
0.169257
0.172101
0.174161
0.17529
0.175526
0.174911
0.173173
0.179489
0.174188
0.174262
0.175949
0.177751
0.179211
0.180066
0.18026
0.179799
0.178487
0.184864
0.181798
0.181585
0.182458
0.183586
0.18459
0.185211
0.185365
0.185038
0.184103
0.190308
0.188647
0.188394
0.188825
0.189514
0.190182
0.190619
0.190736
0.19052
0.189894
0.195873
0.195013
0.194827
0.195046
0.195465
0.1959
0.196198
0.196288
0.196158
0.195776
0.201547
0.201145
0.201042
0.201161
0.201413
0.201688
0.201884
0.20195
0.201884
0.201689
0.207333
0.207192
0.207153
0.207216
0.207356
0.207513
0.207627
0.207668
0.207647
0.207592
0.213209
0.213242
0.213235
0.21325
0.213297
0.213351
0.213387
0.213395
0.213397
0.213456
0.219202
0.219342
0.21934
0.219295
0.219243
0.219187
0.219133
0.219089
0.219093
0.219234
0.225346
0.225551
0.22552
0.225384
0.225203
0.225007
0.224832
0.224708
0.224685
0.224879
0.231707
0.231928
0.23182
0.231543
0.231183
0.230799
0.230457
0.230209
0.230122
0.230329
0.238377
0.238539
0.238287
0.2378
0.237189
0.236548
0.235977
0.235551
0.235348
0.235506
0.245477
0.245454
0.244962
0.244174
0.243224
0.242244
0.241367
0.240696
0.240309
0.240325
0.253157
0.252734
0.251871
0.25067
0.24928
0.247873
0.246612
0.245619
0.244963
0.244698
0.261612
0.260389
0.25899
0.257259
0.255333
0.253424
0.251713
0.250325
0.249298
0.248546
0.27096
0.268411
0.266214
0.263836
0.261318
0.258882
0.256694
0.254859
0.25334
0.251852
0.281319
0.276462
0.273207
0.270142
0.267076
0.264202
0.261606
0.259328
0.257208
0.254647
0.292293
0.283711
0.27924
0.275654
0.272295
0.269276
0.266516
0.263917
0.261124
0.257095
0.303789
0.289183
0.28321
0.279485
0.276396
0.273855
0.271468
0.268888
0.265459
0.259529
0.316646
0.29024
0.282206
0.279532
0.278129
0.277363
0.276409
0.274573
0.27077
0.262539
0.168579
0.164095
0.165882
0.169192
0.172076
0.17415
0.175286
0.175523
0.17489
0.173198
0.179356
0.17425
0.174218
0.175906
0.17773
0.179199
0.180059
0.180256
0.179782
0.178504
0.184855
0.181866
0.181576
0.182438
0.183573
0.184579
0.185205
0.18536
0.185025
0.184114
0.190286
0.188675
0.188391
0.188815
0.189505
0.190174
0.190613
0.190732
0.19051
0.189901
0.19586
0.195026
0.194827
0.195042
0.19546
0.195895
0.196194
0.196284
0.196151
0.195779
0.201542
0.201151
0.201043
0.20116
0.20141
0.201685
0.201881
0.201948
0.201881
0.20169
0.207331
0.207194
0.207154
0.207216
0.207354
0.207511
0.207625
0.207667
0.207646
0.207592
0.213209
0.213241
0.213235
0.21325
0.213296
0.21335
0.213386
0.213394
0.213398
0.213454
0.219204
0.219339
0.219341
0.219296
0.219243
0.219187
0.219132
0.219088
0.219095
0.219231
0.225349
0.225547
0.22552
0.225384
0.225203
0.225007
0.224832
0.224707
0.224689
0.224875
0.231711
0.231923
0.23182
0.231544
0.231183
0.230799
0.230457
0.230209
0.230127
0.230324
0.238382
0.238534
0.238288
0.237801
0.23719
0.236549
0.235977
0.235551
0.235353
0.235501
0.245482
0.245452
0.244964
0.244176
0.243225
0.242245
0.241367
0.240695
0.240312
0.24032
0.253162
0.252738
0.251875
0.250673
0.249282
0.247874
0.246612
0.245617
0.244962
0.244693
0.261614
0.260407
0.258996
0.257263
0.255337
0.253426
0.251713
0.250322
0.249289
0.248545
0.270949
0.268448
0.266222
0.263839
0.261322
0.258884
0.256693
0.254853
0.25332
0.251856
0.281266
0.27653
0.273214
0.270143
0.267082
0.264204
0.261605
0.25932
0.25717
0.254661
0.292214
0.283881
0.279264
0.275656
0.272303
0.269277
0.266514
0.263904
0.261062
0.257123
0.303659
0.289516
0.283211
0.279444
0.276382
0.273843
0.271459
0.268867
0.265361
0.259577
0.315303
0.29015
0.281914
0.279346
0.278061
0.277329
0.276392
0.274542
0.270629
0.262614
0.253783
0.262484
0.268062
0.272271
0.275859
0.279102
0.281283
0.281405
0.277701
0.267207
0.224699
0.240778
0.25218
0.261789
0.270867
0.279476
0.286483
0.29022
0.28783
0.274908
0.207353
0.222851
0.236291
0.249791
0.264202
0.279096
0.292648
0.302109
0.30283
0.28816
0.193864
0.207742
0.221915
0.238261
0.25759
0.279303
0.301048
0.318801
0.325379
0.310902
0.18396
0.196524
0.211054
0.229631
0.253442
0.282243
0.313725
0.342862
0.359451
0.349614
0.177934
0.190067
0.20531
0.226095
0.254262
0.290426
0.333226
0.377617
0.410654
0.414451
0.175654
0.188444
0.205186
0.228694
0.261559
0.305704
0.361752
0.426366
0.485586
0.519811
0.17628
0.190505
0.20936
0.236049
0.274068
0.327112
0.398884
0.489445
0.589398
0.692958
0.178148
0.193539
0.213836
0.242567
0.284193
0.344653
0.432303
0.5554
0.724154
1.00392
0.179647
0.194506
0.21363
0.240398
0.279529
0.338421
0.431108
0.585147
0.871378
1.4884
0.254112
0.262008
0.267934
0.272258
0.275856
0.27911
0.281288
0.281439
0.277896
0.267095
0.225132
0.240721
0.252122
0.261757
0.270845
0.279471
0.286476
0.290258
0.288093
0.274755
0.207615
0.222872
0.236262
0.249752
0.264164
0.279071
0.292619
0.302144
0.303172
0.287964
0.193956
0.207728
0.221865
0.238195
0.257518
0.279238
0.300975
0.318819
0.325792
0.310662
0.183988
0.196493
0.210985
0.229535
0.25333
0.282122
0.313587
0.342839
0.359888
0.349357
0.177942
0.190031
0.205231
0.225977
0.254104
0.290227
0.332983
0.3775
0.411014
0.414398
0.175668
0.188422
0.205119
0.228572
0.261362
0.305391
0.36132
0.426043
0.485552
0.52029
0.176324
0.190539
0.209381
0.236049
0.274016
0.326911
0.39852
0.489164
0.588015
0.692622
0.178218
0.193651
0.214019
0.242856
0.284623
0.345214
0.433048
0.556008
0.720897
1.00161
0.179698
0.194547
0.213652
0.240404
0.279546
0.3385
0.43147
0.585585
0.867686
1.49765
0.254112
0.262008
0.267934
0.272258
0.275856
0.27911
0.281288
0.281439
0.277896
0.267095
0.225132
0.240721
0.252122
0.261757
0.270845
0.279471
0.286476
0.290258
0.288093
0.274755
0.207615
0.222872
0.236262
0.249752
0.264164
0.279071
0.292619
0.302144
0.303172
0.287964
0.193956
0.207728
0.221865
0.238195
0.257518
0.279238
0.300975
0.318819
0.325792
0.310662
0.183988
0.196493
0.210985
0.229535
0.25333
0.282122
0.313587
0.342839
0.359888
0.349357
0.177942
0.190031
0.205231
0.225977
0.254104
0.290227
0.332983
0.3775
0.411014
0.414398
0.175668
0.188422
0.205119
0.228572
0.261362
0.305391
0.36132
0.426043
0.485552
0.52029
0.176324
0.190539
0.209381
0.236049
0.274016
0.326911
0.39852
0.489164
0.588015
0.692622
0.178218
0.193651
0.214019
0.242856
0.284623
0.345214
0.433048
0.556008
0.720897
1.00161
0.179698
0.194548
0.213652
0.240404
0.279546
0.3385
0.43147
0.585585
0.867686
1.49765
0.253783
0.262484
0.268062
0.272271
0.275859
0.279102
0.281283
0.281405
0.277701
0.267207
0.224699
0.240778
0.25218
0.261789
0.270867
0.279477
0.286483
0.29022
0.28783
0.274908
0.207354
0.222851
0.236291
0.249791
0.264203
0.279097
0.292649
0.302109
0.30283
0.28816
0.193864
0.207742
0.221915
0.238261
0.25759
0.279303
0.301048
0.318801
0.325379
0.310902
0.18396
0.196524
0.211054
0.229631
0.253442
0.282243
0.313725
0.342862
0.359451
0.349614
0.177934
0.190068
0.20531
0.226095
0.254262
0.290426
0.333226
0.377617
0.410654
0.414451
0.175654
0.188444
0.205186
0.228695
0.261559
0.305704
0.361752
0.426366
0.485586
0.519811
0.17628
0.190505
0.20936
0.236049
0.274068
0.327112
0.398884
0.489445
0.589398
0.692958
0.178148
0.193539
0.213836
0.242567
0.284193
0.344653
0.432303
0.5554
0.724154
1.00392
0.179647
0.194506
0.21363
0.240398
0.279529
0.338421
0.431108
0.585147
0.871379
1.4884
-0.151723
-0.131195
-0.113351
-0.0968431
-0.0803147
-0.063576
-0.0466293
-0.0295166
-0.0123027
0.00493741
0.0221242
0.039184
0.056035
0.0726328
0.0889938
0.105297
0.122016
0.140176
0.163062
0.200677
-0.138191
-0.124728
-0.110265
-0.0950619
-0.0791759
-0.062816
-0.0461167
-0.0291761
-0.0120802
0.00509451
0.0222799
0.0394121
0.0564554
0.073402
0.0903223
0.107422
0.125099
0.143984
0.165604
0.193547
-0.135188
-0.123159
-0.109459
-0.0946148
-0.0789425
-0.0627009
-0.0460596
-0.0291397
-0.0120349
0.00517937
0.0224409
0.0396979
0.0569161
0.0740857
0.0912447
0.108511
0.126103
0.144327
0.163764
0.185387
-0.13651
-0.124142
-0.110237
-0.0952391
-0.079449
-0.0631004
-0.0463583
-0.0293402
-0.0121327
0.00519797
0.0225985
0.0400228
0.0574291
0.0747809
0.0920505
0.109227
0.126317
0.143327
0.160329
0.177452
-0.13938
-0.12629
-0.111858
-0.096455
-0.0803549
-0.0637647
-0.0468297
-0.0296502
-0.0122964
0.0051799
0.0227358
0.0403278
0.0579028
0.0753892
0.0926883
0.109667
0.126154
0.141943
0.156863
0.170875
-0.142031
-0.128267
-0.113322
-0.0975238
-0.0811247
-0.0643082
-0.0471991
-0.0298797
-0.0124048
0.00518597
0.0228565
0.0405621
0.0582358
0.0757732
0.0930181
0.109752
0.125698
0.140555
0.154103
0.166392
-0.142777
-0.128719
-0.113592
-0.097678
-0.0812046
-0.0643387
-0.047194
-0.029845
-0.0123412
0.00528024
0.0229821
0.040713
0.0583923
0.0758925
0.093025
0.109534
0.125114
0.139468
0.152438
0.164228
-0.140704
-0.126962
-0.112178
-0.0965783
-0.0803685
-0.0637115
-0.046726
-0.0294952
-0.0120783
0.00547761
0.0231246
0.0407997
0.0584099
0.0758165
0.0928231
0.109177
0.124598
0.138848
0.151877
0.164028
-0.135814
-0.123174
-0.10933
-0.0944864
-0.0788596
-0.0626376
-0.0459694
-0.0289677
-0.011717
0.00571518
0.0232661
0.0408586
0.0583908
0.0757229
0.0926654
0.108986
0.12444
0.138848
0.152227
0.164987
-0.127774
-0.117388
-0.105258
-0.0916753
-0.0769507
-0.0613598
-0.0451261
-0.0284205
-0.0113703
0.00592642
0.0233858
0.0409284
0.0584534
0.0758246
0.0928637
0.10935
0.125047
0.139763
0.15347
0.166478
-0.152073
-0.131072
-0.113335
-0.0968646
-0.0803269
-0.0635834
-0.0466346
-0.0295199
-0.0123044
0.0049371
0.0221247
0.0391847
0.056035
0.0726301
0.0889843
0.105276
0.121993
0.140129
0.162729
0.200035
-0.138134
-0.124563
-0.11019
-0.0950259
-0.0791498
-0.0627977
-0.0461042
-0.0291677
-0.0120748
0.00509775
0.0222821
0.0394147
0.0564605
0.0734125
0.0903415
0.107454
0.12516
0.14406
0.165508
0.193282
-0.135245
-0.123133
-0.109435
-0.0945965
-0.0789278
-0.0626903
-0.0460523
-0.0291346
-0.0120313
0.00518173
0.0224424
0.039699
0.0569168
0.074086
0.0912432
0.108506
0.126097
0.14431