/*--------------------------------*- C++ -*----------------------------------*\
| =========                 |                                                 |
| \\      /  F ield         | OpenFOAM: The Open Source CFD Toolbox           |
|  \\    /   O peration     | Version:  2.4.0                                 |
|   \\  /    A nd           | Web:      www.OpenFOAM.org                      |
|    \\/     M anipulation  |                                                 |
\*---------------------------------------------------------------------------*/
FoamFile
{
    version     2.0;
    format      ascii;
    class       surfaceScalarField;
    location    "1.7";
    object      phi;
}
// * * * * * * * * * * * * * * * * * * * * * * * * * * * * * * * * * * * * * //

dimensions      [0 3 -1 0 0 0 0];

internalField   nonuniform List<scalar> 
12720
(
1.26242e-07
-1.26111e-07
1.77692e-10
-5.69278e-07
6.93802e-07
1.71892e-09
-2.05918e-06
1.48738e-06
2.52238e-09
-4.10152e-06
2.03912e-06
3.2143e-09
-6.46984e-06
2.3647e-06
3.62279e-09
-8.97886e-06
2.50524e-06
3.78468e-09
-1.14762e-05
2.49353e-06
3.78523e-09
-1.38296e-05
2.34976e-06
3.62704e-09
-1.59235e-05
2.09068e-06
3.28354e-09
1.7439e-06
2.73406e-09
-1.76702e-05
-7.229e-07
5.98148e-07
-1.36052e-09
-3.22214e-06
3.19265e-06
3.91044e-10
-7.271e-06
5.53771e-06
-1.47874e-09
-1.24593e-05
7.22973e-06
-2.31812e-09
-1.83591e-05
8.26725e-06
-2.72957e-09
-2.4573e-05
8.72207e-06
-2.98862e-09
-3.0741e-05
8.66457e-06
-2.99373e-09
-3.65385e-05
8.15e-06
-2.78146e-09
-4.1685e-05
7.23964e-06
-2.43961e-09
6.03651e-06
-2.10448e-09
-4.59755e-05
-1.63789e-06
2.23845e-06
-2.40624e-09
-5.89431e-06
7.44689e-06
2.18504e-09
-1.21846e-05
1.18279e-05
1.04515e-10
-1.9938e-05
1.49832e-05
-8.53894e-11
-2.85986e-05
1.69277e-05
1.21775e-10
-3.76391e-05
1.77625e-05
1.14837e-10
-4.65616e-05
1.75869e-05
1.24443e-10
-5.48991e-05
1.64873e-05
1.7831e-10
-6.22387e-05
1.45789e-05
2.39251e-10
1.20729e-05
1.42828e-10
-6.82752e-05
-2.37399e-06
4.61591e-06
-3.47326e-09
-8.09456e-06
1.31644e-05
3.04225e-09
-1.62175e-05
1.99509e-05
1.13999e-12
-2.6e-05
2.4766e-05
-2.47794e-10
-3.67829e-05
2.77104e-05
1.09453e-10
-4.79509e-05
2.89304e-05
1.52377e-10
-5.89082e-05
2.8544e-05
1.91221e-10
-6.90727e-05
2.66515e-05
2.89864e-10
-7.79047e-05
2.34105e-05
4.73667e-10
1.91527e-05
4.11412e-10
-8.49849e-05
-2.88422e-06
7.50435e-06
-4.21194e-09
-9.65728e-06
1.99339e-05
3.54656e-09
-1.91006e-05
2.93945e-05
-3.89492e-10
-3.03298e-05
3.59961e-05
-8.48778e-10
-4.26079e-05
3.9989e-05
-4.93575e-10
-5.52604e-05
4.15833e-05
-4.64652e-10
-6.76204e-05
4.09044e-05
-4.07898e-10
-7.90045e-05
3.80358e-05
-2.22233e-10
-8.87308e-05
3.31364e-05
3.20699e-10
2.66336e-05
5.82058e-10
-9.62123e-05
-3.15314e-06
1.0662e-05
-4.56222e-09
-1.05021e-05
2.7279e-05
3.90533e-09
-2.06764e-05
3.95694e-05
-5.06247e-10
-3.2708e-05
4.80287e-05
-1.07387e-09
-4.5816e-05
5.30978e-05
-7.25783e-10
-5.92968e-05
5.50648e-05
-7.16385e-10
-7.24412e-05
5.40496e-05
-6.9589e-10
-8.44799e-05
5.0075e-05
-5.49246e-10
-9.4566e-05
4.3222e-05
5.34796e-10
3.3905e-05
1.57741e-09
-0.000101839
-3.17708e-06
1.38437e-05
-4.55727e-09
-1.05954e-05
3.46933e-05
3.99047e-09
-2.08616e-05
4.98361e-05
-5.38786e-10
-3.29886e-05
6.01569e-05
-1.17154e-09
-4.619e-05
6.63e-05
-8.78348e-10
-5.97658e-05
6.86416e-05
-9.11263e-10
-7.30031e-05
6.72879e-05
-1.01086e-09
-8.50845e-05
6.21576e-05
-1.2184e-09
-9.49991e-05
5.3136e-05
6.9722e-10
4.03569e-05
3.96581e-09
-0.000101455
-2.96475e-06
1.68126e-05
-4.19654e-09
-9.95054e-06
4.16753e-05
3.81819e-09
-1.96543e-05
5.95404e-05
-4.91905e-10
-3.11251e-05
7.16289e-05
-1.14112e-09
-4.35971e-05
7.87729e-05
-9.26399e-10
-5.6397e-05
8.14425e-05
-9.45936e-10
-6.88493e-05
7.97413e-05
-1.07078e-09
-8.0158e-05
7.34681e-05
-1.90915e-09
-8.92296e-05
6.22056e-05
2.01161e-09
4.5279e-05
1.38599e-08
-9.41656e-05
-2.54531e-06
1.93614e-05
-3.50345e-09
-8.64794e-06
4.77745e-05
3.45313e-09
-1.71781e-05
6.80709e-05
-3.41054e-10
-2.72495e-05
8.17012e-05
-9.62975e-10
-3.81127e-05
8.9637e-05
-8.93082e-10
-4.91042e-05
9.24349e-05
-9.92923e-10
-5.95846e-05
9.02231e-05
-1.35978e-09
-6.88319e-05
8.272e-05
-4.67673e-09
-7.58812e-05
6.92562e-05
-1.31881e-09
4.76218e-05
3.11145e-08
-7.82551e-05
-1.9774e-06
-2.55329e-09
2.13414e-05
-6.86122e-06
2.9829e-09
5.26553e-05
-1.37387e-05
-5.2998e-11
7.49484e-05
-2.17877e-05
-5.50102e-10
8.97508e-05
-3.02292e-05
-6.06797e-10
9.80791e-05
-3.83081e-05
-9.39405e-10
0.000100515
-4.52672e-05
-2.03736e-09
9.71843e-05
-5.02399e-05
-1.18926e-08
8.77046e-05
-5.21452e-05
-2.75354e-08
7.11891e-05
8.83491e-09
-4.97724e-05
4.52401e-05
1.27754e-07
-1.27608e-07
3.18778e-11
-5.6986e-07
6.99315e-07
1.70878e-11
-2.0599e-06
1.49255e-06
9.3882e-12
-4.10163e-06
2.04495e-06
6.10432e-12
-6.46969e-06
2.37167e-06
4.00535e-12
-8.9787e-06
2.51279e-06
2.7931e-12
-1.14761e-05
2.50119e-06
2.68558e-12
-1.38296e-05
2.35716e-06
2.58438e-12
-1.59238e-05
2.09747e-06
1.94755e-12
1.74957e-06
1.51757e-12
-1.76707e-05
-7.2778e-07
5.98793e-07
1.87672e-11
-3.22751e-06
3.19942e-06
1.2984e-11
-7.2757e-06
5.53925e-06
8.6652e-12
-1.24625e-05
7.22942e-06
6.45753e-12
-1.83606e-05
8.26703e-06
4.82787e-12
-2.45729e-05
8.72214e-06
3.72801e-12
-3.07398e-05
8.66503e-06
3.5284e-12
-3.65364e-05
8.151e-06
3.29991e-12
-4.16826e-05
7.24121e-06
2.66605e-12
6.03795e-06
2.18744e-12
-4.59731e-05
-1.64317e-06
2.23955e-06
1.08175e-11
-5.89505e-06
7.45348e-06
8.79324e-12
-1.21853e-05
1.18296e-05
7.04965e-12
-1.99389e-05
1.49829e-05
6.07863e-12
-2.8599e-05
1.69272e-05
4.95462e-12
-3.7639e-05
1.77623e-05
3.96342e-12
-4.65611e-05
1.75872e-05
3.85203e-12
-5.48983e-05
1.64884e-05
3.69981e-12
-6.22381e-05
1.45812e-05
3.02525e-12
1.20749e-05
2.42787e-12
-6.82749e-05
-2.38051e-06
4.61658e-06
7.68524e-12
-8.09348e-06
1.31695e-05
6.91432e-12
-1.62164e-05
1.99525e-05
6.16038e-12
-2.59997e-05
2.4766e-05
5.7947e-12
-3.67827e-05
2.77103e-05
5.04059e-12
-4.79507e-05
2.89305e-05
4.28844e-12
-5.89078e-05
2.85445e-05
4.23392e-12
-6.90722e-05
2.66531e-05
4.0622e-12
-7.79048e-05
2.34142e-05
3.29613e-12
1.91564e-05
2.56448e-12
-8.49859e-05
-2.89229e-06
7.50465e-06
7.08454e-12
-9.65594e-06
1.99367e-05
6.48841e-12
-1.9099e-05
2.93951e-05
6.09078e-12
-3.03294e-05
3.59956e-05
5.95342e-12
-4.26078e-05
3.99882e-05
5.42761e-12
-5.52602e-05
4.15825e-05
4.77832e-12
-6.76201e-05
4.09039e-05
4.63828e-12
-7.90037e-05
3.80365e-05
4.27794e-12
-8.87308e-05
3.31417e-05
3.36288e-12
2.66405e-05
2.5892e-12
-9.62142e-05
-3.16201e-06
1.06621e-05
6.98963e-12
-1.05007e-05
2.72792e-05
6.40815e-12
-2.06749e-05
3.95688e-05
6.29077e-12
-3.27078e-05
4.80274e-05
6.20892e-12
-4.58163e-05
5.30959e-05
5.75387e-12
-5.92973e-05
5.50628e-05
5.10359e-12
-7.24415e-05
5.40474e-05
4.73594e-12
-8.44791e-05
5.00736e-05
4.12607e-12
-9.45659e-05
4.32289e-05
3.15675e-12
3.3919e-05
2.46432e-12
-0.000101843
-3.18601e-06
1.38435e-05
6.46604e-12
-1.05941e-05
3.46913e-05
6.02238e-12
-2.08603e-05
4.98344e-05
6.04796e-12
-3.2989e-05
6.01549e-05
5.93786e-12
-4.61912e-05
6.62973e-05
5.44112e-12
-5.97676e-05
6.86383e-05
4.78139e-12
-7.30049e-05
6.72836e-05
4.3007e-12
-8.50841e-05
6.21516e-05
3.64277e-12
-9.49977e-05
5.31433e-05
2.67362e-12
4.0388e-05
2.04193e-12
-0.000101463
-2.97303e-06
1.68124e-05
5.95864e-12
-9.94934e-06
4.16714e-05
5.71488e-12
-1.96534e-05
5.9538e-05
5.75861e-12
-3.11262e-05
7.16266e-05
5.50704e-12
-4.35995e-05
7.87697e-05
4.9571e-12
-5.64006e-05
8.14384e-05
4.33591e-12
-6.88532e-05
7.97351e-05
3.92342e-12
-8.01576e-05
7.34541e-05
3.44934e-12
-8.92172e-05
6.22049e-05
2.61813e-12
4.53587e-05
1.9629e-12
-9.4174e-05
-2.55228e-06
1.93611e-05
5.72911e-12
-8.64682e-06
4.77694e-05
5.56875e-12
-1.71775e-05
6.80683e-05
5.61742e-12
-2.72513e-05
8.16994e-05
5.24451e-12
-3.81172e-05
8.96347e-05
4.61672e-12
-4.91122e-05
9.24324e-05
4.0314e-12
-5.95982e-05
9.02197e-05
3.85176e-12
-6.88502e-05
8.27014e-05
3.70521e-12
-7.58576e-05
6.9211e-05
3.06306e-12
4.77355e-05
2.44064e-12
-7.82033e-05
-1.9825e-06
5.27001e-12
2.13411e-05
-6.85983e-06
5.20361e-12
5.26497e-05
-1.37375e-05
5.25975e-12
7.49459e-05
-2.17886e-05
4.80815e-12
8.975e-05
-3.02338e-05
4.15084e-12
9.80793e-05
-3.83195e-05
3.66904e-12
0.000100517
-4.5295e-05
3.67013e-12
9.71931e-05
-5.03247e-05
3.79038e-12
8.77193e-05
-5.22801e-05
3.18061e-12
7.11388e-05
2.7094e-12
-4.95525e-05
4.50168e-05
1.27735e-07
-1.27625e-07
-7.77047e-11
-5.69869e-07
6.99307e-07
-1.68485e-09
-2.0599e-06
1.49254e-06
-2.50742e-09
-4.10163e-06
2.04494e-06
-3.20652e-09
-6.46968e-06
2.37167e-06
-3.61672e-09
-8.97869e-06
2.51279e-06
-3.78036e-09
-1.14761e-05
2.50119e-06
-3.78186e-09
-1.38296e-05
2.35716e-06
-3.62344e-09
-1.59238e-05
2.09747e-06
-3.28061e-09
1.74957e-06
-2.73192e-09
-1.76706e-05
-7.27787e-07
5.98783e-07
1.39718e-09
-3.22751e-06
3.19941e-06
-3.69524e-10
-7.27569e-06
5.53924e-06
1.49229e-09
-1.24625e-05
7.22941e-06
2.32612e-09
-1.83606e-05
8.26702e-06
2.73623e-09
-2.45729e-05
8.72213e-06
2.99431e-09
-3.07397e-05
8.66502e-06
2.99843e-09
-3.65363e-05
8.151e-06
2.78586e-09
-4.16825e-05
7.24121e-06
2.4433e-09
6.03795e-06
2.1075e-09
-4.5973e-05
-1.64317e-06
2.23954e-06
2.4247e-09
-5.89504e-06
7.45346e-06
-2.17157e-09
-1.21853e-05
1.18296e-05
-9.38537e-11
-1.99389e-05
1.49829e-05
9.2818e-11
-2.85989e-05
1.69272e-05
-1.14736e-10
-3.7639e-05
1.77623e-05
-1.08833e-10
-4.6561e-05
1.75872e-05
-1.19361e-10
-5.48982e-05
1.64884e-05
-1.73299e-10
-6.2238e-05
1.45812e-05
-2.34869e-10
1.20749e-05
-1.39303e-10
-6.82748e-05
-2.38051e-06
4.61657e-06
3.48622e-09
-8.09347e-06
1.31695e-05
-3.0308e-09
-1.62163e-05
1.99525e-05
9.08687e-12
-2.59997e-05
2.4766e-05
2.55741e-10
-3.67826e-05
2.77103e-05
-1.01488e-10
-4.79506e-05
2.89304e-05
-1.45384e-10
-5.89077e-05
2.85445e-05
-1.851e-10
-6.90721e-05
2.66531e-05
-2.83974e-10
-7.79047e-05
2.34142e-05
-4.68587e-10
1.91564e-05
-4.07425e-10
-8.49857e-05
-2.89228e-06
7.50464e-06
4.2224e-09
-9.65592e-06
1.99366e-05
-3.53672e-09
-1.9099e-05
2.93951e-05
3.9847e-10
-3.03293e-05
3.59955e-05
8.56131e-10
-4.26077e-05
3.99881e-05
5.01301e-10
-5.52602e-05
4.15824e-05
4.71586e-10
-6.762e-05
4.09039e-05
4.13981e-10
-7.90036e-05
3.80365e-05
2.28025e-10
-8.87307e-05
3.31416e-05
-3.15692e-10
2.66404e-05
-5.7817e-10
-9.62141e-05
-3.162e-06
1.06621e-05
4.57232e-09
-1.05007e-05
2.72792e-05
-3.89621e-09
-2.06748e-05
3.95688e-05
5.14944e-10
-3.27077e-05
4.80274e-05
1.08151e-09
-4.58162e-05
5.30959e-05
7.33844e-10
-5.92972e-05
5.50627e-05
7.2361e-10
-7.24414e-05
5.40473e-05
7.02146e-10
-8.4479e-05
5.00736e-05
5.55012e-10
-9.45658e-05
4.32289e-05
-5.29798e-10
3.39189e-05
-1.57348e-09
-0.000101843
-3.186e-06
1.38435e-05
4.56699e-09
-1.05941e-05
3.46913e-05
-3.98157e-09
-2.08602e-05
4.98344e-05
5.47421e-10
-3.29889e-05
6.01549e-05
1.17941e-09
-4.61912e-05
6.62972e-05
8.86469e-10
-5.97676e-05
6.86382e-05
9.18375e-10
-7.30048e-05
6.72835e-05
1.01686e-09
-8.5084e-05
6.21516e-05
1.22377e-09
-9.49977e-05
5.31432e-05
-6.92436e-10
4.0388e-05
-3.96201e-09
-0.000101463
-2.97302e-06
1.68123e-05
4.20522e-09
-9.94932e-06
4.16714e-05
-3.80979e-09
-1.96534e-05
5.95379e-05
4.99963e-10
-3.11261e-05
7.16265e-05
1.14865e-09
-4.35995e-05
7.87696e-05
9.33846e-10
-5.64006e-05
8.14384e-05
9.52315e-10
-6.88531e-05
7.9735e-05
1.07611e-09
-8.01575e-05
7.34541e-05
1.9138e-09
-8.92172e-05
6.22049e-05
-2.00726e-09
4.53587e-05
-1.38562e-08
-9.4174e-05
-2.55227e-06
1.93611e-05
3.51159e-09
-8.6468e-06
4.77694e-05
-3.44501e-09
-1.71774e-05
6.80682e-05
3.48743e-10
-2.72512e-05
8.16994e-05
9.70254e-10
-3.81172e-05
8.96347e-05
9.00028e-10
-4.91121e-05
9.24323e-05
9.98932e-10
-5.95981e-05
9.02196e-05
1.36487e-09
-6.88502e-05
8.27014e-05
4.68089e-09
-7.58576e-05
6.9211e-05
1.32247e-09
4.77355e-05
-3.11118e-08
-7.82033e-05
-1.9825e-06
2.56088e-09
2.1341e-05
-6.85982e-06
-2.97528e-09
5.26497e-05
-1.37375e-05
6.02278e-11
7.49459e-05
-2.17886e-05
5.57068e-10
8.97499e-05
-3.02338e-05
6.13385e-10
9.80792e-05
-3.83195e-05
9.45412e-10
0.000100517
-4.5295e-05
2.04286e-09
9.71931e-05
-5.03247e-05
1.18969e-08
8.77193e-05
-5.22801e-05
2.75387e-08
7.11388e-05
-8.8322e-09
-4.95525e-05
4.50168e-05
1.26135e-07
-1.26212e-07
-5.69316e-07
6.93771e-07
-2.05918e-06
1.48736e-06
-4.10151e-06
2.03912e-06
-6.46981e-06
2.36469e-06
-8.97883e-06
2.50524e-06
-1.14761e-05
2.49352e-06
-1.38295e-05
2.34975e-06
-1.59235e-05
2.09067e-06
1.7439e-06
-1.76701e-05
-7.22928e-07
5.98108e-07
-3.22215e-06
3.19262e-06
-7.27098e-06
5.53769e-06
-1.24592e-05
7.22971e-06
-1.8359e-05
8.26723e-06
-2.45729e-05
8.72205e-06
-3.07409e-05
8.66455e-06
-3.65383e-05
8.14998e-06
-4.16848e-05
7.23963e-06
6.0365e-06
-4.59753e-05
-1.6379e-06
2.23843e-06
-5.89429e-06
7.44685e-06
-1.21845e-05
1.18278e-05
-1.99379e-05
1.49832e-05
-2.85984e-05
1.69276e-05
-3.7639e-05
1.77625e-05
-4.65615e-05
1.75869e-05
-5.48989e-05
1.64873e-05
-6.22384e-05
1.45789e-05
1.20729e-05
-6.8275e-05
-2.37398e-06
4.61589e-06
-8.09452e-06
1.31644e-05
-1.62175e-05
1.99508e-05
-2.59999e-05
2.47659e-05
-3.67828e-05
2.77103e-05
-4.79508e-05
2.89304e-05
-5.8908e-05
2.85439e-05
-6.90724e-05
2.66514e-05
-7.79044e-05
2.34104e-05
1.91527e-05
-8.49846e-05
-2.8842e-06
7.50432e-06
-9.65723e-06
1.99339e-05
-1.91005e-05
2.93944e-05
-3.03297e-05
3.5996e-05
-4.26078e-05
3.99889e-05
-5.52602e-05
4.15832e-05
-6.76202e-05
4.09044e-05
-7.90042e-05
3.80357e-05
-8.87305e-05
3.31364e-05
2.66336e-05
-9.6212e-05
-3.15312e-06
1.0662e-05
-1.0502e-05
2.72789e-05
-2.06764e-05
3.95693e-05
-3.27079e-05
4.80286e-05
-4.58158e-05
5.30976e-05
-5.92966e-05
5.50647e-05
-7.2441e-05
5.40495e-05
-8.44797e-05
5.00749e-05
-9.45658e-05
4.3222e-05
3.39049e-05
-0.000101839
-3.17706e-06
1.38436e-05
-1.05954e-05
3.46932e-05
-2.08615e-05
4.98359e-05
-3.29885e-05
6.01567e-05
-4.61898e-05
6.62998e-05
-5.97656e-05
6.86414e-05
-7.30029e-05
6.72878e-05
-8.50843e-05
6.21575e-05
-9.49989e-05
5.31359e-05
4.03569e-05
-0.000101455
-2.96473e-06
1.68126e-05
-9.95049e-06
4.16752e-05
-1.96543e-05
5.95402e-05
-3.1125e-05
7.16287e-05
-4.35969e-05
7.87727e-05
-5.63969e-05
8.14423e-05
-6.88492e-05
7.97412e-05
-8.01579e-05
7.3468e-05
-8.92295e-05
6.22055e-05
4.5279e-05
-9.41654e-05
-2.54529e-06
1.93614e-05
-8.6479e-06
4.77743e-05
-1.7178e-05
6.80707e-05
-2.72494e-05
8.1701e-05
-3.81126e-05
8.96368e-05
-4.91041e-05
9.24348e-05
-5.95845e-05
9.0223e-05
-6.88318e-05
8.272e-05
-7.58811e-05
6.92562e-05
4.76218e-05
-7.8255e-05
-1.97739e-06
2.13413e-05
-6.86119e-06
5.26552e-05
-1.37387e-05
7.49482e-05
-2.17877e-05
8.97506e-05
-3.02292e-05
9.80789e-05
-3.8308e-05
0.000100515
-4.52672e-05
9.71842e-05
-5.02399e-05
8.77045e-05
-5.21452e-05
7.11891e-05
-4.97724e-05
4.52401e-05
-1.90304e-05
1.35821e-06
2.04622e-09
-2.00256e-05
9.93787e-07
1.42273e-09
-2.07169e-05
6.90352e-07
9.34618e-10
-2.11789e-05
4.61444e-07
5.83798e-10
-2.14823e-05
3.02976e-07
3.52802e-10
-2.16853e-05
2.02843e-07
2.14313e-10
-2.18332e-05
1.47759e-07
1.4235e-10
-2.196e-05
1.2661e-07
1.17154e-10
-2.20913e-05
1.31177e-07
1.25405e-10
-2.22468e-05
1.55353e-07
1.59058e-10
-2.24406e-05
1.93626e-07
2.12695e-10
-2.26801e-05
2.39189e-07
2.80676e-10
-2.29623e-05
2.81859e-07
3.54369e-10
-2.32688e-05
3.06046e-07
4.18955e-10
-2.35585e-05
2.89309e-07
4.50828e-10
-2.37616e-05
2.0262e-07
4.15268e-10
-2.3774e-05
1.22118e-08
2.57095e-10
-2.34659e-05
-3.08097e-07
-7.32188e-11
-2.26948e-05
-7.70415e-07
-6.47927e-10
-1.35015e-06
-1.50319e-09
-2.13431e-05
-4.93262e-05
4.71073e-06
-1.85981e-09
-5.17954e-05
3.46458e-06
-1.54853e-09
-5.35317e-05
2.42786e-06
-1.21908e-09
-5.47122e-05
1.64286e-06
-9.2522e-10
-5.5503e-05
1.09451e-06
-6.85633e-10
-5.60418e-05
7.42094e-07
-5.09104e-10
-5.64346e-05
5.40997e-07
-3.94373e-10
-5.67609e-05
4.53181e-07
-3.33671e-10
-5.70788e-05
4.49382e-07
-3.16838e-10
-5.74298e-05
5.06686e-07
-3.32196e-10
-5.78396e-05
6.03831e-07
-3.65735e-10
-5.83154e-05
7.15413e-07
-3.99412e-10
-5.88389e-05
8.05726e-07
-4.08772e-10
-5.93555e-05
8.23057e-07
-3.61343e-10
-5.97621e-05
6.96116e-07
-2.1791e-10
-5.98951e-05
3.35534e-07
5.87571e-11
-5.95282e-05
-3.55212e-07
5.00948e-10
-5.83825e-05
-1.4549e-06
1.10037e-09
-5.61693e-05
-2.98542e-06
1.81955e-09
-4.86205e-06
2.49126e-09
-5.26599e-05
-7.28958e-05
9.3316e-06
-2.36114e-10
-7.62263e-05
6.79545e-06
-4.03175e-10
-7.85207e-05
4.72266e-06
-4.37467e-10
-8.00543e-05
3.17689e-06
-4.12991e-10
-8.10681e-05
2.10873e-06
-3.51023e-10
-8.1751e-05
1.42519e-06
-2.79125e-10
-8.22419e-05
1.03212e-06
-2.14361e-10
-8.26406e-05
8.52083e-07
-1.63116e-10
-8.30175e-05
8.26446e-07
-1.26066e-10
-8.34204e-05
9.09638e-07
-1.00796e-10
-8.38763e-05
1.05983e-06
-8.28044e-11
-8.4389e-05
1.22815e-06
-6.63397e-11
-8.49306e-05
1.3474e-06
-4.48132e-11
-8.54292e-05
1.32161e-06
-9.99814e-12
-8.57522e-05
1.01914e-06
4.86537e-11
-8.56912e-05
2.74334e-07
1.35728e-10
-8.49531e-05
-1.09354e-06
2.44491e-10
-8.31705e-05
-3.23783e-06
3.77755e-10
-7.99475e-05
-6.20892e-06
5.12397e-10
-9.85521e-06
4.34169e-10
-7.49548e-05
-9.01698e-05
1.45169e-05
-3.61017e-10
-9.37132e-05
1.03394e-05
-5.80593e-10
-9.60258e-05
7.03588e-06
-5.72605e-10
-9.74954e-05
4.64696e-06
-5.07192e-10
-9.8424e-05
3.03771e-06
-4.0262e-10
-9.90251e-05
2.0266e-06
-2.97572e-10
-9.94425e-05
1.44976e-06
-2.10919e-10
-9.97715e-05
1.18128e-06
-1.45491e-10
-0.000100075
1.13039e-06
-9.88575e-11
-0.000100395
1.22923e-06
-6.72272e-11
-0.000100753
1.4176e-06
-4.65032e-11
-0.000101151
1.62663e-06
-3.2684e-11
-0.000101566
1.76199e-06
-2.20143e-11
-0.000101932
1.68773e-06
-8.51968e-12
-0.000102126
1.21332e-06
2.34013e-11
-0.000101942
9.01296e-08
8.82008e-11
-0.000101069
-1.96606e-06
1.52182e-10
-9.90836e-05
-5.224e-06
2.7479e-10
-9.5475e-05
-9.81797e-06
5.06302e-10
-1.55728e-05
4.42748e-10
-8.97579e-05
-0.000101239
1.95442e-05
-9.84332e-10
-0.00010431
1.34118e-05
-1.09548e-09
-0.000106083
8.80986e-06
-8.78964e-10
-0.000107075
5.63995e-06
-6.84874e-10
-0.000107628
3.59062e-06
-4.80606e-10
-0.000107944
2.34359e-06
-3.14888e-10
-0.000108142
1.64722e-06
-2.00747e-10
-0.000108285
1.32503e-06
-1.27265e-10
-0.000108413
1.25863e-06
-8.28839e-11
-0.000108549
1.36506e-06
-5.90051e-11
-0.000108706
1.57458e-06
-4.95798e-11
-0.000108889
1.80933e-06
-5.01898e-11
-0.000109088
1.96179e-06
-5.75472e-11
-0.000109273
1.87228e-06
-6.49229e-11
-0.000109367
1.30693e-06
-4.47718e-11
-0.000109216
-6.02204e-08
3.64644e-11
-0.00010855
-2.63231e-06
9.71508e-11
-0.00010692
-6.85394e-06
2.79051e-10
-0.000103684
-1.30549e-05
8.77624e-10
-2.11727e-05
1.22732e-09
-9.80856e-05
-0.000105902
2.36092e-05
-2.12753e-09
-0.000107756
1.5268e-05
-1.78987e-09
-0.000108442
9.49654e-06
-1.10482e-09
-0.000108601
5.7995e-06
-7.37872e-10
-0.00010856
3.54997e-06
-4.33057e-10
-0.000108461
2.24548e-06
-2.27545e-10
-0.000108357
1.54276e-06
-1.12506e-10
-0.000108258
1.22616e-06
-5.17298e-11
-0.000108163
1.16379e-06
-2.19753e-11
-0.000108069
1.27099e-06
-1.05502e-11
-0.000107976
1.48178e-06
-1.11832e-11
-0.000107892
1.72485e-06
-2.13833e-11
-0.000107829
1.8997e-06
-4.10618e-11
-0.000107807
1.84961e-06
-6.8322e-11
-0.000107829
1.32936e-06
-7.51428e-11
-0.000107853
-3.65051e-08
-1.00601e-11
-0.00010772
-2.76512e-06
2.10348e-12
-0.000107036
-7.53803e-06
1.68763e-10
-0.000105034
-1.50582e-05
1.48832e-09
-2.56908e-05
3.08123e-09
-0.000100519
-0.000103557
2.57166e-05
-5.69161e-09
-0.000103383
1.5098e-05
-3.70344e-09
-0.000102517
8.63177e-06
-1.68464e-09
-0.000101631
4.91529e-06
-8.76907e-10
-0.000100925
2.84439e-06
-3.71652e-10
-0.000100404
1.72452e-06
-1.13628e-10
-0.000100015
1.15327e-06
-1.31046e-11
-9.96977e-05
9.08919e-07
1.99056e-11
-9.94045e-05
8.70558e-07
2.44286e-11
-9.91022e-05
9.68726e-07
1.57711e-11
-9.87751e-05
1.1547e-06
-1.07291e-12
-9.84284e-05
1.37814e-06
-2.55723e-11
-9.80944e-05
1.56572e-06
-5.86079e-11
-9.78395e-05
1.59481e-06
-1.03341e-10
-9.7765e-05
1.255e-06
-1.44201e-10
-9.79883e-05
1.8693e-07
-9.97867e-11
-9.85598e-05
-2.1937e-06
9.59374e-11
-9.9299e-05
-6.79931e-06
4.69872e-10
-9.94456e-05
-1.49152e-05
3.55545e-09
-2.796e-05
8.45363e-09
-9.71849e-05
-9.28884e-05
2.44491e-05
-9.69565e-09
-8.99107e-05
1.21242e-05
-3.86833e-09
-8.73199e-05
6.0417e-06
-7.5885e-10
-8.54909e-05
3.08659e-06
-2.96306e-10
-8.429e-05
1.64349e-06
3.47613e-11
-8.35067e-05
9.41026e-07
1.5264e-10
-8.29655e-05
6.11911e-07
1.43498e-10
-8.2541e-05
4.84293e-07
1.17333e-10
-8.21479e-05
4.7739e-07
9.70621e-11
-8.17305e-05
5.51229e-07
8.2903e-11
-8.12576e-05
6.81787e-07
7.10822e-11
-8.07255e-05
8.45982e-07
5.58508e-11
-8.01681e-05
1.00831e-06
2.84102e-11
-7.9676e-05
1.10269e-06
-3.61218e-11
-7.94214e-05
1.00051e-06
-1.3703e-10
-7.96803e-05
4.45944e-07
-7.77225e-11
-8.07973e-05
-1.07674e-06
8.45325e-11
-8.30584e-05
-4.53782e-06
-4.37164e-10
-8.61384e-05
-1.18384e-05
3.16815e-09
-2.64122e-05
1.35657e-08
-8.76997e-05
-7.11001e-05
1.73063e-05
-1.21575e-08
-6.51262e-05
6.14491e-06
5.35365e-09
-6.14662e-05
2.37578e-06
5.92425e-09
-5.93748e-05
9.92743e-07
2.48627e-09
-5.81853e-05
4.52661e-07
1.26917e-09
-5.74809e-05
2.35927e-07
7.60343e-10
-5.70204e-05
1.50912e-07
4.67022e-10
-5.66628e-05
1.26386e-07
3.45361e-10
-5.63218e-05
1.36055e-07
3.27657e-10
-5.59411e-05
1.70119e-07
3.67898e-10
-5.54843e-05
2.24589e-07
4.42663e-10
-5.49354e-05
2.96463e-07
5.32093e-10
-5.43077e-05
3.80053e-07
6.01248e-10
-5.36668e-05
4.61246e-07
5.59292e-10
-5.31712e-05
5.04573e-07
2.85893e-10
-5.31511e-05
4.26026e-07
-1.66291e-10
-5.41527e-05
-7.34848e-08
-1.63034e-09
-5.71422e-05
-1.54107e-06
-7.29352e-09
-6.31444e-05
-5.82644e-06
-9.7238e-09
-1.83935e-05
1.49076e-08
-7.1178e-05
-3.23993e-05
-6.67446e-08
-2.62434e-05
-1.1007e-08
-2.38669e-05
-7.05263e-10
-2.28724e-05
-1.77459e-09
-2.24186e-05
-1.14415e-09
-2.21821e-05
-5.25023e-10
-2.20309e-05
-2.90277e-10
-2.19043e-05
-2.00941e-10
-2.17681e-05
-1.74251e-10
-2.15978e-05
-1.89881e-10
-2.1373e-05
-2.35093e-10
-2.10762e-05
-2.97616e-10
-2.06958e-05
-3.60253e-10
-2.02342e-05
-3.92164e-10
-1.97293e-05
-2.79235e-10
-1.93036e-05
2.89827e-10
-1.93779e-05
8.11429e-10
-2.09166e-05
-2.35249e-09
-2.6748e-05
5.01116e-09
8.32141e-08
-4.52248e-05
-1.90309e-05
1.36228e-06
1.48001e-12
-2.0026e-05
9.96522e-07
1.44806e-12
-2.07172e-05
6.92106e-07
1.18676e-12
-2.11791e-05
4.62508e-07
7.44829e-13
-2.14824e-05
3.03602e-07
3.17479e-13
-2.16854e-05
2.03221e-07
1.04847e-13
-2.18332e-05
1.48022e-07
4.59694e-14
-2.196e-05
1.2685e-07
3.9696e-14
-2.20913e-05
1.31456e-07
2.31723e-14
-2.22469e-05
1.55714e-07
2.43804e-14
-2.24408e-05
1.941e-07
4.64263e-14
-2.26803e-05
2.39793e-07
4.71305e-14
-2.29625e-05
2.82587e-07
5.80753e-15
-2.32689e-05
3.06859e-07
-5.05624e-14
-2.35586e-05
2.90121e-07
-1.41175e-14
-2.37615e-05
2.03262e-07
2.17328e-13
-2.37738e-05
1.25519e-08
6.6951e-13
-2.34654e-05
-3.08412e-07
1.30323e-12
-2.26944e-05
-7.71713e-07
2.06293e-12
-1.35303e-06
2.81465e-12
-2.13428e-05
-4.93236e-05
4.71091e-06
2.0152e-12
-5.17928e-05
3.4642e-06
1.83063e-12
-5.35293e-05
2.42741e-06
1.50162e-12
-5.47102e-05
1.64247e-06
1.03528e-12
-5.55015e-05
1.09423e-06
5.2663e-13
-5.60407e-05
7.41912e-07
2.35127e-13
-5.6434e-05
5.40885e-07
1.82481e-13
-5.67606e-05
4.53104e-07
2.16154e-13
-5.70787e-05
4.49305e-07
2.07313e-13
-5.74299e-05
5.06575e-07
1.47517e-13
-5.78398e-05
6.0365e-07
1.23582e-13
-5.83156e-05
7.15132e-07
1.17376e-13
-5.88387e-05
8.05322e-07
4.44269e-14
-5.93548e-05
8.22543e-07
-2.72147e-14
-5.97604e-05
6.95566e-07
-1.29209e-14
-5.98922e-05
3.35115e-07
1.84244e-13
-5.95239e-05
-3.55234e-07
5.73274e-13
-5.83771e-05
-1.45414e-06
1.11099e-12
-5.61634e-05
-2.98356e-06
1.71664e-12
-4.85972e-06
2.29683e-12
-5.26543e-05
-7.28949e-05
9.33064e-06
2.13137e-12
-7.62247e-05
6.79362e-06
1.90354e-12
-7.85188e-05
4.72108e-06
1.66834e-12
-8.00525e-05
3.17573e-06
1.32532e-12
-8.10666e-05
2.10799e-06
8.77893e-13
-8.17497e-05
1.42477e-06
5.80868e-13
-8.2241e-05
1.03191e-06
4.343e-13
-8.264e-05
8.5197e-07
3.67034e-13
-8.30172e-05
8.26353e-07
2.10572e-13
-8.34202e-05
9.09496e-07
2.34884e-14
-8.38762e-05
1.05958e-06
-9.70676e-14
-8.43889e-05
1.22772e-06
-1.39204e-13
-8.49303e-05
1.34675e-06
-1.96169e-13
-8.54285e-05
1.32074e-06
-2.59423e-13
-8.57511e-05
1.01816e-06
-2.27394e-13
-8.56893e-05
2.73509e-07
-1.12381e-14
-8.49504e-05
-1.09388e-06
3.62907e-13
-8.31673e-05
-3.23691e-06
8.68123e-13
-7.99444e-05
-6.20595e-06
1.39542e-12
-9.8514e-06
1.87305e-12
-7.49523e-05
-9.01693e-05
1.45137e-05
2.13288e-12
-9.37114e-05
1.03351e-05
1.81748e-12
-9.60236e-05
7.03273e-06
1.61906e-12
-9.74932e-05
4.64487e-06
1.42703e-12
-9.84221e-05
3.03647e-06
1.10334e-12
-9.90236e-05
2.02597e-06
7.92948e-13
-9.94414e-05
1.44947e-06
5.81644e-13
-9.97707e-05
1.18117e-06
5.20656e-13
-0.000100075
1.13033e-06
3.58692e-13
-0.000100395
1.22913e-06
3.90148e-14
-0.000100752
1.41737e-06
-2.24227e-13
-0.000101151
1.62619e-06
-3.34002e-13
-0.000101565
1.76127e-06
-3.22563e-13
-0.000101931
1.68669e-06
-2.10468e-13
-0.000102125
1.21204e-06
3.27824e-14
-0.000101941
8.91142e-08
3.8137e-13
-0.000101068
-1.96683e-06
7.70873e-13
-9.90811e-05
-5.22311e-06
1.09384e-12
-9.5473e-05
-9.81357e-06
1.23142e-12
-1.55669e-05
1.31844e-12
-8.97571e-05
-0.000101237
1.95358e-05
2.12985e-12
-0.000104307
1.34034e-05
1.7345e-12
-0.00010608
8.80477e-06
1.45327e-12
-0.000107072
5.63699e-06
1.29356e-12
-0.000107625
3.58907e-06
1.00525e-12
-0.000107943
2.3429e-06
6.59002e-13
-0.00010814
1.64697e-06
3.93955e-13
-0.000108284
1.32497e-06
4.34278e-13
-0.000108413
1.25862e-06
4.40627e-13
-0.000108549
1.36499e-06
1.74016e-13
-0.000108706
1.57437e-06
-1.7884e-13
-0.000108888
1.80889e-06
-4.21547e-13
-0.000109088
1.961e-06
-4.19478e-13
-0.000109273
1.87106e-06
-2.40537e-13
-0.000109366
1.30529e-06
1.90033e-14
-0.000109215
-6.13465e-08
2.30472e-13
-0.000108548
-2.63381e-06
2.50612e-13
-0.000106918
-6.85347e-06
8.94902e-14
-0.000103682
-1.30483e-05
-1.21702e-13
-2.1162e-05
-4.50272e-14
-9.80858e-05
-0.000105899
2.35897e-05
2.10577e-12
-0.000107751
1.52534e-05
1.78269e-12
-0.000108437
9.49008e-06
1.47056e-12
-0.000108597
5.7965e-06
1.28677e-12
-0.000108557
3.54874e-06
9.6804e-13
-0.00010846
2.24513e-06
4.98519e-13
-0.000108356
1.54276e-06
1.31944e-13
-0.000108257
1.22625e-06
1.2175e-13
-0.000108162
1.16388e-06
2.49103e-13
-0.000108068
1.27099e-06
8.11755e-14
-0.000107976
1.48164e-06
-2.34691e-13
-0.000107891
1.72447e-06
-4.51912e-13
-0.000107829
1.89895e-06
-4.31572e-13
-0.000107807
1.84834e-06
-2.67314e-13
-0.000107829
1.32741e-06
-2.3519e-13
-0.000107852
-3.77303e-08
-4.97317e-13
-0.000107718
-2.76783e-06
-9.6889e-13
-0.000107033
-7.53896e-06
-1.40127e-12
-0.000105031
-1.50482e-05
-1.67419e-12
-2.56687e-05
-1.52734e-12
-0.000100522
-0.000103549
2.56706e-05
1.89229e-12
-0.000103373
1.50734e-05
1.57054e-12
-0.00010251
8.62535e-06
1.28212e-12
-0.000101628
4.91357e-06
1.24217e-12
-0.000100924
2.84417e-06
1.13195e-12
-0.000100404
1.7248e-06
6.94505e-13
-0.000100014
1.15358e-06
2.04333e-13
-9.96973e-05
9.09145e-07
6.41122e-14
-9.9404e-05
8.70685e-07
5.52522e-14
-9.91018e-05
9.68745e-07
-1.07685e-13
-9.87747e-05
1.15458e-06
-3.3952e-13
-9.84281e-05
1.37779e-06
-4.07921e-13
-9.80942e-05
1.56503e-06
-2.88416e-13
-9.78395e-05
1.59354e-06
-2.2928e-13
-9.77652e-05
1.25297e-06
-5.04192e-13
-9.79878e-05
1.84755e-07
-1.06811e-12
-9.85581e-05
-2.19742e-06
-1.52946e-12
-9.92946e-05
-6.80198e-06
-1.72061e-12
-9.9441e-05
-1.48982e-05
-1.86762e-12
-2.79076e-05
-1.76595e-12
-9.71937e-05
-9.28746e-05
2.43614e-05
1.72581e-12
-8.99008e-05
1.20958e-05
1.343e-12
-8.73166e-05
6.04034e-06
1.04633e-12
-8.54906e-05
3.08727e-06
9.54114e-13
-8.42905e-05
1.64409e-06
9.0836e-13
-8.35071e-05
9.41545e-07
7.48124e-13
-8.29656e-05
6.12238e-07
4.40273e-13
-8.25408e-05
4.8447e-07
2.44368e-13
-8.21475e-05
4.77474e-07
1.13312e-13
-8.17299e-05
5.51246e-07
-8.39529e-14
-8.1257e-05
6.81732e-07
-2.64195e-13
-8.0725e-05
8.45822e-07
-2.90955e-13
-8.01679e-05
1.00796e-06
-2.69368e-13
-7.96764e-05
1.10199e-06
-4.97744e-13
-7.94227e-05
9.99167e-07
-1.07244e-12
-7.9682e-05
4.43941e-07
-1.60722e-12
-8.08004e-05
-1.07889e-06
-1.70466e-12
-8.30604e-05
-4.54245e-06
-1.76259e-12
-8.61356e-05
-1.18198e-05
-2.2412e-12
-2.63152e-05
-2.43431e-12
-8.77144e-05
-7.1083e-05
1.7229e-05
1.90782e-12
-6.51337e-05
6.15187e-06
1.37504e-12
-6.14746e-05
2.38711e-06
9.90051e-13
-5.93809e-05
9.96095e-07
1.02898e-12
-5.81888e-05
4.53255e-07
9.28067e-13
-5.74826e-05
2.36094e-07
6.20283e-13
-5.70209e-05
1.51051e-07
4.16822e-13
-5.66627e-05
1.26576e-07
3.42928e-13
-5.63212e-05
1.36342e-07
2.48824e-13
-5.59402e-05
1.70549e-07
8.29577e-14
-5.54832e-05
2.25219e-07
-4.53671e-14
-5.49342e-05
2.97364e-07
-1.13037e-13
-5.4307e-05
3.81312e-07
-3.45725e-13
-5.36674e-05
4.62975e-07
-9.44674e-13
-5.31747e-05
5.06744e-07
-1.6871e-12
-5.31571e-05
4.26209e-07
-2.13201e-12
-5.41666e-05
-7.10044e-08
-2.28895e-12
-5.71667e-05
-1.54972e-06
-2.86831e-12
-6.31583e-05
-5.83794e-06
-3.83975e-12
-1.83309e-05
-4.73974e-12
-7.11277e-05
-3.23902e-05
1.2143e-12
-2.62494e-05
1.08851e-12
-2.3863e-05
1.13142e-12
-2.28687e-05
8.60373e-13
-2.24166e-05
7.92051e-13
-2.2181e-05
6.17396e-13
-2.20302e-05
4.98903e-13
-2.19039e-05
4.2682e-13
-2.17677e-05
3.06613e-13
-2.15973e-05
1.8504e-13
-2.13723e-05
1.09548e-13
-2.10753e-05
-4.45449e-14
-2.06943e-05
-4.98309e-13
-2.02317e-05
-1.16677e-12
-1.97253e-05
-1.71746e-12
-1.92988e-05
-2.0072e-12
-1.9369e-05
-2.41311e-12
-2.0921e-05
-3.75317e-12
-2.6754e-05
-5.56087e-12
-7.37351e-12
-4.50016e-05
-1.90309e-05
1.36228e-06
-2.04428e-09
-2.0026e-05
9.96521e-07
-1.42079e-09
-2.07172e-05
6.92105e-07
-9.32922e-10
-2.11791e-05
4.62508e-07
-5.82623e-10
-2.14823e-05
3.03602e-07
-3.52201e-10
-2.16853e-05
2.03221e-07
-2.14121e-10
-2.18332e-05
1.48022e-07
-1.42355e-10
-2.196e-05
1.2685e-07
-1.17298e-10
-2.20913e-05
1.31455e-07
-1.25701e-10
-2.22468e-05
1.55713e-07
-1.5935e-10
-2.24407e-05
1.94099e-07
-2.12805e-10
-2.26802e-05
2.39792e-07
-2.80654e-10
-2.29625e-05
2.82585e-07
-3.54304e-10
-2.32689e-05
3.06858e-07
-4.18888e-10
-2.35586e-05
2.9012e-07
-4.50689e-10
-2.37614e-05
2.03261e-07
-4.14883e-10
-2.37737e-05
1.25526e-08
-2.56148e-10
-2.34654e-05
-3.0841e-07
7.50305e-11
-2.26943e-05
-7.71709e-07
6.50764e-10
-1.35303e-06
1.50709e-09
-2.13428e-05
-4.93235e-05
4.71091e-06
1.86253e-09
-5.17927e-05
3.4642e-06
1.55103e-09
-5.35292e-05
2.42741e-06
1.22113e-09
-5.47101e-05
1.64247e-06
9.26678e-10
-5.55015e-05
1.09423e-06
6.86495e-10
-5.60406e-05
7.41911e-07
5.09446e-10
-5.64339e-05
5.40883e-07
3.94467e-10
-5.67605e-05
4.53102e-07
3.33757e-10
-5.70787e-05
4.49302e-07
3.16999e-10
-5.74298e-05
5.06572e-07