/*--------------------------------*- C++ -*----------------------------------*\
| =========                 |                                                 |
| \\      /  F ield         | OpenFOAM: The Open Source CFD Toolbox           |
|  \\    /   O peration     | Version:  2.4.0                                 |
|   \\  /    A nd           | Web:      www.OpenFOAM.org                      |
|    \\/     M anipulation  |                                                 |
\*---------------------------------------------------------------------------*/
FoamFile
{
    version     2.0;
    format      ascii;
    class       volVectorField;
    location    "1.7";
    object      U;
}
// * * * * * * * * * * * * * * * * * * * * * * * * * * * * * * * * * * * * * //

dimensions      [0 1 -1 0 0 0 0];

internalField   nonuniform List<vector> 
4800
(
(0.000280936 -0.00028399 2.98195e-07)
(-3.78877e-05 0.000173082 0.00020909)
(-0.0018734 0.000660077 0.000419484)
(-0.00477898 0.000985148 0.0005679)
(-0.00837533 0.00116749 0.000612484)
(-0.0123368 0.00124421 0.000534054)
(-0.0163939 0.00124158 0.00032702)
(-0.0203198 0.00117274 -7.56421e-06)
(-0.0239144 0.00104481 -0.000463188)
(-0.0270091 0.000869552 -0.00102663)
(-0.000196958 3.8173e-05 -0.000207697)
(-0.00245749 0.00237588 5.0871e-06)
(-0.00786177 0.00461991 0.000159655)
(-0.0154343 0.00622266 0.000243175)
(-0.0244615 0.00719104 0.000238559)
(-0.0342984 0.00761798 0.000130613)
(-0.0443379 0.00758653 -8.67651e-05)
(-0.0540295 0.00715372 -0.000415259)
(-0.0628807 0.00637248 -0.000852774)
(-0.0704864 0.00532884 -0.00139207)
(-0.000763315 0.00199112 -0.000422402)
(-0.00503904 0.00788705 -0.000143127)
(-0.0137381 0.0130707 1.2018e-05)
(-0.0252366 0.0168335 7.50382e-05)
(-0.0385794 0.0191586 5.39033e-05)
(-0.0529432 0.0201783 -6.00809e-05)
(-0.0675075 0.0200299 -0.000270845)
(-0.0814933 0.0188293 -0.000581448)
(-0.094181 0.0167158 -0.000993933)
(-0.104965 0.0139278 -0.00150681)
(-0.00120714 0.00527538 -0.000559983)
(-0.00715223 0.0160188 -0.000200101)
(-0.0185926 0.024818 -2.27787e-05)
(-0.0332509 0.0311293 4.19419e-05)
(-0.0499535 0.035015 2.24704e-05)
(-0.0677563 0.0366647 -8.43725e-05)
(-0.0856963 0.0362551 -0.000280961)
(-0.102824 0.0339442 -0.000572746)
(-0.11822 0.0299578 -0.00096752)
(-0.131063 0.0247258 -0.00147179)
(-0.0015047 0.00956363 -0.000550921)
(-0.00863444 0.0261731 -0.000121578)
(-0.022058 0.0390807 7.90724e-05)
(-0.0389851 0.0481723 0.000154945)
(-0.0580688 0.0537072 0.000149058)
(-0.0782827 0.0559638 6.14118e-05)
(-0.098569 0.0551415 -0.000111178)
(-0.117847 0.0514022 -0.000379219)
(-0.135003 0.0450206 -0.000759797)
(-0.148931 0.0366154 -0.0012738)
(-0.00165525 0.014482 -0.00035049)
(-0.00942245 0.0376475 0.000130418)
(-0.0239419 0.055009 0.00035009)
(-0.0421289 0.0670392 0.000443616)
(-0.0625338 0.074281 0.000462502)
(-0.0840901 0.0771296 0.00040741)
(-0.105693 0.075787 0.000271344)
(-0.126175 0.0703584 3.51235e-05)
(-0.144245 0.0610772 -0.000332873)
(-0.158388 0.0486644 -0.000881965)
(-0.00166217 0.0196352 6.19495e-05)
(-0.00949662 0.0496442 0.000574161)
(-0.0241564 0.0716104 0.000805699)
(-0.0425017 0.0866479 0.000921483)
(-0.063061 0.0956264 0.000975993)
(-0.0847709 0.0990759 0.000968669)
(-0.106534 0.0971798 0.000885932)
(-0.127169 0.0899095 0.000696275)
(-0.145287 0.0772976 0.000347952)
(-0.158825 0.0599015 -0.000265945)
(-0.00153355 0.0246318 0.000685549)
(-0.00887905 0.0613419 0.00120914)
(-0.0227193 0.0878326 0.00144438)
(-0.0400782 0.105818 0.00158579)
(-0.0595246 0.116494 0.00168647)
(-0.0800237 0.120536 0.00174417)
(-0.100526 0.118105 0.00173742)
(-0.119927 0.108973 0.00162043)
(-0.136963 0.092762 0.00132041)
(-0.148986 0.0692688 0.000619383)
(-0.00128825 0.0291079 0.00149898)
(-0.00765407 0.0719589 0.00201673)
(-0.0198012 0.102637 0.00224755)
(-0.0350803 0.123328 0.00241606)
(-0.0521214 0.135505 0.00257111)
(-0.069889 0.14 0.00271012)
(-0.0873468 0.136999 0.00280452)
(-0.103483 0.126113 0.00279344)
(-0.117531 0.106491 0.00259366)
(-0.126668 0.076343 0.00178989)
(-0.000962125 0.0327681 0.00246268)
(-0.00599179 0.08084 0.00296252)
(-0.0157823 0.11511 0.00318116)
(-0.0281025 0.138024 0.00337482)
(-0.0416137 0.151222 0.00358725)
(-0.055165 0.155658 0.00382046)
(-0.0675213 0.151591 0.00404817)
(-0.0773905 0.138597 0.00420618)
(-0.0844898 0.115651 0.00426444)
(-0.0877722 0.0799468 0.00362305)
(0.000285655 -0.000288457 1.53551e-07)
(-3.11217e-05 0.000167303 1.35257e-06)
(-0.00186983 0.000646455 1.97211e-06)
(-0.00477649 0.000966057 2.50847e-06)
(-0.00837393 0.00114545 2.82486e-06)
(-0.0123363 0.00122075 2.95003e-06)
(-0.0163941 0.00121812 2.95046e-06)
(-0.0203209 0.00115058 2.82713e-06)
(-0.0239166 0.00102499 2.55905e-06)
(-0.0270123 0.000852696 2.13074e-06)
(-0.00018992 3.09823e-05 -1.04478e-06)
(-0.00245468 0.00237385 3.14213e-07)
(-0.00786903 0.00460903 -1.14356e-06)
(-0.0154388 0.00620691 -1.79802e-06)
(-0.0244637 0.0071736 -2.11948e-06)
(-0.034299 0.00759979 -2.32186e-06)
(-0.0443369 0.00756852 -2.32589e-06)
(-0.0540274 0.00713686 -2.16096e-06)
(-0.0628786 0.00635761 -1.89558e-06)
(-0.0704851 0.00531601 -1.63527e-06)
(-0.000747937 0.00198581 -1.86605e-06)
(-0.0050282 0.00789332 1.70604e-06)
(-0.0137447 0.0130739 8.64986e-08)
(-0.0252386 0.0168369 -6.18527e-08)
(-0.0385793 0.0191637 9.82496e-08)
(-0.0529428 0.0201845 9.20795e-08)
(-0.0675065 0.0200365 9.95823e-08)
(-0.081492 0.018836 1.41374e-07)
(-0.0941806 0.0167225 1.88229e-07)
(-0.104967 0.0139333 1.12792e-07)
(-0.00118523 0.00527087 -2.69986e-06)
(-0.00713654 0.0160226 2.37114e-06)
(-0.0186011 0.0248172 5.28681e-09)
(-0.0332525 0.0311269 -1.88517e-07)
(-0.0499524 0.035013 8.86531e-08)
(-0.0677553 0.0366631 1.21488e-07)
(-0.0856947 0.036254 1.51784e-07)
(-0.102822 0.033944 2.28397e-07)
(-0.118219 0.0299597 3.7074e-07)
(-0.131067 0.0247279 3.21773e-07)
(-0.00147862 0.00956083 -3.27567e-06)
(-0.00861673 0.0261751 2.76308e-06)
(-0.0220697 0.0390787 -2.98543e-07)
(-0.0389878 0.0481684 -6.55777e-07)
(-0.0580676 0.053703 -3.80014e-07)
(-0.0782814 0.0559594 -3.57979e-07)
(-0.0985666 0.0551373 -3.13841e-07)
(-0.117842 0.0513992 -1.6972e-07)
(-0.135001 0.0450219 2.51815e-07)
(-0.148938 0.0366187 4.54517e-07)
(-0.00162692 0.0144812 -3.54864e-06)
(-0.00940383 0.0376486 3.04205e-06)
(-0.0239557 0.0550079 -3.89197e-07)
(-0.0421325 0.0670368 -8.3068e-07)
(-0.062533 0.074278 -5.60369e-07)
(-0.084089 0.0771261 -5.53521e-07)
(-0.10569 0.0757829 -5.37792e-07)
(-0.126168 0.0703549 -4.24232e-07)
(-0.144239 0.0610814 4.18118e-07)
(-0.158402 0.0486756 1.22854e-06)
(-0.00163364 0.0196364 -3.54525e-06)
(-0.00947829 0.0496442 3.10792e-06)
(-0.0241711 0.0716101 -4.14743e-07)
(-0.0425062 0.0866469 -9.06927e-07)
(-0.0630608 0.0956246 -6.79314e-07)
(-0.0847705 0.0990734 -7.0538e-07)
(-0.106532 0.097176 -7.83162e-07)
(-0.127156 0.0899046 -9.45122e-07)
(-0.145269 0.0773076 5.44011e-07)
(-0.158853 0.059938 3.08582e-06)
(-0.00150682 0.0246348 -3.26462e-06)
(-0.0088622 0.061341 2.97371e-06)
(-0.0227339 0.0878331 -3.78478e-07)
(-0.0400832 0.105819 -8.83605e-07)
(-0.0595252 0.116494 -7.17045e-07)
(-0.0800244 0.120534 -7.32683e-07)
(-0.100525 0.1181 -8.30054e-07)
(-0.119905 0.108958 -1.48249e-06)
(-0.136913 0.0927574 1.56631e-06)
(-0.149031 0.0693267 1.07812e-05)
(-0.00126501 0.0291125 -2.72487e-06)
(-0.00763962 0.0719576 2.68971e-06)
(-0.0198144 0.102639 -2.61208e-07)
(-0.0350855 0.123332 -7.45218e-07)
(-0.0521234 0.135508 -6.91367e-07)
(-0.0698933 0.140002 -7.69461e-07)
(-0.0873574 0.136995 -1.05488e-06)
(-0.103466 0.12608 -3.63476e-06)
(-0.117429 0.106418 -1.02353e-06)
(-0.126715 0.0763119 2.4202e-05)
(-0.000943487 0.0327737 -1.98509e-06)
(-0.00598011 0.0808385 2.32373e-06)
(-0.0157928 0.115113 -3.74167e-08)
(-0.0281064 0.138031 -4.24423e-07)
(-0.0416152 0.151234 -4.69062e-07)
(-0.0551718 0.155679 -7.28158e-07)
(-0.0675536 0.151632 -1.58208e-06)
(-0.0774306 0.138659 -9.24701e-06)
(-0.0844053 0.115711 -2.1414e-05)
(-0.0878489 0.0800594 6.87366e-06)
(0.00028564 -0.00028847 -2.51333e-08)
(-3.11469e-05 0.000167297 -1.29879e-06)
(-0.00186984 0.000646452 -1.94584e-06)
(-0.00477649 0.000966055 -2.49301e-06)
(-0.00837392 0.00114544 -2.81433e-06)
(-0.0123363 0.00122075 -2.94274e-06)
(-0.0163941 0.00121812 -2.9439e-06)
(-0.0203208 0.00115058 -2.82061e-06)
(-0.0239165 0.00102499 -2.55408e-06)
(-0.0270123 0.000852696 -2.12697e-06)
(-0.000189926 3.09589e-05 1.10332e-06)
(-0.00245469 0.00237383 -2.77339e-07)
(-0.00786902 0.00460902 1.16724e-06)
(-0.0154388 0.0062069 1.81417e-06)
(-0.0244636 0.0071736 2.1317e-06)
(-0.0342989 0.00759978 2.33153e-06)
(-0.0443368 0.00756851 2.33468e-06)
(-0.0540273 0.00713686 2.16918e-06)
(-0.0628786 0.00635761 1.90224e-06)
(-0.070485 0.00531601 1.64072e-06)
(-0.000747937 0.00198579 1.89699e-06)
(-0.00502819 0.0078933 -1.68244e-06)
(-0.0137446 0.0130739 -6.7788e-08)
(-0.0252385 0.0168368 7.6753e-08)
(-0.0385793 0.0191637 -8.57031e-08)
(-0.0529427 0.0201844 -8.1886e-08)
(-0.0675064 0.0200364 -9.00432e-08)
(-0.0814918 0.0188359 -1.32099e-07)
(-0.0941805 0.0167225 -1.80531e-07)
(-0.104967 0.0139333 -1.06643e-07)
(-0.00118522 0.00527086 2.72121e-06)
(-0.00713653 0.0160225 -2.35235e-06)
(-0.0186011 0.0248171 1.14677e-08)
(-0.0332524 0.0311268 2.03122e-07)
(-0.0499523 0.035013 -7.54121e-08)
(-0.0677552 0.0366631 -1.10105e-07)
(-0.0856946 0.036254 -1.4091e-07)
(-0.102821 0.033944 -2.17922e-07)
(-0.118219 0.0299597 -3.62124e-07)
(-0.131067 0.0247279 -3.151e-07)
(-0.00147861 0.00956081 3.29424e-06)
(-0.0086167 0.0261751 -2.74614e-06)
(-0.0220696 0.0390787 3.14317e-07)
(-0.0389877 0.0481683 6.70264e-07)
(-0.0580675 0.0537029 3.93779e-07)
(-0.0782813 0.0559593 3.70207e-07)
(-0.0985664 0.0551372 3.25398e-07)
(-0.117842 0.0513991 1.8048e-07)
(-0.135001 0.0450218 -2.43157e-07)
(-0.148938 0.0366186 -4.47883e-07)
(-0.00162692 0.0144811 3.56669e-06)
(-0.00940381 0.0376485 -3.02581e-06)
(-0.0239557 0.0550079 4.05062e-07)
(-0.0421324 0.0670367 8.45731e-07)
(-0.0625329 0.0742779 5.74896e-07)
(-0.0840888 0.077126 5.66475e-07)
(-0.10569 0.0757829 5.4957e-07)
(-0.126167 0.0703548 4.34635e-07)
(-0.144238 0.0610814 -4.099e-07)
(-0.158402 0.0486756 -1.22215e-06)
(-0.00163364 0.0196363 3.56207e-06)
(-0.00947827 0.0496441 -3.09256e-06)
(-0.0241711 0.07161 4.30085e-07)
(-0.0425061 0.0866468 9.2159e-07)
(-0.0630607 0.0956245 6.93322e-07)
(-0.0847704 0.0990733 7.17672e-07)
(-0.106532 0.097176 7.93954e-07)
(-0.127156 0.0899046 9.54349e-07)
(-0.145269 0.0773075 -5.36833e-07)
(-0.158853 0.059938 -3.08026e-06)
(-0.00150682 0.0246347 3.27991e-06)
(-0.00886218 0.0613409 -2.95917e-06)
(-0.0227339 0.087833 3.92975e-07)
(-0.0400831 0.105819 8.97334e-07)
(-0.0595251 0.116493 7.29812e-07)
(-0.0800243 0.120534 7.43735e-07)
(-0.100525 0.1181 8.39748e-07)
(-0.119904 0.108957 1.49092e-06)
(-0.136913 0.0927574 -1.55948e-06)
(-0.149031 0.0693267 -1.07758e-05)
(-0.001265 0.0291125 2.73948e-06)
(-0.00763961 0.0719575 -2.67551e-06)
(-0.0198144 0.102639 2.75301e-07)
(-0.0350855 0.123331 7.58404e-07)
(-0.0521233 0.135507 7.03274e-07)
(-0.0698933 0.140002 7.7976e-07)
(-0.0873573 0.136995 1.06429e-06)
(-0.103466 0.12608 3.64339e-06)
(-0.117429 0.106418 1.0308e-06)
(-0.126715 0.0763119 -2.41962e-05)
(-0.000943483 0.0327736 1.99858e-06)
(-0.00598009 0.0808384 -2.31042e-06)
(-0.0157927 0.115113 5.06478e-08)
(-0.0281063 0.138031 4.36709e-07)
(-0.0416152 0.151234 4.79968e-07)
(-0.0551718 0.155679 7.37811e-07)
(-0.0675535 0.151632 1.59142e-06)
(-0.0774306 0.138659 9.25595e-06)
(-0.0844053 0.115711 2.14214e-05)
(-0.0878489 0.0800594 -6.86742e-06)
(0.000280849 -0.000284071 -4.33198e-07)
(-3.80152e-05 0.000173058 -0.000209147)
(-0.00187343 0.000660067 -0.000419512)
(-0.00477898 0.000985143 -0.000567916)
(-0.00837531 0.00116749 -0.000612495)
(-0.0123368 0.0012442 -0.000534061)
(-0.0163938 0.00124158 -0.000327027)
(-0.0203197 0.00117274 7.55734e-06)
(-0.0239143 0.0010448 0.000463183)
(-0.027009 0.000869551 0.00102663)
(-0.000196982 3.80503e-05 0.000207635)
(-0.00245752 0.00237582 -5.12609e-06)
(-0.00786176 0.00461988 -0.00015968)
(-0.0154343 0.00622264 -0.000243192)
(-0.0244614 0.00719102 -0.000238572)
(-0.0342983 0.00761796 -0.000130623)
(-0.0443377 0.00758652 8.67558e-05)
(-0.0540293 0.0071537 0.000415251)
(-0.0628805 0.00637247 0.000852767)
(-0.0704862 0.00532883 0.00139206)
(-0.000763318 0.00199108 0.000422369)
(-0.00503903 0.007887 0.000143102)
(-0.013738 0.0130707 -1.20378e-05)
(-0.0252365 0.0168335 -7.5054e-05)
(-0.0385793 0.0191585 -5.39166e-05)
(-0.052943 0.0201782 6.00702e-05)
(-0.0675072 0.0200299 0.000270835)
(-0.081493 0.0188292 0.000581438)
(-0.0941807 0.0167157 0.000993925)
(-0.104965 0.0139278 0.00150681)
(-0.00120713 0.00527535 0.00055996)
(-0.00715219 0.0160188 0.000200081)
(-0.0185925 0.0248179 2.2761e-05)
(-0.0332507 0.0311292 -4.19573e-05)
(-0.0499533 0.0350149 -2.24844e-05)
(-0.0677561 0.0366646 8.43605e-05)
(-0.0856959 0.036255 0.000280949)
(-0.102823 0.0339441 0.000572735)
(-0.118219 0.0299578 0.000967511)
(-0.131062 0.0247258 0.00147178)
(-0.00150468 0.00956358 0.000550901)
(-0.00863439 0.026173 0.00012156)
(-0.0220579 0.0390805 -7.90891e-05)
(-0.0389849 0.0481722 -0.00015496)
(-0.0580686 0.0537071 -0.000149073)
(-0.0782824 0.0559636 -6.14247e-05)
(-0.0985687 0.0551414 0.000111166)
(-0.117846 0.0514021 0.000379207)
(-0.135003 0.0450205 0.000759788)
(-0.148931 0.0366153 0.00127379)
(-0.00165524 0.0144819 0.000350471)
(-0.00942239 0.0376474 -0.000130435)
(-0.0239418 0.0550088 -0.000350107)
(-0.0421287 0.067039 -0.000443632)
(-0.0625336 0.0742808 -0.000462517)
(-0.0840898 0.0771295 -0.000407424)
(-0.105693 0.0757868 -0.000271356)
(-0.126175 0.0703582 -3.51345e-05)
(-0.144245 0.0610771 0.000332864)
(-0.158388 0.0486643 0.000881958)
(-0.00166215 0.0196352 -6.19673e-05)
(-0.00949656 0.049644 -0.000574178)
(-0.0241562 0.0716102 -0.000805715)
(-0.0425015 0.0866477 -0.000921498)
(-0.0630608 0.0956261 -0.000976008)
(-0.0847707 0.0990757 -0.000968682)
(-0.106534 0.0971796 -0.000885944)
(-0.127169 0.0899093 -0.000696285)
(-0.145286 0.0772975 -0.00034796)
(-0.158824 0.0599015 0.000265939)
(-0.00153354 0.0246317 -0.000685565)
(-0.008879 0.0613417 -0.00120915)
(-0.0227192 0.0878323 -0.0014444)
(-0.0400781 0.105818 -0.00158581)
(-0.0595244 0.116494 -0.00168648)
(-0.0800234 0.120536 -0.00174418)
(-0.100526 0.118105 -0.00173743)
(-0.119927 0.108973 -0.00162044)
(-0.136963 0.0927619 -0.00132042)
(-0.148985 0.0692687 -0.000619389)
(-0.00128824 0.0291078 -0.001499)
(-0.00765403 0.0719587 -0.00201675)
(-0.0198011 0.102637 -0.00224757)
(-0.0350802 0.123328 -0.00241608)
(-0.0521213 0.135504 -0.00257113)
(-0.0698888 0.139999 -0.00271013)
(-0.0873466 0.136999 -0.00280453)
(-0.103483 0.126113 -0.00279345)
(-0.117531 0.106491 -0.00259367)
(-0.126668 0.076343 -0.00178989)
(-0.000962115 0.032768 -0.0024627)
(-0.00599176 0.0808397 -0.00296253)
(-0.0157823 0.11511 -0.00318118)
(-0.0281024 0.138024 -0.00337483)
(-0.0416136 0.151222 -0.00358726)
(-0.0551649 0.155658 -0.00382047)
(-0.0675212 0.151591 -0.00404818)
(-0.0773905 0.138597 -0.00420618)
(-0.0844898 0.115651 -0.00426444)
(-0.0877722 0.0799468 -0.00362306)
(-0.0294969 0.000671637 -0.0016772)
(-0.0313658 0.000484049 -0.00238973)
(-0.0326902 0.00032881 -0.00314169)
(-0.0335868 0.000213287 -0.00391621)
(-0.034176 0.000135047 -0.00470217)
(-0.0345626 8.73229e-05 -0.0054932)
(-0.0348293 6.29138e-05 -0.00628627)
(-0.0350385 5.60819e-05 -0.00708069)
(-0.0352371 6.2924e-05 -0.00787745)
(-0.035461 8.09064e-05 -0.008679)
(-0.0357372 0.000107972 -0.00948924)
(-0.0360838 0.000141407 -0.0103137)
(-0.0365057 0.00017655 -0.0111594)
(-0.0369878 0.000205439 -0.0120351)
(-0.0374849 0.000215692 -0.0129498)
(-0.0379096 0.000190272 -0.013912)
(-0.0381225 0.000108986 -0.0149263)
(-0.0379323 -4.85056e-05 -0.0159896)
(-0.0371122 -0.000291274 -0.0170877)
(-0.0354403 -0.000608801 -0.0181905)
(-0.0766007 0.00416869 -0.002019)
(-0.0812108 0.00306958 -0.00271369)
(-0.084508 0.00214943 -0.0034578)
(-0.0867733 0.0014501 -0.00423624)
(-0.0882918 0.000961454 -0.00503755)
(-0.0893093 0.00064888 -0.00585378)
(-0.09002 0.000473328 -0.00667997)
(-0.0905699 0.000401348 -0.00751358)
(-0.0910669 0.000407487 -0.00835404)
(-0.0915898 0.000472244 -0.00920248)
(-0.0921926 0.00057773 -0.0100615)
(-0.0929035 0.000702175 -0.0109353)
(-0.0937167 0.000813946 -0.0118292)
(-0.0945787 0.000865868 -0.0127493)
(-0.0953678 0.00079144 -0.013702)
(-0.0958738 0.000505909 -0.0146923)
(-0.0957834 -8.36349e-05 -0.0157219)
(-0.0946826 -0.00105628 -0.0167866)
(-0.0920963 -0.00243641 -0.0178727)
(-0.0875766 -0.00414958 -0.0189546)
(-0.113481 0.0108596 -0.00211011)
(-0.119755 0.00798397 -0.00278348)
(-0.124144 0.00559743 -0.00350948)
(-0.127102 0.00379262 -0.00427374)
(-0.129057 0.00253163 -0.00506466)
(-0.130352 0.00171911 -0.00587378)
(-0.131246 0.00125181 -0.00669546)
(-0.131926 0.00104186 -0.00752638)
(-0.132525 0.00102135 -0.00836514)
(-0.133135 0.00113674 -0.00921201)
(-0.133816 0.00133827 -0.0100686)
(-0.134595 0.00156706 -0.0109379)
(-0.135458 0.00174152 -0.0118238)
(-0.136329 0.00174497 -0.0127311)
(-0.137052 0.00141796 -0.0136647)
(-0.137359 0.000561971 -0.014629)
(-0.136849 -0.00103587 -0.0156262)
(-0.134984 -0.00354903 -0.0166543)
(-0.131127 -0.00702356 -0.0177041)
(-0.124643 -0.0112692 -0.018756)
(-0.140838 0.0190087 -0.00207897)
(-0.147669 0.0137599 -0.00275924)
(-0.152186 0.00950959 -0.00349232)
(-0.155075 0.00636682 -0.00426297)
(-0.156895 0.00421011 -0.00505904)
(-0.158052 0.00283615 -0.00587197)
(-0.158823 0.0020462 -0.0066962)
(-0.159391 0.00167995 -0.00752839)
(-0.159878 0.00161761 -0.00836693)
(-0.160365 0.00176686 -0.00921157)
(-0.160902 0.00204375 -0.0100632)
(-0.161511 0.00235104 -0.0109236)
(-0.162179 0.00255585 -0.0117956)
(-0.162839 0.00246877 -0.0126827)
(-0.163351 0.00182941 -0.0135895)
(-0.16346 0.000308136 -0.0145209)
(-0.16276 -0.00245919 -0.0154815)
(-0.16066 -0.00678813 -0.0164749)
(-0.156389 -0.012796 -0.0174995)
(-0.149074 -0.0201968 -0.0185456)
(-0.15885 0.0274554 -0.00192039)
(-0.165064 0.0193124 -0.00264104)
(-0.168698 0.0129835 -0.00340884)
(-0.170746 0.00848155 -0.0042073)
(-0.171882 0.00549221 -0.00502394)
(-0.172519 0.00363507 -0.00585121)
(-0.172898 0.00258295 -0.00668479)
(-0.173153 0.00209271 -0.00752229)
(-0.173359 0.00199354 -0.00836254)
(-0.173564 0.00216065 -0.00920518)
(-0.173795 0.0024854 -0.0100504)
(-0.174067 0.00284478 -0.0108991)
(-0.174381 0.00307017 -0.0117525)
(-0.174709 0.00291649 -0.012613)
(-0.174975 0.00203563 -0.0134843)
(-0.175012 -3.47621e-05 -0.0143724)
(-0.174499 -0.00384373 -0.0152855)
(-0.17288 -0.00992762 -0.0162349)
(-0.169279 -0.0186019 -0.0172314)
(-0.162467 -0.0296082 -0.0182837)
(-0.167272 0.0350553 -0.0016286)
(-0.171549 0.0235433 -0.00243658)
(-0.173247 0.0151459 -0.00327131)
(-0.17375 0.00951513 -0.00411913)
(-0.173766 0.00596023 -0.0049698)
(-0.173624 0.00383872 -0.00581942)
(-0.173452 0.0026711 -0.00666697)
(-0.173289 0.00213586 -0.0075123)
(-0.173136 0.00202546 -0.00835543)
(-0.172985 0.00219964 -0.00919627)
(-0.172834 0.00254416 -0.0100345)
(-0.172689 0.0029331 -0.0108697)
(-0.172565 0.00319119 -0.0117016)
(-0.172493 0.00305307 -0.0125306)
(-0.172499 0.00211985 -0.0133591)
(-0.172574 -0.00018078 -0.0141933)
(-0.17259 -0.00460734 -0.0150448)
(-0.172164 -0.0120222 -0.0159339)
(-0.170428 -0.02317 -0.0168888)
(-0.165682 -0.0381333 -0.0179542)
(-0.165274 0.040399 -0.00122272)
(-0.16604 0.0251936 -0.00218229)
(-0.164792 0.015145 -0.00311587)
(-0.163261 0.00897342 -0.00402814)
(-0.161968 0.00535431 -0.00491837)
(-0.161002 0.00331904 -0.0057915)
(-0.160298 0.00224904 -0.00665264)
(-0.159753 0.00177741 -0.00750512)
(-0.15928 0.00169121 -0.00835062)
(-0.158813 0.00186059 -0.00918943)
(-0.158311 0.00218915 -0.0100207)
(-0.157765 0.0025747 -0.0108425)
(-0.157202 0.00287087 -0.0116524)
(-0.156699 0.00284165 -0.0124484)
(-0.156394 0.00210158 -0.0132297)
(-0.15648 3.55376e-05 -0.0140003)
(-0.15713 -0.00429042 -0.0147753)
(-0.158351 -0.0121475 -0.0155816)
(-0.159601 -0.0250382 -0.0164686)
(-0.158749 -0.0440659 -0.0175486)
(-0.15095 0.0414156 -0.000755822)
(-0.146332 0.0227324 -0.00194521)
(-0.141489 0.0122618 -0.00299753)
(-0.137974 0.00664639 -0.00397405)
(-0.135633 0.00369431 -0.00489561)
(-0.134119 0.00217368 -0.0057834)
(-0.133115 0.00142834 -0.00665141)
(-0.13238 0.00112294 -0.00750672)
(-0.131751 0.0010872 -0.00835236)
(-0.131119 0.00123033 -0.00918861)
(-0.130413 0.00149338 -0.0100137)
(-0.129603 0.00181757 -0.010824)
(-0.128709 0.00211478 -0.0116146)
(-0.127821 0.00222911 -0.01238)
(-0.127142 0.00187458 -0.0131149)
(-0.127031 0.000525376 -0.0138188)
(-0.127998 -0.00276505 -0.014506)
(-0.130673 -0.00958709 -0.0152069)
(-0.135498 -0.0224965 -0.0159866)
(-0.140623 -0.0449676 -0.0170637)
(-0.119989 0.0356778 -0.000504027)
(-0.108296 0.0152679 -0.00194522)
(-0.100538 0.00670123 -0.00303816)
(-0.0962397 0.0030791 -0.00401918)
(-0.0938149 0.00150604 -0.00493215)
(-0.0924093 0.000814819 -0.00580989)
(-0.0915419 0.000519362 -0.00667075)
(-0.0909266 0.000418777 -0.00752176)
(-0.0903926 0.000430288 -0.0083648)
(-0.0898314 0.000518815 -0.00919884)
(-0.0891704 0.000667039 -0.0100205)
(-0.0883657 0.000860106 -0.0108243)
(-0.0874095 0.00107302 -0.0116022)
(-0.0863539 0.00125193 -0.0123441)
(-0.0853626 0.00127561 -0.0130379)
(-0.0847971 0.000868107 -0.0136736)
(-0.0852944 -0.000610899 -0.0142588)
(-0.0880748 -0.00468573 -0.0148005)
(-0.0954629 -0.0147406 -0.0153389)
(-0.10845 -0.038386 -0.0162485)
(-0.0613314 0.0219523 -0.00112814)
(-0.0456936 0.00629718 -0.0025455)
(-0.0393423 0.00190217 -0.00328767)
(-0.0370746 0.000599564 -0.00403094)
(-0.0361082 0.000198771 -0.00479248)
(-0.0356266 7.80145e-05 -0.00556794)
(-0.0353483 4.65915e-05 -0.00635462)
(-0.0351432 4.6392e-05 -0.00714723)
(-0.0349435 6.13878e-05 -0.00794085)
(-0.0347058 8.85253e-05 -0.00873079)
(-0.0343953 0.000128695 -0.00951141)
(-0.0339812 0.000183896 -0.010275)
(-0.0334381 0.000255714 -0.0110105)
(-0.032753 0.00034218 -0.0117019)
(-0.0319464 0.000427793 -0.012326)
(-0.0311202 0.000453005 -0.0128502)
(-0.0305909 0.000204887 -0.013231)
(-0.0312685 -0.00111992 -0.0134323)
(-0.0366471 -0.00611493 -0.0133447)
(-0.0543589 -0.0243979 -0.0135758)
(-0.0295004 0.000657864 1.59496e-06)
(-0.0313687 0.000473412 1.10928e-06)
(-0.0326923 0.000320998 7.28869e-07)
(-0.0335881 0.000207754 4.55256e-07)
(-0.0341767 0.000131209 2.75e-07)
(-0.0345629 8.46398e-05 1.66993e-07)
(-0.0348294 6.09335e-05 1.10931e-07)
(-0.0350384 5.44438e-05 9.12883e-08)
(-0.0352368 6.13504e-05 9.77305e-08)
(-0.0354605 7.91917e-05 1.23959e-07)
(-0.0357367 0.000105981 1.65753e-07)
(-0.0360832 0.000139088 2.18701e-07)
(-0.036505 0.000173966 2.76052e-07)
(-0.0369872 0.000202819 3.26301e-07)
(-0.0374844 0.000213479 3.51151e-07)
(-0.0379095 0.000189162 3.23621e-07)
(-0.0381231 0.000109955 2.00739e-07)
(-0.0379341 -4.43116e-05 -5.60973e-08)
(-0.0371157 -0.000282688 -5.03204e-07)
(-0.0354453 -0.000595164 -1.16886e-06)
(-0.0765996 0.00415734 -1.44507e-06)
(-0.0812091 0.00306032 -1.20309e-06)
(-0.0845059 0.0021424 -9.47086e-07)
(-0.0867712 0.001445 -7.18882e-07)
(-0.0882899 0.000957866 -5.32934e-07)
(-0.0893078 0.000646387 -3.95838e-07)
(-0.0900188 0.00047155 -3.06604e-07)
(-0.0905691 0.000399972 -2.59344e-07)
(-0.0910664 0.000406268 -2.46262e-07)
(-0.0915894 0.000470994 -2.58246e-07)
(-0.0921923 0.000576312 -2.84339e-07)
(-0.092903 0.000700509 -3.10536e-07)
(-0.0937159 0.000812029 -3.17878e-07)
(-0.0945772 0.000863817 -2.81056e-07)
(-0.0953654 0.000789543 -1.69488e-07)
(-0.0958703 0.000504663 4.58236e-08)
(-0.0957789 -8.34925e-05 3.90006e-07)
(-0.0946777 -0.00105376 8.56604e-07)
(-0.092092 -0.00243054 1.4164e-06)
(-0.087574 -0.00414033 1.93926e-06)
(-0.113483 0.0108616 -1.82129e-07)
(-0.119756 0.00798442 -3.12209e-07)
(-0.124143 0.00559745 -3.39028e-07)
(-0.127101 0.00379256 -3.20249e-07)
(-0.129055 0.00253164 -2.72406e-07)
(-0.13035 0.00171925 -2.16708e-07)
(-0.131244 0.0012521 -1.66432e-07)
(-0.131925 0.00104229 -1.26599e-07)
(-0.132524 0.00102193 -9.78831e-08)
(-0.133134 0.00113748 -7.8378e-08)
(-0.133815 0.00133914 -6.44811e-08)
(-0.134595 0.00156798 -5.17065e-08)
(-0.135457 0.00174238 -3.50135e-08)
(-0.136328 0.00174558 -8.00357e-09)
(-0.13705 0.00141812 3.76158e-08)
(-0.137357 0.000561463 1.05483e-07)
(-0.136846 -0.00103732 1.90363e-07)
(-0.134982 -0.00355137 2.94395e-07)
(-0.131125 -0.00702666 3.99516e-07)
(-0.124645 -0.0112745 3.39036e-07)
(-0.140843 0.0190054 -2.79299e-07)
(-0.14767 0.0137562 -4.50292e-07)
(-0.152185 0.0095072 -4.44181e-07)
(-0.155073 0.00636552 -3.93433e-07)
(-0.156893 0.00420961 -3.1235e-07)
(-0.15805 0.00283615 -2.30883e-07)
(-0.158821 0.00204646 -1.63637e-07)
(-0.159389 0.00168033 -1.12754e-07)
(-0.159877 0.00161802 -7.66022e-08)
(-0.160364 0.00176727 -5.22566e-08)
(-0.160901 0.00204411 -3.63649e-08)
(-0.16151 0.00235131 -2.57005e-08)
(-0.162178 0.00255593 -1.73841e-08)
(-0.162838 0.00246859 -6.79246e-09)
(-0.16335 0.00182895 1.82273e-08)
(-0.163458 0.000307516 6.89227e-08)
(-0.162757 -0.00245986 1.19005e-07)
(-0.160657 -0.00678802 2.146e-07)
(-0.156388 -0.0127937 3.94797e-07)
(-0.149079 -0.0201941 3.45455e-07)
(-0.158858 0.0274468 -7.64103e-07)
(-0.165064 0.0193051 -8.50835e-07)
(-0.168694 0.01298 -6.82606e-07)
(-0.170742 0.00848026 -5.31746e-07)
(-0.171878 0.00549215 -3.73083e-07)
(-0.172517 0.00363558 -2.44447e-07)
(-0.172896 0.00258361 -1.55849e-07)
(-0.173151 0.00209334 -9.86251e-08)
(-0.173358 0.00199407 -6.40855e-08)
(-0.173563 0.00216106 -4.57321e-08)
(-0.173794 0.00248568 -3.87051e-08)
(-0.174066 0.00284489 -3.93643e-08)
(-0.17438 0.00307008 -4.50945e-08)
(-0.174708 0.00291614 -5.06762e-08)
(-0.174974 0.00203506 -3.478e-08)
(-0.17501 -3.52922e-05 2.85774e-08)
(-0.174496 -0.0038438 7.58018e-08)
(-0.172875 -0.0099256 2.17124e-07)
(-0.169275 -0.0185938 6.82499e-07)
(-0.162476 -0.029596 9.54456e-07)
(-0.167286 0.0350378 -1.65328e-06)
(-0.171544 0.0235315 -1.39088e-06)
(-0.173239 0.0151424 -8.58273e-07)
(-0.173744 0.00951485 -5.72993e-07)
(-0.173762 0.00596125 -3.36156e-07)
(-0.173621 0.00384005 -1.76684e-07)
(-0.173451 0.00267229 -8.74727e-08)
(-0.173288 0.0021368 -4.01414e-08)
(-0.173135 0.00202617 -1.68926e-08)
(-0.172985 0.00220018 -8.12088e-09)
(-0.172834 0.00254455 -8.88577e-09)
(-0.172688 0.00293335 -1.6993e-08)
(-0.172565 0.00319126 -3.22546e-08)
(-0.172492 0.00305288 -5.33063e-08)
(-0.172498 0.00211934 -5.85663e-08)
(-0.172572 -0.000181325 -8.13603e-09)
(-0.172585 -0.00460698 9.43802e-10)
(-0.172153 -0.0120186 1.30166e-07)
(-0.170418 -0.0231546 1.15624e-06)
(-0.165697 -0.0381073 2.39529e-06)
(-0.165305 0.0403746 -4.42549e-06)
(-0.166025 0.0251857 -2.87936e-06)
(-0.164777 0.0151484 -1.30938e-06)
(-0.163253 0.00897745 -6.8113e-07)
(-0.161964 0.00535759 -2.88229e-07)
(-0.161 0.00332145 -8.79115e-08)
(-0.160296 0.00225069 -1.01176e-08)
(-0.159752 0.00177856 1.54749e-08)
(-0.159279 0.00169209 1.90219e-08)
(-0.158812 0.00186135 1.21728e-08)
(-0.158311 0.0021899 -1.11202e-09)
(-0.157765 0.00257545 -2.02055e-08)
(-0.157202 0.00287155 -4.57724e-08)
(-0.156699 0.00284203 -8.04745e-08)
(-0.156393 0.00210136 -1.12435e-07)
(-0.156477 3.46662e-05 -7.83202e-08)
(-0.157123 -0.00429212 7.35436e-08)
(-0.158331 -0.01215 3.64196e-07)
(-0.159576 -0.0250273 2.7639e-06)
(-0.15878 -0.0440321 6.57373e-06)
(-0.151007 0.0413752 -7.53985e-06)
(-0.146301 0.0227421 -3.00778e-06)
(-0.141471 0.0122825 -5.89502e-07)
(-0.13797 0.006658 -2.29775e-07)
(-0.135631 0.00370017 2.77196e-08)
(-0.134118 0.00217681 1.19291e-07)
(-0.133114 0.0014301 1.11944e-07)
(-0.13238 0.00112411 9.1453e-08)
(-0.131751 0.00108825 7.55882e-08)
(-0.131118 0.00123152 6.44102e-08)
(-0.130412 0.00149485 5.50737e-08)
(-0.129603 0.00181936 4.32243e-08)
(-0.128709 0.00211681 2.19376e-08)
(-0.127821 0.00223097 -2.83924e-08)
(-0.127142 0.00187548 -1.07314e-07)
(-0.127031 0.000523883 -6.1609e-08)
(-0.127997 -0.0027732 6.4535e-08)
(-0.130653 -0.00960835 -3.41247e-07)
(-0.135455 -0.0225085 2.46256e-06)
(-0.14068 -0.0449139 1.05495e-05)
(-0.120059 0.0354877 -9.4544e-06)
(-0.108229 0.0152111 4.16492e-06)
(-0.100526 0.00669091 4.6084e-06)
(-0.0962486 0.00307237 1.93451e-06)
(-0.0938199 0.00150107 9.8783e-07)
(-0.0924116 0.000811768 5.91823e-07)
(-0.091543 0.000517392 3.63539e-07)
(-0.0909269 0.000417331 2.68881e-07)
(-0.0903923 0.000429051 2.55046e-07)
(-0.0898308 0.00051758 2.86214e-07)
(-0.0891697 0.000665672 3.44276e-07)
(-0.0883652 0.000858564 4.1381e-07)
(-0.0874096 0.0010714 4.67451e-07)
(-0.0863553 0.00125057 4.34355e-07)
(-0.0853659 0.00127528 2.21096e-07)
(-0.0848051 0.000869794 -1.30981e-07)
(-0.085312 -0.000607285 -1.26973e-06)
(-0.0880706 -0.00467848 -5.67477e-06)
(-0.095377 -0.0146791 -7.56565e-06)
(-0.108501 -0.0381424 1.15915e-05)
(-0.0613704 0.0218124 -5.19896e-05)
(-0.0455397 0.00623153 -8.57303e-06)
(-0.0392994 0.00187592 -5.48448e-07)
(-0.0370706 0.000584817 -1.38168e-06)
(-0.0361053 0.000190265 -8.90667e-07)
(-0.0356245 7.33036e-05 -4.08531e-07)
(-0.0353474 4.37841e-05 -2.25751e-07)
(-0.0351428 4.43946e-05 -1.56201e-07)
(-0.0349433 5.96046e-05 -1.35493e-07)
(-0.0347058 8.66027e-05 -1.47763e-07)
(-0.0343954 0.000126419 -1.83019e-07)
(-0.0339814 0.000181181 -2.31814e-07)
(-0.0334383 0.000252686 -2.8095e-07)
(-0.0327529 0.000339393 -3.06366e-07)
(-0.0319452 0.000426539 -2.18875e-07)
(-0.0311191 0.000455431 2.24243e-07)
(-0.0305931 0.000214206 6.30371e-07)
(-0.0312285 -0.00109725 -1.83511e-06)
(-0.0364421 -0.00604456 3.89942e-06)
(-0.0543478 -0.0242132 6.48142e-05)
(-0.0295004 0.000657864 -1.59133e-06)
(-0.0313686 0.000473412 -1.10567e-06)
(-0.0326922 0.000320998 -7.25847e-07)
(-0.033588 0.000207754 -4.53324e-07)
(-0.0341766 0.000131209 -2.74161e-07)
(-0.0345629 8.46397e-05 -1.66734e-07)
(-0.0348293 6.09333e-05 -1.1084e-07)
(-0.0350383 5.44435e-05 -9.13369e-08)
(-0.0352368 6.135e-05 -9.78679e-08)
(-0.0354605 7.91911e-05 -1.24064e-07)
(-0.0357366 0.00010598 -1.65689e-07)
(-0.0360831 0.000139087 -2.18546e-07)
(-0.0365049 0.000173965 -2.75968e-07)
(-0.0369871 0.000202818 -3.26335e-07)
(-0.0374843 0.000213478 -3.51084e-07)
(-0.0379094 0.000189162 -3.23023e-07)
(-0.038123 0.000109955 -1.9905e-07)
(-0.0379341 -4.43105e-05 5.93811e-08)
(-0.0371156 -0.000282686 5.08408e-07)
(-0.0354453 -0.00059516 1.17599e-06)
(-0.0765995 0.00415734 1.45009e-06)
(-0.081209 0.00306032 1.20769e-06)
(-0.0845058 0.0021424 9.50855e-07)
(-0.0867711 0.001445 7.21483e-07)