/*--------------------------------*- C++ -*----------------------------------*\
| =========                 |                                                 |
| \\      /  F ield         | OpenFOAM: The Open Source CFD Toolbox           |
|  \\    /   O peration     | Version:  2.4.0                                 |
|   \\  /    A nd           | Web:      www.OpenFOAM.org                      |
|    \\/     M anipulation  |                                                 |
\*---------------------------------------------------------------------------*/
FoamFile
{
    version     2.0;
    format      ascii;
    class       volScalarField;
    location    "0.0022";
    object      T;
}
// * * * * * * * * * * * * * * * * * * * * * * * * * * * * * * * * * * * * * //

dimensions      [0 0 0 1 0 0 0];

internalField   nonuniform List<scalar> 
4800
(
100.182
100.547
100.913
101.281
101.649
102.016
102.378
102.729
103.064
103.376
100.547
101.643
102.743
103.848
104.957
106.062
107.153
108.215
109.227
110.167
100.913
102.743
104.582
106.431
108.29
110.148
111.987
113.779
115.49
117.08
101.281
103.848
106.431
109.036
111.66
114.294
116.911
119.472
121.923
124.2
101.649
104.956
108.289
111.66
115.07
118.51
121.95
125.337
128.593
131.619
102.016
106.061
110.147
114.292
118.509
122.792
127.112
131.405
135.567
139.443
102.377
107.152
111.985
116.909
121.948
127.11
132.377
137.686
142.902
147.802
102.729
108.213
113.776
119.469
125.333
131.402
137.684
144.139
150.635
156.862
103.063
109.224
115.486
121.918
128.587
135.561
142.898
150.632
158.71
166.822
103.374
110.163
117.074
124.192
131.61
139.435
147.795
156.857
166.819
177.78
100.182
100.547
100.913
101.281
101.649
102.016
102.378
102.729
103.064
103.376
100.547
101.643
102.743
103.848
104.957
106.062
107.153
108.215
109.227
110.167
100.913
102.743
104.582
106.431
108.29
110.148
111.987
113.779
115.49
117.08
101.281
103.848
106.431
109.036
111.66
114.294
116.911
119.472
121.923
124.2
101.649
104.956
108.289
111.66
115.07
118.51
121.95
125.337
128.593
131.619
102.016
106.061
110.147
114.292
118.509
122.792
127.112
131.405
135.567
139.443
102.377
107.152
111.985
116.909
121.948
127.111
132.378
137.686
142.903
147.802
102.729
108.213
113.776
119.469
125.334
131.402
137.684
144.139
150.635
156.862
103.063
109.224
115.486
121.918
128.588
135.561
142.899
150.633
158.711
166.822
103.374
110.163
117.074
124.192
131.611
139.435
147.796
156.857
166.82
177.78
100.182
100.547
100.913
101.281
101.649
102.016
102.378
102.729
103.064
103.376
100.547
101.643
102.743
103.848
104.957
106.062
107.153
108.215
109.227
110.167
100.913
102.743
104.582
106.431
108.29
110.148
111.987
113.779
115.49
117.08
101.281
103.848
106.431
109.036
111.66
114.294
116.911
119.472
121.923
124.2
101.649
104.956
108.289
111.66
115.07
118.51
121.95
125.337
128.593
131.619
102.016
106.061
110.147
114.292
118.509
122.792
127.112
131.405
135.567
139.443
102.377
107.152
111.985
116.909
121.948
127.111
132.378
137.686
142.903
147.802
102.729
108.213
113.776
119.469
125.334
131.402
137.684
144.139
150.635
156.862
103.063
109.224
115.486
121.918
128.588
135.561
142.899
150.633
158.711
166.822
103.374
110.163
117.074
124.192
131.611
139.435
147.796
156.857
166.82
177.78
100.182
100.547
100.913
101.281
101.649
102.016
102.378
102.729
103.064
103.376
100.547
101.643
102.743
103.848
104.957
106.062
107.153
108.215
109.227
110.167
100.913
102.743
104.582
106.431
108.29
110.148
111.987
113.779
115.49
117.08
101.281
103.848
106.431
109.036
111.66
114.294
116.911
119.472
121.923
124.2
101.649
104.956
108.289
111.66
115.07
118.51
121.95
125.337
128.593
131.619
102.016
106.061
110.147
114.292
118.509
122.792
127.112
131.405
135.567
139.443
102.377
107.152
111.985
116.909
121.948
127.11
132.377
137.686
142.902
147.802
102.729
108.213
113.776
119.469
125.333
131.402
137.684
144.139
150.635
156.862
103.063
109.224
115.486
121.918
128.587
135.561
142.898
150.632
158.71
166.822
103.374
110.163
117.074
124.192
131.61
139.435
147.795
156.857
166.819
177.78
103.657
103.903
104.113
104.286
104.424
104.531
104.611
104.667
104.703
104.72
104.72
104.703
104.667
104.611
104.531
104.424
104.285
104.113
103.903
103.657
111.015
111.757
112.385
112.901
113.312
113.629
113.864
114.03
114.135
114.186
114.186
114.135
114.03
113.864
113.628
113.311
112.9
112.384
111.756
111.015
118.51
119.753
120.798
121.648
122.319
122.833
123.213
123.478
123.646
123.727
123.727
123.645
123.477
123.212
122.832
122.318
121.646
120.796
119.752
118.509
126.239
127.994
129.449
130.616
131.525
132.212
132.714
133.062
133.281
133.386
133.386
133.28
133.061
132.712
132.21
131.523
130.614
129.447
127.992
126.237
134.31
136.592
138.445
139.897
141.004
141.826
142.418
142.824
143.077
143.198
143.198
143.076
142.823
142.416
141.824
141.002
139.895
138.442
136.59
134.308
142.861
145.686
147.903
149.584
150.827
151.727
152.362
152.792
153.058
153.184
153.184
153.057
152.791
152.361
151.725
150.824
149.582
147.901
145.683
142.859
152.076
155.454
157.963
159.77
161.051
161.948
162.567
162.979
163.23
163.349
163.349
163.23
162.978
162.566
161.946
161.049
159.768
157.961
155.451
152.074
162.256
166.153
168.786
170.538
171.711
172.5
173.029
173.374
173.583
173.681
173.681
173.583
173.374
173.028
172.498
171.709
170.537
168.784
166.152
162.254
173.991
178.172
180.537
181.932
182.796
183.351
183.713
183.945
184.084
184.149
184.149
184.084
183.945
183.713
183.351
182.796
181.931
180.536
178.171
173.99
188.759
192.042
193.291
193.886
194.219
194.423
194.552
194.635
194.683
194.706
194.706
194.683
194.635
194.552
194.423
194.219
193.886
193.291
192.041
188.758
103.657
103.903
104.113
104.286
104.424
104.531
104.611
104.667
104.703
104.72
104.72
104.702
104.667
104.61
104.53
104.423
104.285
104.112
103.903
103.656
111.015
111.757
112.385
112.901
113.311
113.628
113.864
114.03
114.135
114.185
114.185
114.134
114.029
113.863
113.627
113.31
112.899
112.383
111.755
111.014
118.51
119.753
120.798
121.648
122.319
122.833
123.212
123.478
123.645
123.726
123.726
123.645
123.476
123.211
122.831
122.317
121.645
120.795
119.751
118.508
126.238
127.994
129.449
130.616
131.525
132.211
132.713
133.062
133.28
133.385
133.385
133.279
133.06
132.711
132.209
131.522
130.613
129.446
127.99
126.235
134.31
136.592
138.444
139.897
141.004
141.826
142.417
142.823
143.076
143.197
143.197
143.075
142.822
142.415
141.823
141.001
139.893
138.441
136.588
134.307
142.861
145.685
147.903
149.584
150.826
151.726
152.362
152.792
153.057
153.183
153.183
153.056
152.79
152.36
151.724
150.823
149.58
147.899
145.681
142.857
152.076
155.453
157.963
159.77
161.05
161.948
162.567
162.978
163.23
163.349
163.348
163.229
162.977
162.565
161.945
161.047
159.766
157.959
155.45
152.072
162.256
166.153
168.786
170.538
171.71
172.499
173.028
173.374
173.582
173.68
173.68
173.582
173.372
173.026
172.497
171.708
170.535
168.783
166.15
162.253
173.991
178.171
180.537
181.932
182.796
183.351
183.713
183.945
184.083
184.148
184.148
184.083
183.944
183.711
183.349
182.794
181.93
180.535
178.169
173.989
188.759
192.041
193.291
193.886
194.219
194.422
194.552
194.634
194.683
194.706
194.706
194.683
194.634
194.552
194.422
194.218
193.885
193.29
192.04
188.757
103.657
103.903
104.113
104.286
104.424
104.531
104.611
104.667
104.703
104.72
104.72
104.702
104.667
104.61
104.53
104.423
104.285
104.112
103.903
103.656
111.015
111.757
112.385
112.901
113.311
113.628
113.864
114.03
114.135
114.185
114.185
114.134
114.029
113.863
113.627
113.31
112.899
112.383
111.755
111.014
118.51
119.753
120.798
121.648
122.319
122.833
123.212
123.478
123.645
123.726
123.726
123.645
123.476
123.211
122.831
122.317
121.645
120.795
119.751
118.508
126.238
127.994
129.449
130.616
131.525
132.211
132.713
133.062
133.28
133.385
133.385
133.279
133.06
132.711
132.209
131.522
130.613
129.446
127.99
126.235
134.31
136.592
138.444
139.897
141.004
141.826
142.417
142.823
143.076
143.197
143.197
143.075
142.822
142.415
141.823
141.001
139.893
138.441
136.588
134.307
142.861
145.685
147.903
149.584
150.826
151.726
152.362
152.792
153.057
153.183
153.183
153.056
152.79
152.36
151.724
150.823
149.58
147.899
145.681
142.857
152.076
155.453
157.963
159.77
161.05
161.948
162.567
162.978
163.23
163.349
163.348
163.229
162.977
162.565
161.945
161.047
159.766
157.959
155.45
152.072
162.256
166.153
168.786
170.538
171.71
172.499
173.028
173.374
173.582
173.68
173.68
173.582
173.372
173.026
172.497
171.708
170.535
168.783
166.15
162.253
173.991
178.171
180.537
181.932
182.796
183.351
183.713
183.945
184.083
184.148
184.148
184.083
183.944
183.711
183.349
182.794
181.93
180.535
178.169
173.989
188.759
192.041
193.291
193.886
194.219
194.422
194.552
194.634
194.683
194.706
194.706
194.683
194.634
194.552
194.422
194.218
193.885
193.29
192.04
188.757
103.657
103.903
104.113
104.286
104.424
104.531
104.611
104.667
104.703
104.72
104.72
104.703
104.667
104.611
104.531
104.424
104.285
104.113
103.903
103.657
111.015
111.757
112.385
112.901
113.312
113.629
113.864
114.03
114.135
114.186
114.186
114.135
114.03
113.864
113.628
113.311
112.9
112.384
111.756
111.015
118.51
119.753
120.798
121.648
122.319
122.833
123.213
123.478
123.646
123.727
123.727
123.645
123.477
123.212
122.832
122.318
121.646
120.796
119.752
118.509
126.239
127.994
129.449
130.616
131.525
132.212
132.714
133.062
133.281
133.386
133.386
133.28
133.061
132.712
132.21
131.523
130.614
129.447
127.992
126.237
134.31
136.592
138.445
139.897
141.004
141.826
142.418
142.824
143.077
143.198
143.198
143.076
142.823
142.416
141.824
141.002
139.895
138.442
136.59
134.308
142.861
145.685
147.903
149.584
150.827
151.727
152.362
152.792
153.058
153.184
153.184
153.057
152.791
152.361
151.725
150.824
149.582
147.901
145.683
142.859
152.076
155.454
157.963
159.77
161.051
161.948
162.567
162.979
163.23
163.349
163.349
163.23
162.978
162.566
161.946
161.049
159.768
157.961
155.451
152.074
162.256
166.153
168.786
170.538
171.711
172.5
173.029
173.374
173.583
173.681
173.681
173.583
173.374
173.028
172.498
171.709
170.537
168.784
166.152
162.254
173.991
178.172
180.537
181.932
182.796
183.351
183.713
183.945
184.084
184.149
184.149
184.084
183.945
183.713
183.351
182.796
181.931
180.536
178.171
173.99
188.759
192.042
193.291
193.886
194.219
194.423
194.552
194.635
194.683
194.706
194.706
194.683
194.635
194.552
194.423
194.219
193.886
193.291
192.041
188.758
103.376
103.064
102.73
102.378
102.016
101.65
101.281
100.914
100.547
100.182
110.166
109.226
108.215
107.154
106.062
104.957
103.849
102.744
101.644
100.547
117.079
115.49
113.779
111.987
110.148
108.291
106.432
104.582
102.744
100.914
124.198
121.923
119.472
116.911
114.294
111.661
109.036
106.432
103.849
101.281
131.617
128.592
125.337
121.95
118.511
115.071
111.661
108.29
104.957
101.65
139.442
135.566
131.405
127.112
122.793
118.51
114.294
110.148
106.062
102.016
147.801
142.902
137.686
132.378
127.112
121.949
116.91
111.986
107.153
102.378
156.861
150.635
144.14
137.685
131.404
125.335
119.471
113.778
108.214
102.729
166.822
158.712
150.634
142.901
135.564
128.59
121.92
115.488
109.225
103.064
177.781
166.821
156.859
147.798
139.438
131.614
124.195
117.076
110.165
103.375
103.375
103.064
102.729
102.377
102.016
101.649
101.281
100.913
100.547
100.182
110.165
109.225
108.214
107.152
106.061
104.956
103.848
102.742
101.642
100.547
117.078
115.488
113.778
111.985
110.147
108.289
106.431
104.581
102.742
100.913
124.197
121.921
119.47
116.909
114.292
111.659
109.035
106.431
103.848
101.28
131.616
128.591
125.335
121.948
118.509
115.069
111.659
108.289
104.956
101.649
139.44
135.564
131.404
127.11
122.791
118.509
114.292
110.146
106.061
102.015
147.799
142.9
137.684
132.377
127.11
121.948
116.908
111.985
107.152
102.377
156.859
150.633
144.138
137.683
131.402
125.334
119.469
113.776
108.213
102.729
166.821
158.71
150.632
142.899
135.562
128.588
121.919
115.486
109.224
103.063
177.779
166.819
156.857
147.796
139.436
131.612
124.193
117.075
110.163
103.374
103.375
103.064
102.729
102.377
102.016
101.649
101.281
100.913
100.547
100.182
110.165
109.225
108.214
107.152
106.061
104.956
103.848
102.742
101.642
100.547
117.078
115.488
113.778
111.985
110.147
108.289
106.431
104.581
102.742
100.913
124.197
121.921
119.47
116.909
114.292
111.659
109.035
106.431
103.848
101.28
131.616
128.591
125.335
121.948
118.509
115.069
111.659
108.289
104.956
101.649
139.44
135.564
131.404
127.11
122.791
118.509
114.292
110.146
106.061
102.015
147.799
142.9
137.684
132.377
127.11
121.948
116.908
111.985
107.152
102.377
156.859
150.633
144.138
137.683
131.402
125.334
119.469
113.776
108.213
102.729
166.821
158.71
150.632
142.899
135.562
128.588
121.919
115.486
109.224
103.063
177.779
166.819
156.857
147.796
139.436
131.612
124.193
117.075
110.163
103.374
103.376
103.064
102.73
102.378
102.016
101.65
101.281
100.914
100.547
100.182
110.166
109.226
108.215
107.154
106.062
104.957
103.849
102.744
101.644
100.547
117.079
115.49
113.779
111.987
110.148
108.291
106.432
104.582
102.744
100.914
124.198
121.923
119.472
116.911
114.294
111.661
109.036
106.432
103.849
101.281
131.617
128.592
125.337
121.95
118.511
115.071
111.661
108.29
104.957
101.65
139.442
135.566
131.405
127.112
122.793
118.51
114.294
110.148
106.062
102.016
147.801
142.902
137.686
132.378
127.112
121.949
116.91
111.986
107.153
102.378
156.861
150.635
144.14
137.685
131.404
125.335
119.471
113.778
108.214
102.729
166.822
158.712
150.634
142.901
135.564
128.59
121.92
115.488
109.225
103.064
177.781
166.821
156.859
147.798
139.438
131.614
124.195
117.076
110.165
103.375
188.759
173.989
162.251
152.07
142.853
134.303
126.232
118.505
111.012
103.656
192.041
178.167
166.146
155.444
145.675
136.581
127.984
119.746
111.752
103.902
193.289
180.531
168.776
157.95
147.888
138.43
129.436
120.787
112.379
104.111
193.884
181.924
170.524
159.752
149.564
139.877
130.598
121.634
112.892
104.283
194.216
182.785
171.692
161.026
150.8
140.977
131.5
122.3
113.299
104.42
194.418
183.336
172.474
161.916
151.691
141.79
132.18
122.808
113.612
104.526
194.546
183.692
172.996
162.525
152.316
142.371
132.672
123.179
113.843
104.604
194.626
183.918
173.332
162.925
152.733
142.764
133.008
123.435
114.003
104.658
194.672
184.05
173.529
163.162
152.981
143.001
133.212
123.591
114.1
104.691
194.691
184.105
173.613
163.263
153.088
143.102
133.3
123.658
114.142
104.705
194.688
184.095
173.596
163.241
153.064
143.079
133.278
123.642
114.132
104.702
194.661
184.017
173.478
163.098
152.911
142.93
133.149
123.541
114.068
104.68
194.607
183.865
173.248
162.819
152.615
142.647
132.903
123.352
113.949
104.64
194.52
183.619
172.881
162.38
152.154
142.21
132.526
123.064
113.769
104.578
194.387
183.245
172.333
161.736
151.49
141.589
131.998
122.663
113.52
104.494
194.182
182.685
171.533
160.822
150.57
140.745
131.289
122.131
113.191
104.383
193.853
181.829
170.368
159.544
149.324
139.63
130.371
121.452
112.774
104.242
193.276
180.472
168.657
157.774
147.671
138.197
129.216
120.608
112.262
104.07
192.079
178.205
166.131
155.361
145.534
136.408
127.808
119.596
111.652
103.867
188.955
174.244
162.448
152.173
142.87
134.255
126.151
118.422
110.952
103.634
188.757
173.987
162.249
152.067
142.851
134.301
126.23
118.503
111.011
103.655
192.039
178.165
166.144
155.442
145.672
136.579
127.982
119.744
111.751
103.901
193.287
180.528
168.773
157.948
147.886
138.427
129.434
120.785
112.377
104.11
193.882
181.921
170.522
159.749
149.561
139.875
130.596
121.631
112.89
104.282
194.214
182.782
171.689
161.024
150.797
140.975
131.498
122.298
113.298
104.419
194.416
183.333
172.471
161.913
151.688
141.788
132.177
122.806
113.611
104.524
194.544
183.689
172.993
162.522
152.313
142.369
132.67
123.177
113.841
104.603
194.624
183.915
173.329
162.922
152.73
142.761
133.006
123.433
114.001
104.657
194.67
184.047
173.526
163.159
152.979
142.998
133.21
123.589
114.098
104.69
194.689
184.102
173.609
163.26
153.085
143.099
133.297
123.656
114.14
104.704
194.686
184.091
173.592
163.238
153.061
143.076
133.276
123.639
114.129
104.7
194.658
184.014
173.475
163.094
152.908
142.927
133.146
123.539
114.066
104.679
194.605
183.861
173.244
162.816
152.612
142.644
132.9
123.349
113.947
104.638
194.518
183.615
172.877
162.376
152.151
142.207
132.523
123.061
113.767
104.577
194.385
183.242
172.329
161.732
151.487
141.586
131.995
122.66
113.517
104.492
194.179
182.681
171.529
160.818
150.566
140.741
131.286
122.129
113.189
104.381
193.851
181.825
170.364
159.54
149.32
139.627
130.368
121.449
112.772
104.241
193.273
180.468
168.653
157.77
147.668
138.194
129.213
120.606
112.26
104.069
192.076
178.201
166.127
155.357
145.53
136.404
127.805
119.593
111.65
103.866
188.952
174.24
162.444
152.17
142.866
134.252
126.148
118.419
110.949
103.633
188.757
173.987
162.249
152.067
142.851
134.301
126.23
118.503
111.011
103.655
192.039
178.165
166.144
155.442
145.672
136.579
127.982
119.744
111.751
103.901
193.287
180.528
168.773
157.948
147.886
138.427
129.434
120.785
112.377
104.11
193.882
181.921
170.522
159.749
149.561
139.875
130.596
121.631
112.89
104.282
194.214
182.782
171.689
161.024
150.797
140.975
131.498
122.298
113.298
104.419
194.416
183.333
172.471
161.913
151.688
141.788
132.177
122.805
113.611
104.524
194.544
183.689
172.993
162.522
152.313
142.369
132.67
123.177
113.841
104.603
194.624
183.915
173.329
162.922
152.73
142.761
133.006
123.433
114.001
104.657
194.67
184.047
173.526
163.159
152.979
142.998
133.21
123.589
114.098
104.69
194.689
184.102
173.609
163.26
153.085
143.099
133.297
123.656
114.14
104.704
194.686
184.091
173.592
163.238
153.061
143.076
133.276
123.639
114.129
104.7
194.658
184.014
173.475
163.094
152.908
142.927
133.146
123.539
114.066
104.679
194.605
183.861
173.244
162.816
152.612
142.644
132.9
123.349
113.947
104.638
194.518
183.615
172.877
162.376
152.151
142.207
132.523
123.061
113.767
104.577
194.385
183.242
172.329
161.732
151.487
141.586
131.995
122.66
113.517
104.492
194.179
182.681
171.529
160.818
150.566
140.741
131.286
122.129
113.189
104.381
193.851
181.825
170.364
159.54
149.32
139.627
130.368
121.449
112.772
104.241
193.273
180.468
168.653
157.77
147.668
138.194
129.213
120.606
112.26
104.069
192.076
178.201
166.127
155.357
145.53
136.404
127.805
119.593
111.65
103.866
188.952
174.24
162.444
152.17
142.866
134.252
126.148
118.419
110.949
103.633
188.759
173.989
162.251
152.07
142.853
134.303
126.232
118.505
111.012
103.656
192.041
178.167
166.146
155.444
145.675
136.581
127.984
119.746
111.752
103.902
193.289
180.531
168.776
157.95
147.888
138.43
129.436
120.787
112.379
104.111
193.884
181.924
170.524
159.752
149.564
139.877
130.598
121.633
112.892
104.283
194.216
182.785
171.692
161.026
150.8
140.977
131.5
122.3
113.299
104.42
194.418
183.336
172.474
161.916
151.691
141.79
132.18
122.808
113.612
104.526
194.546
183.692
172.996
162.525
152.316
142.371
132.672
123.179
113.843
104.604
194.626
183.918
173.332
162.925
152.733
142.764
133.008
123.435
114.003
104.658
194.672
184.05
173.529
163.162
152.981
143.001
133.212
123.591
114.1
104.691
194.691
184.105
173.613
163.263
153.088
143.102
133.3
123.658
114.142
104.705
194.688
184.095
173.596
163.241
153.064
143.079
133.278
123.641
114.131
104.702
194.661
184.017
173.478
163.098
152.911
142.93
133.149
123.541
114.068
104.68
194.607
183.865
173.248
162.819
152.615
142.647
132.903
123.352
113.949
104.64
194.52
183.619
172.881
162.38
152.154
142.21
132.526
123.064
113.769
104.578
194.387
183.245
172.333
161.736
151.49
141.589
131.998
122.663
113.52
104.494
194.182
182.685
171.533
160.822
150.57
140.745
131.289
122.131
113.191
104.383
193.853
181.829
170.368
159.544
149.324
139.63
130.371
121.452
112.774
104.242
193.276
180.472
168.657
157.774
147.671
138.197
129.216
120.608
112.262
104.07
192.079
178.205
166.131
155.361
145.534
136.408
127.808
119.596
111.652
103.867
188.955
174.244
162.448
152.173
142.87
134.255
126.151
118.422
110.952
103.634
178.52
167.522
157.437
148.228
139.727
131.786
124.284
117.113
110.176
103.377
168.422
160.117
151.81
143.839
136.278
129.109
122.277
115.716
109.351
103.104
159.615
153.037
146.178
139.363
132.742
126.363
120.222
114.288
108.509
102.825
152.075
146.654
140.909
135.082
129.317
123.687
118.215
112.891
107.685
102.553
145.697
141.098
136.206
131.188
126.164
121.204
116.343
111.585
106.914
102.298
140.412
136.421
132.181
127.809
123.397
119.01
114.681
110.422
106.226
102.071
136.191
132.65
128.901
125.028
121.103
117.179
113.288
109.444
105.646
101.879
133.023
129.805
126.41
122.901
119.338
115.764
112.208
108.685
105.194
101.73
130.909
127.9
124.735
121.466
118.142
114.802
111.472
108.167
104.886
101.627
129.85
126.945
123.893
120.742
117.538
114.315
111.1
107.904
104.73
101.58
178.517
167.518
157.434
148.224
139.723
131.783
124.281
117.11
110.173
103.375
168.419
160.114
151.807
143.835
136.275
129.106
122.274
115.713
109.348
103.102
159.612
153.034
146.175
139.36
132.739
126.36
120.219
114.285
108.506
102.824
152.072
146.651
140.907
135.079
129.314
123.684
118.212
112.888
107.682
102.552
145.694
141.095
136.203
131.186
126.161
121.201
116.34
111.582
106.911
102.296
140.41
136.419
132.178
127.806
123.395
119.007
114.678
110.419
106.222
102.069
136.189
132.648
128.899
125.025
121.1
117.175
113.284
109.44
105.642
101.876
133.021
129.803
126.407
122.899
119.335
115.76
112.204
108.68
105.19
101.726
130.906
127.898
124.732
121.463
118.139
114.798
111.468
108.161
104.88
101.623
129.848
126.943
123.891
120.74
117.535
114.312
111.096
107.899
104.723
101.574
178.517
167.518
157.434
148.224
139.723
131.783
124.281
117.11
110.173
103.375
168.419
160.114
151.807
143.835
136.275
129.106
122.274
115.713
109.348
103.102
159.612
153.034
146.175
139.36
132.739
126.36
120.219
114.285
108.506
102.824
152.072
146.651
140.907
135.079
129.314
123.684
118.212
112.888
107.682
102.552
145.694
141.095
136.203
131.186
126.161
121.201
116.34
111.582
106.911
102.296
140.41
136.419
132.178
127.806
123.395
119.007
114.678
110.419
106.222
102.069
136.189
132.648
128.899
125.025
121.1
117.175
113.284
109.44
105.642
101.876
133.021
129.803
126.407
122.899
119.335
115.76
112.204
108.68
105.19
101.726
130.906
127.898
124.732
121.463
118.139
114.798
111.468
108.161
104.88
101.623
129.848
126.943
123.891
120.74
117.535
114.312
111.096
107.899
104.723
101.574
178.52
167.522
157.437
148.228
139.727
131.786
124.284
117.113
110.176
103.377
168.422
160.117
151.81
143.839
136.278
129.109
122.277
115.716
109.351
103.104
159.615
153.037
146.178
139.363
132.742
126.363
120.222
114.287
108.509
102.825
152.075
146.654
140.909
135.082
129.317
123.687
118.215
112.891
107.685
102.553
145.697
141.098
136.206
131.188
126.164
121.204
116.343
111.585
106.914
102.298
140.412
136.421
132.181
127.809
123.398
119.01
114.681
110.422
106.226
102.071
136.191
132.65
128.901
125.028
121.103
117.179
113.288
109.444
105.646
101.879
133.023
129.805
126.41
122.901
119.338
115.764
112.208
108.685
105.194
101.73
130.908
127.9
124.735
121.466
118.142
114.802
111.472
108.167
104.886
101.627
129.85
126.945
123.893
120.742
117.538
114.315
111.1
107.904
104.73
101.58
189.365
192.663
193.959
194.606
194.986
195.23
195.393
195.5
195.566
195.598
195.598
195.567
195.501
195.393
195.23
194.986
194.606
193.959
192.661
189.361
175.742
180.082
182.614
184.169
185.177
185.856
186.319
186.628
186.819
186.91
186.91
186.819
186.628
186.318
185.855
185.175
184.167
182.611
180.076
175.732
165.349
169.562
172.495
174.525
175.945
176.947
177.649
178.127
178.425
178.568
178.568
178.425
178.127
177.649
176.945
175.943
174.522
172.489
169.553
165.337
156.865
160.721
163.679
165.895
167.538
168.745
169.616
170.22
170.6
170.784
170.784
170.6
170.22
169.616
168.744
167.535
165.891
163.673
160.712
156.853
149.823
153.309
156.142
158.381
160.116
161.435
162.411
163.099
163.538
163.752
163.752
163.538
163.1
162.411
161.435
160.115
158.379
156.138
153.303
149.814
144.039
147.197
149.86
152.043
153.792
155.157
156.189
156.928
157.405
157.638
157.638
157.405
156.929
156.191
155.159
153.793
152.044
149.859
147.195
144.034
139.438
142.326
144.822
146.922
148.644
150.017
151.073
151.838
152.336
152.581
152.582
152.337
151.841
151.076
150.021
148.648
146.926
144.826
142.329
139.439
135.992
138.674
141.03
143.049
144.732
146.095
147.156
147.932
148.441
148.692
148.693
148.443
147.936
147.161
146.102
144.74
143.057
141.039
138.682
136
133.693
136.237
138.495
140.451
142.1
143.449
144.507
145.286
145.799
146.054
146.055
145.803
145.292
144.514
143.458
142.112
140.463
138.508
136.25
133.707
132.543
135.017
137.224
139.147
140.777
142.116
143.171
143.951
144.465
144.721
144.723
144.469
143.957
143.18
142.127
140.79
139.162
137.241
135.034
132.56
189.367
192.665
193.961
194.607
194.987
195.231
195.393
195.501
195.567
195.598
195.598
195.566
195.5
195.392
195.229
194.985
194.604
193.957
192.66
189.359
175.745
180.085
182.617
184.171
185.178
185.857
186.32
186.629
186.82
186.91
186.91
186.819
186.627
186.317
185.854
185.174
184.165
182.609
180.073
175.729
165.352
169.565
172.498
174.528
175.947
176.948
177.651
178.128
178.425
178.568
178.568
178.424
178.126
177.648
176.944
175.941
174.52
172.487
169.551
165.334
156.868
160.724
163.681
165.897
167.54
168.746
169.617
170.221
170.601
170.784
170.784
170.6
170.219
169.615
168.742
167.534
165.889
163.671
160.71
156.85
149.826
153.312
156.145
158.383
160.118
161.437
162.412
163.1
163.539
163.752
163.752
163.538
163.099
162.41
161.434
160.114
158.377
156.136
153.301
149.811
144.042
147.199
149.862
152.045
153.793
155.159
156.19
156.929
157.405
157.638
157.638
157.405
156.929
156.19
155.158
153.792
152.042
149.857
147.193
144.032
139.44
142.328
144.824
146.923
148.646
150.019
151.074
151.839
152.336
152.581
152.581
152.337
151.84
151.075
150.02
148.647
146.924
144.824
142.327
139.437
135.994
138.676
141.032
143.05
144.734
146.096
147.156
147.933
148.441
148.692
148.693
148.443
147.936
147.16
146.101
144.739
143.056
141.038
138.681
135.997
133.696
136.239
138.497
140.452
142.102
143.45
144.507
145.287
145.8
146.054
146.055
145.802
145.291
144.513
143.457
142.11
140.462
138.507
136.249
133.705
132.545
135.019
137.226
139.148
140.778
142.117
143.172
143.952
144.466
144.721
144.723
144.469
143.957
143.179
142.126
140.789
139.16
137.239
135.032
132.558
189.367
192.665
193.961
194.607
194.987
195.231
195.393
195.501
195.567
195.598
195.598
195.566
195.5
195.392
195.229
194.985
194.604
193.957
192.66
189.359
175.745
180.085
182.617
184.171
185.178
185.857
186.32
186.629
186.82
186.91
186.91
186.819
186.627
186.317
185.854
185.174
184.165
182.609
180.073
175.729
165.352
169.565
172.498
174.528
175.947
176.948
177.651
178.128
178.425
178.568
178.568
178.424
178.126
177.648
176.944
175.941
174.52
172.487
169.551
165.334
156.868
160.724
163.681
165.897
167.54
168.747
169.617
170.221
170.601
170.784
170.784
170.6
170.219
169.615
168.742
167.534
165.889
163.671
160.71
156.85
149.826
153.312
156.145
158.383
160.118
161.437
162.412
163.1
163.539
163.752
163.752
163.538
163.099
162.41
161.434
160.114
158.377
156.136
153.301
149.811
144.042
147.199
149.862
152.045
153.793
155.159
156.19
156.929
157.405
157.638
157.638
157.405
156.929
156.19
155.158
153.792
152.042
149.857
147.193
144.032
139.44
142.328
144.824
146.923
148.646
150.019
151.074
151.839
152.336
152.581
152.581
152.337
151.84
151.075
150.02
148.647
146.924
144.824
142.327
139.437
135.994
138.676
141.032
143.05
144.734
146.096
147.156
147.933
148.441
148.692
148.693
148.443
147.936
147.16
146.101
144.739
143.056
141.038
138.681
135.997
133.696
136.239
138.497
140.452
142.102
143.45
144.507
145.287
145.8
146.054
146.055
145.802
145.291
144.513
143.457
142.11
140.462
138.507
136.249
133.705
132.545
135.019
137.226
139.148
140.778
142.117
143.172
143.951
144.466
144.721
144.722
144.469
143.957
143.179
142.126
140.789
139.16
137.239
135.032
132.558
189.365
192.663
193.959
194.606
194.986
195.23
195.393
195.5
195.566
195.598
195.598
195.567
195.501
195.393
195.23
194.986
194.606
193.959
192.661
189.361
175.742
180.082
182.614
184.169
185.177
185.856
186.319
186.628
186.819
186.91
186.91
186.819
186.628
186.318
185.855
185.175
184.167
182.611
180.076
175.732
165.349
169.562
172.495
174.525
175.945
176.947
177.649
178.127
178.425
178.568
178.568
178.425
178.127
177.649
176.945
175.943
174.522
172.489
169.553
165.337
156.865
160.721
163.679
165.895
167.538
168.745
169.616
170.22
170.6
170.784
170.784
170.6
170.22
169.616
168.744
167.535
165.891
163.673
160.712
156.853
149.823
153.309
156.142
158.381
160.116
161.435
162.411
163.1
163.538
163.752
163.752
163.539
163.1
162.411
161.435
160.115
158.379
156.138
153.303
149.814
144.039
147.197
149.86
152.043
153.792
155.157
156.189
156.928
157.404
157.638
157.638
157.405
156.929
156.191
155.159
153.793
152.044
149.859
147.195
144.034
139.438
142.326
144.821
146.921
148.644
150.017
151.073
151.838
152.336
152.581
152.582
152.337
151.841
151.076
150.021
148.648
146.926
144.825
142.329
139.439
135.992
138.674
141.03
143.049
144.732
146.095
147.155
147.932
148.44
148.692
148.693
148.443
147.936
147.161
146.102
144.74
143.057
141.039
138.682
135.999
133.693
136.237
138.495
140.451
142.1
143.449
144.506
145.286
145.799
146.054
146.055
145.803
145.292
144.514
143.458
142.111
140.463
138.508
136.25
133.707
132.543
135.017
137.224
139.147
140.777
142.116
143.171
143.951
144.465
144.721
144.723
144.469
143.957
143.18
142.127
140.79
139.162
137.241
135.034
132.56
103.379
110.184
117.128
124.304
131.81
139.753
148.253
157.46
167.54
178.53
103.106
109.359
115.731
122.298
129.134
136.306
143.866
151.836
160.139
168.437
102.828
108.517
114.303
120.244
126.388
132.769
139.391
146.204
153.059
159.632
102.555
107.693
112.905
118.235
123.711
129.343
135.108
140.933
146.674
152.091
102.3
106.92
111.598
116.361
121.225
126.185
131.209
136.225
141.114
145.709
102.072
106.231
110.432
114.695
119.025
123.413
127.824
132.194
136.431
140.42
101.879
105.649
109.451
113.296
117.188
121.111
125.035
128.906
132.653
136.192
101.728
105.196
108.687
112.21
115.765
119.338
122.9
126.407
129.801
133.017
101.626
104.886
108.164
111.468
114.797
118.135
121.457
124.725
127.889
130.896
101.569
104.729
107.899
111.092
114.307
117.527
120.73
123.879
126.93